Agua tip4p_2005 bulk
30000
    1WAT     OW    1   2.689   1.335   2.282
    1WAT    HW1    2   2.594   1.351   2.310
    1WAT    HW2    3   2.724   1.253   2.327
    2WAT     OW    4   0.255   5.125   6.483
    2WAT    HW1    5   0.229   5.083   6.569
    2WAT    HW2    6   0.244   5.224   6.489
    3WAT     OW    7   1.254   2.361   4.167
    3WAT    HW1    8   1.351   2.378   4.181
    3WAT    HW2    9   1.228   2.274   4.210
    4WAT     OW   10   0.613   4.564   2.603
    4WAT    HW1   11   0.694   4.617   2.625
    4WAT    HW2   12   0.626   4.469   2.633
    5WAT     OW   13   5.666   2.609   6.681
    5WAT    HW1   14   5.727   2.604   6.602
    5WAT    HW2   15   5.719   2.597   6.765
    6WAT     OW   16   3.303   2.449   2.205
    6WAT    HW1   17   3.346   2.499   2.129
    6WAT    HW2   18   3.207   2.432   2.184
    7WAT     OW   19   6.209   4.084   2.555
    7WAT    HW1   20   6.308   4.070   2.560
    7WAT    HW2   21   6.189   4.153   2.486
    8WAT     OW   22   4.253   3.557   0.265
    8WAT    HW1   23   4.250   3.602   0.355
    8WAT    HW2   24   4.171   3.501   0.254
    9WAT     OW   25   5.288   3.180   1.924
    9WAT    HW1   26   5.322   3.271   1.901
    9WAT    HW2   27   5.292   3.122   1.843
   10WAT     OW   28   0.099   1.386   0.748
   10WAT    HW1   29   0.103   1.286   0.750
   10WAT    HW2   30   0.160   1.423   0.818
   11WAT     OW   31   0.060   0.594   3.909
   11WAT    HW1   32   0.017   0.566   3.823
   11WAT    HW2   33   0.138   0.535   3.928
   12WAT     OW   34   2.331   1.755   4.200
   12WAT    HW1   35   2.268   1.737   4.275
   12WAT    HW2   36   2.387   1.835   4.221
   13WAT     OW   37   2.640   5.472   4.843
   13WAT    HW1   38   2.585   5.540   4.795
   13WAT    HW2   39   2.733   5.473   4.806
   14WAT     OW   40   6.595   4.084   1.763
   14WAT    HW1   41   6.523   4.090   1.694
   14WAT    HW2   42   6.683   4.067   1.720
   15WAT     OW   43   1.283   2.806   1.073
   15WAT    HW1   44   1.357   2.837   1.013
   15WAT    HW2   45   1.237   2.884   1.113
   16WAT     OW   46   1.728   4.528   2.909
   16WAT    HW1   47   1.769   4.619   2.902
   16WAT    HW2   48   1.763   4.470   2.836
   17WAT     OW   49   4.675   3.337   1.638
   17WAT    HW1   50   4.643   3.408   1.701
   17WAT    HW2   51   4.624   3.345   1.552
   18WAT     OW   52   5.461   5.348   1.546
   18WAT    HW1   53   5.546   5.385   1.511
   18WAT    HW2   54   5.418   5.414   1.607
   19WAT     OW   55   4.278   3.715   0.045
   19WAT    HW1   56   4.281   3.661   0.129
   19WAT    HW2   57   4.217   3.671  -0.021
   20WAT     OW   58   3.706   3.026   3.917
   20WAT    HW1   59   3.759   2.970   3.981
   20WAT    HW2   60   3.623   3.058   3.963
   21WAT     OW   61   3.601   6.125   1.438
   21WAT    HW1   62   3.567   6.187   1.367
   21WAT    HW2   63   3.602   6.032   1.403
   22WAT     OW   64   3.646   4.403   1.554
   22WAT    HW1   65   3.677   4.497   1.542
   22WAT    HW2   66   3.599   4.372   1.471
   23WAT     OW   67   0.083   3.495   1.183
   23WAT    HW1   68   0.119   3.513   1.275
   23WAT    HW2   69   0.006   3.556   1.164
   24WAT     OW   70   3.395   5.682   0.870
   24WAT    HW1   71   3.312   5.715   0.826
   24WAT    HW2   72   3.387   5.583   0.886
   25WAT     OW   73   1.596   2.826   3.013
   25WAT    HW1   74   1.657   2.782   2.947
   25WAT    HW2   75   1.615   2.924   3.016
   26WAT     OW   76   4.713   5.310   0.699
   26WAT    HW1   77   4.668   5.398   0.693
   26WAT    HW2   78   4.685   5.263   0.783
   27WAT     OW   79   3.995   1.179   1.552
   27WAT    HW1   80   3.971   1.083   1.566
   27WAT    HW2   81   4.083   1.198   1.596
   28WAT     OW   82   3.252   1.576   5.431
   28WAT    HW1   83   3.155   1.578   5.406
   28WAT    HW2   84   3.281   1.667   5.457
   29WAT     OW   85   6.151   1.292   1.814
   29WAT    HW1   86   6.173   1.231   1.738
   29WAT    HW2   87   6.192   1.382   1.798
   30WAT     OW   88   2.295   5.736   2.970
   30WAT    HW1   89   2.264   5.831   2.959
   30WAT    HW2   90   2.300   5.714   3.068
   31WAT     OW   91   6.546   2.504   5.552
   31WAT    HW1   92   6.502   2.585   5.590
   31WAT    HW2   93   6.621   2.532   5.492
   32WAT     OW   94   6.327   5.211   5.742
   32WAT    HW1   95   6.321   5.158   5.657
   32WAT    HW2   96   6.247   5.192   5.799
   33WAT     OW   97   5.359   4.672   2.159
   33WAT    HW1   98   5.388   4.690   2.065
   33WAT    HW2   99   5.289   4.600   2.159
   34WAT     OW  100   3.977   3.950   0.029
   34WAT    HW1  101   3.935   3.893   0.100
   34WAT    HW2  102   3.997   4.041   0.067
   35WAT     OW  103   6.431   1.801   5.938
   35WAT    HW1  104   6.372   1.866   5.890
   35WAT    HW2  105   6.408   1.708   5.910
   36WAT     OW  106   2.419   4.836   4.266
   36WAT    HW1  107   2.336   4.786   4.291
   36WAT    HW2  108   2.478   4.776   4.212
   37WAT     OW  109   3.375   1.550   1.148
   37WAT    HW1  110   3.453   1.527   1.090
   37WAT    HW2  111   3.404   1.615   1.218
   38WAT     OW  112   5.229   4.260   0.384
   38WAT    HW1  113   5.239   4.340   0.443
   38WAT    HW2  114   5.188   4.288   0.298
   39WAT     OW  115   1.267   3.178   0.412
   39WAT    HW1  116   1.169   3.177   0.397
   39WAT    HW2  117   1.296   3.269   0.441
   40WAT     OW  118   0.105   6.176   5.599
   40WAT    HW1  119   0.151   6.093   5.629
   40WAT    HW2  120   0.013   6.154   5.568
   41WAT     OW  121   3.659   5.731   5.688
   41WAT    HW1  122   3.716   5.764   5.763
   41WAT    HW2  123   3.688   5.639   5.662
   42WAT     OW  124   5.898   4.881   4.207
   42WAT    HW1  125   5.881   4.873   4.109
   42WAT    HW2  126   5.812   4.905   4.253
   43WAT     OW  127   4.119   0.607   2.266
   43WAT    HW1  128   4.106   0.688   2.209
   43WAT    HW2  129   4.213   0.574   2.257
   44WAT     OW  130   2.888   0.084   3.756
   44WAT    HW1  131   2.817   0.049   3.696
   44WAT    HW2  132   2.917   0.011   3.819
   45WAT     OW  133   1.593   2.450   0.172
   45WAT    HW1  134   1.631   2.357   0.174
   45WAT    HW2  135   1.498   2.446   0.140
   46WAT     OW  136   4.320   4.913   0.332
   46WAT    HW1  137   4.404   4.899   0.279
   46WAT    HW2  138   4.249   4.850   0.299
   47WAT     OW  139   5.825   5.104   3.079
   47WAT    HW1  140   5.810   5.192   3.124
   47WAT    HW2  141   5.767   5.034   3.121
   48WAT     OW  142   1.475   6.200   1.297
   48WAT    HW1  143   1.477   6.186   1.396
   48WAT    HW2  144   1.425   6.285   1.277
   49WAT     OW  145   3.095   6.448   2.106
   49WAT    HW1  146   3.154   6.396   2.167
   49WAT    HW2  147   3.145   6.469   2.022
   50WAT     OW  148   5.243   5.084   1.265
   50WAT    HW1  149   5.322   5.074   1.325
   50WAT    HW2  150   5.211   4.994   1.236
   51WAT     OW  151   3.590   1.964   3.160
   51WAT    HW1  152   3.527   1.932   3.090
   51WAT    HW2  153   3.573   1.915   3.246
   52WAT     OW  154   2.283   5.780   2.182
   52WAT    HW1  155   2.353   5.795   2.252
   52WAT    HW2  156   2.267   5.682   2.171
   53WAT     OW  157   2.379   0.069   6.177
   53WAT    HW1  158   2.473   0.041   6.199
   53WAT    HW2  159   2.376   0.100   6.082
   54WAT     OW  160   3.340   4.792   2.733
   54WAT    HW1  161   3.260   4.745   2.769
   54WAT    HW2  162   3.356   4.764   2.638
   55WAT     OW  163   5.795   0.585   1.704
   55WAT    HW1  164   5.788   0.539   1.792
   55WAT    HW2  165   5.868   0.542   1.650
   56WAT     OW  166   3.216   4.262   3.569
   56WAT    HW1  167   3.257   4.199   3.634
   56WAT    HW2  168   3.279   4.278   3.493
   57WAT     OW  169   4.760   5.945   2.469
   57WAT    HW1  170   4.833   5.888   2.505
   57WAT    HW2  171   4.793   6.039   2.457
   58WAT     OW  172   1.264   1.080   5.214
   58WAT    HW1  173   1.177   1.117   5.247
   58WAT    HW2  174   1.331   1.155   5.206
   59WAT     OW  175   1.673   3.090   2.998
   59WAT    HW1  176   1.709   3.105   3.090
   59WAT    HW2  177   1.744   3.112   2.931
   60WAT     OW  178   2.201   6.653   4.377
   60WAT    HW1  179   2.215   6.743   4.337
   60WAT    HW2  180   2.118   6.653   4.432
   61WAT     OW  181   5.533   6.574   3.909
   61WAT    HW1  182   5.528   6.523   3.995
   61WAT    HW2  183   5.618   6.625   3.905
   62WAT     OW  184   3.665   2.636   2.610
   62WAT    HW1  185   3.577   2.677   2.586
   62WAT    HW2  186   3.734   2.708   2.616
   63WAT     OW  187   0.551   3.760   1.311
   63WAT    HW1  188   0.513   3.789   1.399
   63WAT    HW2  189   0.510   3.672   1.285
   64WAT     OW  190   1.770   3.009   1.357
   64WAT    HW1  191   1.795   3.101   1.386
   64WAT    HW2  192   1.738   3.012   1.262
   65WAT     OW  193   6.529   6.325   2.713
   65WAT    HW1  194   6.492   6.264   2.643
   65WAT    HW2  195   6.619   6.359   2.684
   66WAT     OW  196   4.601   0.924   2.957
   66WAT    HW1  197   4.640   0.995   2.898
   66WAT    HW2  198   4.581   0.964   3.047
   67WAT     OW  199   5.674   3.213   5.431
   67WAT    HW1  200   5.701   3.157   5.510
   67WAT    HW2  201   5.574   3.213   5.424
   68WAT     OW  202   2.002   6.594   5.821
   68WAT    HW1  203   2.053   6.567   5.739
   68WAT    HW2  204   1.909   6.620   5.795
   69WAT     OW  205   1.348   1.565   5.917
   69WAT    HW1  206   1.379   1.471   5.903
   69WAT    HW2  207   1.352   1.614   5.830
   70WAT     OW  208   5.870   0.536   2.569
   70WAT    HW1  209   5.892   0.569   2.477
   70WAT    HW2  210   5.880   0.611   2.635
   71WAT     OW  211   1.240   6.237   2.629
   71WAT    HW1  212   1.296   6.305   2.581
   71WAT    HW2  213   1.288   6.207   2.712
   72WAT     OW  214   6.394   6.629   5.732
   72WAT    HW1  215   6.467   6.624   5.800
   72WAT    HW2  216   6.348   6.717   5.740
   73WAT     OW  217   0.581   1.769   2.724
   73WAT    HW1  218   0.486   1.788   2.700
   73WAT    HW2  219   0.586   1.687   2.781
   74WAT     OW  220   0.190   4.716   2.457
   74WAT    HW1  221   0.282   4.682   2.436
   74WAT    HW2  222   0.128   4.692   2.382
   75WAT     OW  223   4.756   4.755   2.615
   75WAT    HW1  224   4.717   4.670   2.650
   75WAT    HW2  225   4.783   4.742   2.520
   76WAT     OW  226   4.745   1.339   1.635
   76WAT    HW1  227   4.694   1.390   1.704
   76WAT    HW2  228   4.747   1.391   1.550
   77WAT     OW  229   2.605   1.691   3.654
   77WAT    HW1  230   2.589   1.712   3.558
   77WAT    HW2  231   2.671   1.616   3.662
   78WAT     OW  232   4.854   4.957   4.484
   78WAT    HW1  233   4.900   4.877   4.523
   78WAT    HW2  234   4.920   5.011   4.431
   79WAT     OW  235   5.402   0.412   6.510
   79WAT    HW1  236   5.349   0.415   6.595
   79WAT    HW2  237   5.462   0.332   6.511
   80WAT     OW  238   5.059   4.145   5.001
   80WAT    HW1  239   4.993   4.192   5.059
   80WAT    HW2  240   5.127   4.099   5.058
   81WAT     OW  241   0.571   3.090   4.193
   81WAT    HW1  242   0.635   3.140   4.135
   81WAT    HW2  243   0.558   3.139   4.279
   82WAT     OW  244   5.983   1.960   5.091
   82WAT    HW1  245   6.063   1.919   5.134
   82WAT    HW2  246   5.947   1.898   5.022
   83WAT     OW  247   2.798   5.607   6.552
   83WAT    HW1  248   2.794   5.677   6.624
   83WAT    HW2  249   2.777   5.649   6.464
   84WAT     OW  250   6.172   6.129   0.382
   84WAT    HW1  251   6.196   6.159   0.475
   84WAT    HW2  252   6.089   6.176   0.352
   85WAT     OW  253   6.263   5.165   2.596
   85WAT    HW1  254   6.334   5.119   2.542
   85WAT    HW2  255   6.251   5.117   2.683
   86WAT     OW  256   5.111   4.640   6.632
   86WAT    HW1  257   5.086   4.585   6.712
   86WAT    HW2  258   5.149   4.728   6.663
   87WAT     OW  259   3.983   3.094   3.252
   87WAT    HW1  260   4.030   3.019   3.299
   87WAT    HW2  261   3.888   3.098   3.282
   88WAT     OW  262   4.114   5.960   3.310
   88WAT    HW1  263   4.132   6.002   3.399
   88WAT    HW2  264   4.019   5.928   3.307
   89WAT     OW  265   4.029   6.085   4.731
   89WAT    HW1  266   4.019   6.011   4.665
   89WAT    HW2  267   3.968   6.068   4.809
   90WAT     OW  268   0.754   4.191   2.359
   90WAT    HW1  269   0.813   4.150   2.289
   90WAT    HW2  270   0.810   4.214   2.439
   91WAT     OW  271   0.855   2.749   3.296
   91WAT    HW1  272   0.924   2.754   3.223
   91WAT    HW2  273   0.885   2.805   3.373
   92WAT     OW  274   3.827   0.812   6.206
   92WAT    HW1  275   3.895   0.814   6.280
   92WAT    HW2  276   3.748   0.866   6.232
   93WAT     OW  277   0.264   6.525   1.470
   93WAT    HW1  278   0.352   6.525   1.424
   93WAT    HW2  279   0.217   6.612   1.455
   94WAT     OW  280   6.126   5.306   2.014
   94WAT    HW1  281   6.106   5.398   2.049
   94WAT    HW2  282   6.059   5.241   2.050
   95WAT     OW  283   0.784   3.697   3.324
   95WAT    HW1  284   0.707   3.674   3.264
   95WAT    HW2  285   0.763   3.781   3.374
   96WAT     OW  286   0.815   3.815   1.376
   96WAT    HW1  287   0.715   3.814   1.374
   96WAT    HW2  288   0.851   3.729   1.341
   97WAT     OW  289   2.960   0.152   6.313
   97WAT    HW1  290   3.019   0.125   6.389
   97WAT    HW2  291   2.868   0.172   6.347
   98WAT     OW  292   5.043   2.103   4.179
   98WAT    HW1  293   4.970   2.079   4.243
   98WAT    HW2  294   5.092   2.020   4.151
   99WAT     OW  295   0.920   6.591   0.029
   99WAT    HW1  296   0.882   6.633   0.112
   99WAT    HW2  297   0.903   6.492   0.032
  100WAT     OW  298   2.499   3.635   3.495
  100WAT    HW1  299   2.478   3.697   3.571
  100WAT    HW2  300   2.558   3.561   3.528
  101WAT     OW  301   3.986   5.622   4.480
  101WAT    HW1  302   4.001   5.567   4.397
  101WAT    HW2  303   4.019   5.571   4.560
  102WAT     OW  304   0.063   0.249   1.871
  102WAT    HW1  305   0.111   0.234   1.785
  102WAT    HW2  306   0.023   0.162   1.903
  103WAT     OW  307   3.035   3.117   2.767
  103WAT    HW1  308   3.133   3.138   2.778
  103WAT    HW2  309   2.993   3.183   2.705
  104WAT     OW  310   5.310   0.233   5.529
  104WAT    HW1  311   5.358   0.200   5.448
  104WAT    HW2  312   5.321   0.168   5.604
  105WAT     OW  313   1.103   2.210   0.786
  105WAT    HW1  314   1.018   2.158   0.773
  105WAT    HW2  315   1.170   2.152   0.831
  106WAT     OW  316   2.482   4.358   2.168
  106WAT    HW1  317   2.400   4.411   2.190
  106WAT    HW2  318   2.458   4.261   2.164
  107WAT     OW  319   6.496   1.389   4.437
  107WAT    HW1  320   6.476   1.368   4.532
  107WAT    HW2  321   6.418   1.437   4.396
  108WAT     OW  322   6.259   2.391   6.132
  108WAT    HW1  323   6.267   2.409   6.034
  108WAT    HW2  324   6.170   2.350   6.151
  109WAT     OW  325   2.219   6.483   4.161
  109WAT    HW1  326   2.195   6.540   4.240
  109WAT    HW2  327   2.315   6.456   4.167
  110WAT     OW  328   1.263   6.530   4.575
  110WAT    HW1  329   1.233   6.437   4.599
  110WAT    HW2  330   1.187   6.593   4.586
  111WAT     OW  331   2.370   6.000   6.040
  111WAT    HW1  332   2.363   5.962   5.948
  111WAT    HW2  333   2.279   6.019   6.076
  112WAT     OW  334   1.382   4.825   4.069
  112WAT    HW1  335   1.290   4.814   4.108
  112WAT    HW2  336   1.450   4.785   4.130
  113WAT     OW  337   2.195   1.489   3.494
  113WAT    HW1  338   2.149   1.445   3.417
  113WAT    HW2  339   2.200   1.588   3.478
  114WAT     OW  340   5.852   2.029   3.142
  114WAT    HW1  341   5.886   2.074   3.225
  114WAT    HW2  342   5.828   1.934   3.163
  115WAT     OW  343   1.420   2.970   3.865
  115WAT    HW1  344   1.332   3.017   3.862
  115WAT    HW2  345   1.425   2.905   3.789
  116WAT     OW  346   5.865   5.892   6.339
  116WAT    HW1  347   5.943   5.955   6.346
  116WAT    HW2  348   5.893   5.810   6.289
  117WAT     OW  349   0.433   0.063   5.193
  117WAT    HW1  350   0.414   0.100   5.284
  117WAT    HW2  351   0.401  -0.031   5.188
  118WAT     OW  352   0.412   1.332   6.144
  118WAT    HW1  353   0.388   1.251   6.197
  118WAT    HW2  354   0.399   1.414   6.201
  119WAT     OW  355   5.711   3.657   4.508
  119WAT    HW1  356   5.738   3.731   4.446
  119WAT    HW2  357   5.628   3.614   4.475
  120WAT     OW  358   0.884   1.401   4.933
  120WAT    HW1  359   0.810   1.413   4.999
  120WAT    HW2  360   0.871   1.465   4.857
  121WAT     OW  361   1.179   6.202   6.361
  121WAT    HW1  362   1.148   6.107   6.358
  121WAT    HW2  363   1.269   6.208   6.317
  122WAT     OW  364   2.109   1.132   4.803
  122WAT    HW1  365   2.204   1.126   4.774
  122WAT    HW2  366   2.105   1.176   4.893
  123WAT     OW  367   1.143   4.110   4.840
  123WAT    HW1  368   1.233   4.095   4.801
  123WAT    HW2  369   1.152   4.152   4.930
  124WAT     OW  370   4.456   6.529   1.219
  124WAT    HW1  371   4.548   6.529   1.180
  124WAT    HW2  372   4.455   6.476   1.304
  125WAT     OW  373   3.844   4.217   1.570
  125WAT    HW1  374   3.928   4.260   1.539
  125WAT    HW2  375   3.768   4.282   1.563
  126WAT     OW  376   3.453   6.596   6.494
  126WAT    HW1  377   3.445   6.674   6.431
  126WAT    HW2  378   3.468   6.631   6.586
  127WAT     OW  379   5.087   1.580   6.300
  127WAT    HW1  380   5.171   1.632   6.286
  127WAT    HW2  381   5.105   1.501   6.359
  128WAT     OW  382   0.649   3.599   0.669
  128WAT    HW1  383   0.618   3.691   0.692
  128WAT    HW2  384   0.708   3.603   0.589
  129WAT     OW  385   5.788   0.543   0.737
  129WAT    HW1  386   5.757   0.466   0.681
  129WAT    HW2  387   5.775   0.629   0.686
  130WAT     OW  388   0.099   6.145   4.373
  130WAT    HW1  389   0.049   6.225   4.341
  130WAT    HW2  390   0.041   6.090   4.432
  131WAT     OW  391   5.246   1.387   1.742
  131WAT    HW1  392   5.161   1.360   1.697
  131WAT    HW2  393   5.303   1.306   1.758
  132WAT     OW  394   3.800   6.085   5.968
  132WAT    HW1  395   3.897   6.106   5.978
  132WAT    HW2  396   3.759   6.146   5.900
  133WAT     OW  397   6.577   5.621   0.139
  133WAT    HW1  398   6.618   5.533   0.163
  133WAT    HW2  399   6.525   5.656   0.217
  134WAT     OW  400   1.924   5.987   1.225
  134WAT    HW1  401   1.927   5.893   1.191
  134WAT    HW2  402   1.841   6.031   1.191
  135WAT     OW  403   6.487   4.872   6.565
  135WAT    HW1  404   6.521   4.945   6.625
  135WAT    HW2  405   6.387   4.880   6.558
  136WAT     OW  406   4.186   5.318   0.677
  136WAT    HW1  407   4.190   5.224   0.709
  136WAT    HW2  408   4.198   5.381   0.754
  137WAT     OW  409   0.937   5.483   5.810
  137WAT    HW1  410   0.862   5.549   5.810
  137WAT    HW2  411   1.006   5.511   5.743
  138WAT     OW  412   0.792   0.833   2.323
  138WAT    HW1  413   0.734   0.775   2.265
  138WAT    HW2  414   0.826   0.910   2.269
  139WAT     OW  415   1.400   4.351   0.890
  139WAT    HW1  416   1.432   4.406   0.812
  139WAT    HW2  417   1.317   4.301   0.864
  140WAT     OW  418   1.333   3.620   1.864
  140WAT    HW1  419   1.343   3.525   1.892
  140WAT    HW2  420   1.305   3.675   1.942
  141WAT     OW  421   1.481   1.584   6.669
  141WAT    HW1  422   1.398   1.586   6.613
  141WAT    HW2  423   1.509   1.489   6.686
  142WAT     OW  424   1.780   5.053   4.178
  142WAT    HW1  425   1.802   4.997   4.098
  142WAT    HW2  426   1.785   4.997   4.261
  143WAT     OW  427   5.206   1.219   3.936
  143WAT    HW1  428   5.227   1.130   3.895
  143WAT    HW2  429   5.115   1.249   3.905
  144WAT     OW  430   4.359   0.281   4.310
  144WAT    HW1  431   4.389   0.228   4.231
  144WAT    HW2  432   4.377   0.378   4.294
  145WAT     OW  433   5.061   2.970   0.367
  145WAT    HW1  434   5.060   2.905   0.292
  145WAT    HW2  435   5.019   3.056   0.338
  146WAT     OW  436   4.957   6.569   5.848
  146WAT    HW1  437   5.008   6.512   5.913
  146WAT    HW2  438   4.977   6.665   5.866
  147WAT     OW  439   3.839   3.032   0.162
  147WAT    HW1  440   3.865   3.023   0.258
  147WAT    HW2  441   3.795   2.948   0.131
  148WAT     OW  442   6.224   5.673   6.346
  148WAT    HW1  443   6.286   5.751   6.349
  148WAT    HW2  444   6.217   5.632   6.436
  149WAT     OW  445   6.135   3.845   0.967
  149WAT    HW1  446   6.203   3.826   1.037
  149WAT    HW2  447   6.046   3.809   0.996
  150WAT     OW  448   0.865   4.279   1.939
  150WAT    HW1  449   0.865   4.320   1.848
  150WAT    HW2  450   0.894   4.348   2.006
  151WAT     OW  451   5.558   3.668   6.080
  151WAT    HW1  452   5.492   3.674   6.005
  151WAT    HW2  453   5.556   3.753   6.132
  152WAT     OW  454   6.599   0.599   0.410
  152WAT    HW1  455   6.542   0.533   0.459
  152WAT    HW2  456   6.542   0.676   0.380
  153WAT     OW  457   3.860   1.830   3.188
  153WAT    HW1  458   3.779   1.885   3.169
  153WAT    HW2  459   3.935   1.890   3.216
  154WAT     OW  460   0.348   5.980   0.793
  154WAT    HW1  461   0.268   6.020   0.748
  154WAT    HW2  462   0.406   6.053   0.829
  155WAT     OW  463   0.133   5.664   3.547
  155WAT    HW1  464   0.036   5.638   3.542
  155WAT    HW2  465   0.146   5.727   3.624
  156WAT     OW  466   2.862   2.096   0.997
  156WAT    HW1  467   2.828   2.003   1.014
  156WAT    HW2  468   2.933   2.093   0.927
  157WAT     OW  469   4.012   2.045   3.000
  157WAT    HW1  470   4.033   2.039   3.098
  157WAT    HW2  471   3.920   2.082   2.988
  158WAT     OW  472   4.861   4.830   5.947
  158WAT    HW1  473   4.764   4.828   5.923
  158WAT    HW2  474   4.892   4.738   5.967
  159WAT     OW  475   3.986   5.244   0.947
  159WAT    HW1  476   3.902   5.273   0.902
  159WAT    HW2  477   3.990   5.286   1.038
  160WAT     OW  478   2.651   4.104   5.508
  160WAT    HW1  479   2.653   4.193   5.463
  160WAT    HW2  480   2.709   4.106   5.590
  161WAT     OW  481   2.649   1.145   4.458
  161WAT    HW1  482   2.574   1.081   4.475
  161WAT    HW2  483   2.629   1.197   4.374
  162WAT     OW  484   2.017   0.605   2.666
  162WAT    HW1  485   2.051   0.621   2.759
  162WAT    HW2  486   1.932   0.553   2.671
  163WAT     OW  487   0.208   2.250   5.112
  163WAT    HW1  488   0.291   2.197   5.134
  163WAT    HW2  489   0.141   2.189   5.068
  164WAT     OW  490   0.142   2.659   2.628
  164WAT    HW1  491   0.115   2.603   2.550
  164WAT    HW2  492   0.062   2.703   2.667
  165WAT     OW  493   5.015   0.925   3.679
  165WAT    HW1  494   4.978   0.833   3.693
  165WAT    HW2  495   4.939   0.989   3.665
  166WAT     OW  496   1.039   5.002   0.798
  166WAT    HW1  497   1.098   4.957   0.730
  166WAT    HW2  498   1.094   5.031   0.876
  167WAT     OW  499   1.446   6.005   0.612
  167WAT    HW1  500   1.359   6.042   0.646
  167WAT    HW2  501   1.441   5.993   0.513
  168WAT     OW  502   5.832   4.674   1.750
  168WAT    HW1  503   5.784   4.586   1.750
  168WAT    HW2  504   5.768   4.747   1.731
  169WAT     OW  505   6.683   6.433   3.390
  169WAT    HW1  506   6.758   6.471   3.336
  169WAT    HW2  507   6.720   6.385   3.469
  170WAT     OW  508   1.526   5.143   5.437
  170WAT    HW1  509   1.453   5.076   5.445
  170WAT    HW2  510   1.499   5.215   5.372
  171WAT     OW  511   2.546   3.685   5.404
  171WAT    HW1  512   2.446   3.679   5.409
  171WAT    HW2  513   2.580   3.614   5.342
  172WAT     OW  514   6.109   0.253   3.651
  172WAT    HW1  515   6.177   0.308   3.602
  172WAT    HW2  516   6.097   0.166   3.603
  173WAT     OW  517   3.247   6.510   5.582
  173WAT    HW1  518   3.321   6.460   5.538
  173WAT    HW2  519   3.182   6.445   5.623
  174WAT     OW  520   5.851   5.834   3.745
  174WAT    HW1  521   5.874   5.930   3.763
  174WAT    HW2  522   5.926   5.791   3.695
  175WAT     OW  523   1.124   2.640   5.972
  175WAT    HW1  524   1.026   2.657   5.981
  175WAT    HW2  525   1.174   2.724   5.993
  176WAT     OW  526   3.552   0.310   2.631
  176WAT    HW1  527   3.551   0.281   2.727
  176WAT    HW2  528   3.519   0.236   2.573
  177WAT     OW  529   2.664   6.452   2.073
  177WAT    HW1  530   2.706   6.497   1.993
  177WAT    HW2  531   2.717   6.371   2.097
  178WAT     OW  532   5.813   1.849   0.735
  178WAT    HW1  533   5.859   1.778   0.788
  178WAT    HW2  534   5.755   1.807   0.665
  179WAT     OW  535   1.923   6.610   0.056
  179WAT    HW1  536   1.842   6.580   0.006
  179WAT    HW2  537   1.987   6.535   0.064
  180WAT     OW  538   0.744   3.443   6.228
  180WAT    HW1  539   0.821   3.418   6.287
  180WAT    HW2  540   0.776   3.504   6.156
  181WAT     OW  541   2.015   0.205   5.994
  181WAT    HW1  542   2.079   0.278   6.017
  181WAT    HW2  543   2.048   0.119   6.033
  182WAT     OW  544   0.312   5.898   5.939
  182WAT    HW1  545   0.277   5.920   5.848
  182WAT    HW2  546   0.308   5.980   5.996
  183WAT     OW  547   2.519   1.680   1.808
  183WAT    HW1  548   2.477   1.615   1.870
  183WAT    HW2  549   2.525   1.770   1.852
  184WAT     OW  550   6.285   1.820   6.165
  184WAT    HW1  551   6.346   1.796   6.090
  184WAT    HW2  552   6.259   1.916   6.158
  185WAT     OW  553   5.339   0.074   5.083
  185WAT    HW1  554   5.260   0.135   5.074
  185WAT    HW2  555   5.373   0.050   4.993
  186WAT     OW  556   6.556   6.580   3.952
  186WAT    HW1  557   6.561   6.559   3.854
  186WAT    HW2  558   6.636   6.541   3.998
  187WAT     OW  559   0.827   2.017   2.404
  187WAT    HW1  560   0.824   1.928   2.451
  187WAT    HW2  561   0.904   2.018   2.340
  188WAT     OW  562   6.359   5.875   5.897
  188WAT    HW1  563   6.361   5.915   5.805
  188WAT    HW2  564   6.313   5.786   5.893
  189WAT     OW  565   4.883   3.515   3.640
  189WAT    HW1  566   4.879   3.607   3.602
  189WAT    HW2  567   4.853   3.518   3.736
  190WAT     OW  568   2.846   3.746   6.038
  190WAT    HW1  569   2.913   3.704   5.976
  190WAT    HW2  570   2.894   3.788   6.115
  191WAT     OW  571   1.908   0.074   5.295
  191WAT    HW1  572   1.890   0.077   5.394
  191WAT    HW2  573   1.823   0.092   5.246
  192WAT     OW  574   2.685   6.377   4.938
  192WAT    HW1  575   2.624   6.404   4.863
  192WAT    HW2  576   2.779   6.402   4.916
  193WAT     OW  577   1.866   3.466   3.758
  193WAT    HW1  578   1.783   3.510   3.792
  193WAT    HW2  579   1.924   3.441   3.836
  194WAT     OW  580   5.865   0.792   2.961
  194WAT    HW1  581   5.802   0.716   2.945
  194WAT    HW2  582   5.911   0.779   3.049
  195WAT     OW  583   0.413   2.390   6.589
  195WAT    HW1  584   0.345   2.463   6.593
  195WAT    HW2  585   0.499   2.422   6.628
  196WAT     OW  586   3.666   5.705   6.596
  196WAT    HW1  587   3.582   5.677   6.642
  196WAT    HW2  588   3.734   5.633   6.605
  197WAT     OW  589   2.527   5.736   4.095
  197WAT    HW1  590   2.489   5.829   4.095
  197WAT    HW2  591   2.575   5.720   4.008
  198WAT     OW  592   5.566   4.192   4.603
  198WAT    HW1  593   5.615   4.214   4.518
  198WAT    HW2  594   5.621   4.220   4.681
  199WAT     OW  595   0.533   3.473   3.092
  199WAT    HW1  596   0.492   3.564   3.098
  199WAT    HW2  597   0.622   3.479   3.046
  200WAT     OW  598   3.183   2.185   0.277
  200WAT    HW1  599   3.113   2.114   0.273
  200WAT    HW2  600   3.163   2.257   0.210
  201WAT     OW  601   0.434   6.418   3.448
  201WAT    HW1  602   0.498   6.343   3.461
  201WAT    HW2  603   0.389   6.440   3.535
  202WAT     OW  604   5.947   4.599   2.104
  202WAT    HW1  605   5.956   4.521   2.043
  202WAT    HW2  606   5.970   4.683   2.055
  203WAT     OW  607   4.251   1.851   5.920
  203WAT    HW1  608   4.232   1.794   5.841
  203WAT    HW2  609   4.228   1.946   5.899
  204WAT     OW  610   4.522   1.163   5.572
  204WAT    HW1  611   4.490   1.069   5.580
  204WAT    HW2  612   4.511   1.194   5.477
  205WAT     OW  613   2.363   5.830   4.533
  205WAT    HW1  614   2.353   5.823   4.434
  205WAT    HW2  615   2.293   5.891   4.570
  206WAT     OW  616   5.755   2.188   4.281
  206WAT    HW1  617   5.727   2.281   4.260
  206WAT    HW2  618   5.854   2.178   4.265
  207WAT     OW  619   1.532   0.019   4.285
  207WAT    HW1  620   1.630   0.008   4.298
  207WAT    HW2  621   1.486  -0.068   4.306
  208WAT     OW  622   1.144   3.092   3.394
  208WAT    HW1  623   1.081   3.024   3.432
  208WAT    HW2  624   1.215   3.045   3.342
  209WAT     OW  625   5.408   3.523   6.498
  209WAT    HW1  626   5.444   3.495   6.410
  209WAT    HW2  627   5.480   3.565   6.553
  210WAT     OW  628   5.287   4.377   4.338
  210WAT    HW1  629   5.328   4.382   4.247
  210WAT    HW2  630   5.355   4.346   4.404
  211WAT     OW  631   2.958   4.789   0.224
  211WAT    HW1  632   2.862   4.810   0.239
  211WAT    HW2  633   2.980   4.800   0.127
  212WAT     OW  634   2.264   3.652   5.395
  212WAT    HW1  635   2.208   3.664   5.477
  212WAT    HW2  636   2.280   3.555   5.379
  213WAT     OW  637   5.137   1.008   3.450
  213WAT    HW1  638   5.088   0.984   3.534
  213WAT    HW2  639   5.195   1.088   3.466
  214WAT     OW  640   5.237   4.488   2.951
  214WAT    HW1  641   5.160   4.499   2.888
  214WAT    HW2  642   5.216   4.534   3.037
  215WAT     OW  643   1.759   6.134   5.954
  215WAT    HW1  644   1.694   6.173   5.889
  215WAT    HW2  645   1.795   6.207   6.012
  216WAT     OW  646   4.753   5.897   5.856
  216WAT    HW1  647   4.739   5.995   5.866
  216WAT    HW2  648   4.754   5.873   5.759
  217WAT     OW  649   0.376   2.541   0.666
  217WAT    HW1  650   0.418   2.630   0.687
  217WAT    HW2  651   0.339   2.501   0.750
  218WAT     OW  652   4.241   2.273   0.416
  218WAT    HW1  653   4.225   2.308   0.509
  218WAT    HW2  654   4.305   2.197   0.420
  219WAT     OW  655   4.781   4.421   0.780
  219WAT    HW1  656   4.787   4.409   0.879
  219WAT    HW2  657   4.694   4.384   0.748
  220WAT     OW  658   0.526   2.803   4.226
  220WAT    HW1  659   0.605   2.753   4.261
  220WAT    HW2  660   0.554   2.895   4.198
  221WAT     OW  661   1.942   1.657   4.536
  221WAT    HW1  662   1.929   1.573   4.483
  221WAT    HW2  663   1.854   1.706   4.543
  222WAT     OW  664   3.126   3.733   1.208
  222WAT    HW1  665   3.182   3.816   1.202
  222WAT    HW2  666   3.163   3.673   1.278
  223WAT     OW  667   4.471   1.957   2.580
  223WAT    HW1  668   4.529   1.970   2.660
  223WAT    HW2  669   4.380   1.996   2.598
  224WAT     OW  670   0.186   4.643   5.646
  224WAT    HW1  671   0.109   4.632   5.582
  224WAT    HW2  672   0.160   4.707   5.718
  225WAT     OW  673   0.836   5.360   6.392
  225WAT    HW1  674   0.804   5.358   6.297
  225WAT    HW2  675   0.760   5.342   6.454
  226WAT     OW  676   2.960   4.312   4.557
  226WAT    HW1  677   2.958   4.373   4.478
  226WAT    HW2  678   2.926   4.361   4.637
  227WAT     OW  679   3.742   5.242   3.530
  227WAT    HW1  680   3.827   5.262   3.578
  227WAT    HW2  681   3.738   5.296   3.445
  228WAT     OW  682   4.679   4.462   5.675
  228WAT    HW1  683   4.707   4.409   5.595
  228WAT    HW2  684   4.579   4.463   5.682
  229WAT     OW  685   2.438   1.296   0.909
  229WAT    HW1  686   2.480   1.276   0.820
  229WAT    HW2  687   2.353   1.347   0.896
  230WAT     OW  688   0.952   2.048   4.934
  230WAT    HW1  689   1.014   2.126   4.937
  230WAT    HW2  690   0.880   2.065   4.867
  231WAT     OW  691   0.003   4.245   0.372
  231WAT    HW1  692   0.063   4.179   0.417
  231WAT    HW2  693  -0.077   4.261   0.428
  232WAT     OW  694   1.393   4.409   6.091
  232WAT    HW1  695   1.330   4.419   6.015
  232WAT    HW2  696   1.481   4.377   6.058
  233WAT     OW  697   4.523   4.234   6.469
  233WAT    HW1  698   4.572   4.256   6.553
  233WAT    HW2  699   4.526   4.312   6.407
  234WAT     OW  700   5.665   0.257   1.804
  234WAT    HW1  701   5.575   0.283   1.840
  234WAT    HW2  702   5.736   0.310   1.851
  235WAT     OW  703   0.135   4.650   1.965
  235WAT    HW1  704   0.093   4.652   2.056
  235WAT    HW2  705   0.130   4.557   1.928
  236WAT     OW  706   3.600   4.002   6.188
  236WAT    HW1  707   3.647   3.924   6.230
  236WAT    HW2  708   3.627   4.010   6.092
  237WAT     OW  709   1.997   0.355   3.408
  237WAT    HW1  710   1.955   0.446   3.407
  237WAT    HW2  711   1.951   0.297   3.341
  238WAT     OW  712   3.900   0.713   5.630
  238WAT    HW1  713   3.894   0.805   5.592
  238WAT    HW2  714   3.919   0.719   5.728
  239WAT     OW  715   4.813   1.084   3.605
  239WAT    HW1  716   4.758   1.050   3.529
  239WAT    HW2  717   4.810   1.184   3.607
  240WAT     OW  718   4.431   6.544   6.371
  240WAT    HW1  719   4.467   6.626   6.327
  240WAT    HW2  720   4.489   6.519   6.449
  241WAT     OW  721   2.979   5.713   2.001
  241WAT    HW1  722   2.939   5.701   1.910
  241WAT    HW2  723   2.911   5.754   2.061
  242WAT     OW  724   0.175   3.285   2.071
  242WAT    HW1  725   0.137   3.373   2.100
  242WAT    HW2  726   0.241   3.299   1.997
  243WAT     OW  727   3.517   3.397   1.177
  243WAT    HW1  728   3.495   3.344   1.259
  243WAT    HW2  729   3.507   3.494   1.197
  244WAT     OW  730   6.351   6.576   0.873
  244WAT    HW1  731   6.403   6.492   0.859
  244WAT    HW2  732   6.406   6.655   0.848
  245WAT     OW  733   0.852   4.410   1.700
  245WAT    HW1  734   0.758   4.438   1.720
  245WAT    HW2  735   0.854   4.363   1.611
  246WAT     OW  736   6.534   0.654   3.506
  246WAT    HW1  737   6.434   0.657   3.511
  246WAT    HW2  738   6.572   0.730   3.557
  247WAT     OW  739   1.780   6.204   0.271
  247WAT    HW1  740   1.806   6.209   0.174
  247WAT    HW2  741   1.861   6.190   0.327
  248WAT     OW  742   3.889   1.905   0.114
  248WAT    HW1  743   3.831   1.928   0.035
  248WAT    HW2  744   3.841   1.840   0.172
  249WAT     OW  745   5.985   5.141   2.587
  249WAT    HW1  746   5.955   5.099   2.672
  249WAT    HW2  747   6.085   5.153   2.588
  250WAT     OW  748   6.380   6.403   5.582
  250WAT    HW1  749   6.391   6.488   5.634
  250WAT    HW2  750   6.319   6.419   5.504
  251WAT     OW  751   5.698   4.620   4.648
  251WAT    HW1  752   5.758   4.578   4.717
  251WAT    HW2  753   5.710   4.573   4.561
  252WAT     OW  754   2.127   2.829   2.217
  252WAT    HW1  755   2.071   2.774   2.279
  252WAT    HW2  756   2.222   2.796   2.220
  253WAT     OW  757   3.548   5.460   6.230
  253WAT    HW1  758   3.578   5.545   6.272
  253WAT    HW2  759   3.577   5.458   6.134
  254WAT     OW  760   6.016   2.467   5.775
  254WAT    HW1  761   6.114   2.459   5.795
  254WAT    HW2  762   6.003   2.517   5.689
  255WAT     OW  763   2.857   2.263   4.673
  255WAT    HW1  764   2.807   2.242   4.757
  255WAT    HW2  765   2.797   2.313   4.610
  256WAT     OW  766   0.679   2.021   0.099
  256WAT    HW1  767   0.591   2.000   0.141
  256WAT    HW2  768   0.729   2.085   0.157
  257WAT     OW  769   6.490   0.375   2.801
  257WAT    HW1  770   6.575   0.425   2.816
  257WAT    HW2  771   6.470   0.374   2.703
  258WAT     OW  772   4.745   4.006   1.235
  258WAT    HW1  773   4.820   4.064   1.265
  258WAT    HW2  774   4.774   3.910   1.235
  259WAT     OW  775   1.239   4.046   1.452
  259WAT    HW1  776   1.276   4.022   1.362
  259WAT    HW2  777   1.170   3.980   1.479
  260WAT     OW  778   5.120   6.626   3.243
  260WAT    HW1  779   5.081   6.548   3.194
  260WAT    HW2  780   5.212   6.602   3.276
  261WAT     OW  781   5.870   6.635   2.598
  261WAT    HW1  782   5.771   6.648   2.595
  261WAT    HW2  783   5.902   6.597   2.511
  262WAT     OW  784   6.469   0.750   1.106
  262WAT    HW1  785   6.417   0.816   1.053
  262WAT    HW2  786   6.456   0.769   1.204
  263WAT     OW  787   3.138   1.591   1.549
  263WAT    HW1  788   3.076   1.595   1.627
  263WAT    HW2  789   3.199   1.513   1.558
  264WAT     OW  790   5.104   0.669   1.396
  264WAT    HW1  791   5.017   0.696   1.437
  264WAT    HW2  792   5.108   0.700   1.301
  265WAT     OW  793   6.172   5.312   4.079
  265WAT    HW1  794   6.176   5.356   3.989
  265WAT    HW2  795   6.078   5.288   4.101
  266WAT     OW  796   1.678   5.652   3.713
  266WAT    HW1  797   1.607   5.615   3.653
  266WAT    HW2  798   1.636   5.713   3.781
  267WAT     OW  799   2.473   3.841   3.306
  267WAT    HW1  800   2.424   3.908   3.363
  267WAT    HW2  801   2.494   3.761   3.361
  268WAT     OW  802   2.171   0.999   2.707
  268WAT    HW1  803   2.249   0.936   2.701
  268WAT    HW2  804   2.145   1.029   2.615
  269WAT     OW  805   2.944   3.002   0.597
  269WAT    HW1  806   3.013   2.945   0.641
  269WAT    HW2  807   2.958   3.097   0.624
  270WAT     OW  808   1.733   6.078   3.572
  270WAT    HW1  809   1.792   6.136   3.516
  270WAT    HW2  810   1.703   6.129   3.652
  271WAT     OW  811   6.434   0.691   1.622
  271WAT    HW1  812   6.374   0.612   1.636
  271WAT    HW2  813   6.394   0.771   1.667
  272WAT     OW  814   3.408   2.019   1.306
  272WAT    HW1  815   3.433   1.923   1.319
  272WAT    HW2  816   3.338   2.045   1.373
  273WAT     OW  817   0.357   5.389   5.832
  273WAT    HW1  818   0.341   5.477   5.876
  273WAT    HW2  819   0.371   5.319   5.903
  274WAT     OW  820   1.530   5.956   2.172
  274WAT    HW1  821   1.458   6.023   2.155
  274WAT    HW2  822   1.614   5.986   2.127
  275WAT     OW  823   1.544   4.047   6.667
  275WAT    HW1  824   1.606   4.026   6.590
  275WAT    HW2  825   1.490   3.966   6.689
  276WAT     OW  826   1.476   5.676   2.944
  276WAT    HW1  827   1.572   5.652   2.959
  276WAT    HW2  828   1.451   5.654   2.849
  277WAT     OW  829   2.537   2.564   5.193
  277WAT    HW1  830   2.462   2.628   5.176
  277WAT    HW2  831   2.620   2.614   5.218
  278WAT     OW  832   2.032   0.122   1.446
  278WAT    HW1  833   1.953   0.156   1.497
  278WAT    HW2  834   2.104   0.095   1.511
  279WAT     OW  835   3.944   6.259   3.850
  279WAT    HW1  836   3.933   6.320   3.771
  279WAT    HW2  837   3.854   6.231   3.883
  280WAT     OW  838   3.497   2.411   4.294
  280WAT    HW1  839   3.413   2.383   4.340
  280WAT    HW2  840   3.576   2.385   4.350
  281WAT     OW  841   2.445   2.802   0.878
  281WAT    HW1  842   2.422   2.845   0.790
  281WAT    HW2  843   2.535   2.835   0.908
  282WAT     OW  844   0.572   0.416   6.459
  282WAT    HW1  845   0.478   0.392   6.436
  282WAT    HW2  846   0.574   0.510   6.494
  283WAT     OW  847   3.626   0.990   3.271
  283WAT    HW1  848   3.557   1.019   3.337
  283WAT    HW2  849   3.586   0.988   3.179
  284WAT     OW  850   4.894   5.654   6.307
  284WAT    HW1  851   4.991   5.641   6.286
  284WAT    HW2  852   4.847   5.688   6.225
  285WAT     OW  853   1.542   5.431   5.060
  285WAT    HW1  854   1.628   5.422   5.010
  285WAT    HW2  855   1.560   5.430   5.159
  286WAT     OW  856   4.315   6.042   0.340
  286WAT    HW1  857   4.287   6.136   0.320
  286WAT    HW2  858   4.272   6.011   0.424
  287WAT     OW  859   4.323   5.252   6.018
  287WAT    HW1  860   4.225   5.234   6.019
  287WAT    HW2  861   4.358   5.240   5.925
  288WAT     OW  862   6.651   0.361   2.403
  288WAT    HW1  863   6.641   0.428   2.330
  288WAT    HW2  864   6.564   0.350   2.450
  289WAT     OW  865   4.755   3.921   5.094
  289WAT    HW1  866   4.767   3.990   5.165
  289WAT    HW2  867   4.658   3.912   5.072
  290WAT     OW  868   1.358   3.004   0.211
  290WAT    HW1  869   1.320   3.068   0.278
  290WAT    HW2  870   1.401   3.055   0.137
  291WAT     OW  871   0.413   3.254   5.621
  291WAT    HW1  872   0.445   3.179   5.679
  291WAT    HW2  873   0.314   3.263   5.631
  292WAT     OW  874   2.957   4.439   5.746
  292WAT    HW1  875   2.966   4.361   5.809
  292WAT    HW2  876   2.863   4.474   5.751
  293WAT     OW  877   6.433   4.513   4.596
  293WAT    HW1  878   6.362   4.565   4.644
  293WAT    HW2  879   6.466   4.566   4.517
  294WAT     OW  880   1.915   1.129   0.396
  294WAT    HW1  881   1.819   1.143   0.376
  294WAT    HW2  882   1.925   1.064   0.471
  295WAT     OW  883   4.175   1.456   3.731
  295WAT    HW1  884   4.184   1.360   3.757
  295WAT    HW2  885   4.266   1.498   3.728
  296WAT     OW  886   1.002   4.346   6.240
  296WAT    HW1  887   0.944   4.265   6.225
  296WAT    HW2  888   1.002   4.402   6.158
  297WAT     OW  889   5.965   4.371   5.188
  297WAT    HW1  890   5.882   4.315   5.188
  297WAT    HW2  891   5.958   4.441   5.259
  298WAT     OW  892   3.306   5.986   6.407
  298WAT    HW1  893   3.387   5.967   6.351
  298WAT    HW2  894   3.273   5.901   6.447
  299WAT     OW  895   5.261   4.016   5.130
  299WAT    HW1  896   5.325   4.074   5.181
  299WAT    HW2  897   5.234   3.938   5.187
  300WAT     OW  898   5.017   5.909   1.383
  300WAT    HW1  899   5.026   5.852   1.301
  300WAT    HW2  900   5.079   5.988   1.376
  301WAT     OW  901   4.102   2.897   3.408
  301WAT    HW1  902   4.096   2.798   3.423
  301WAT    HW2  903   4.066   2.945   3.489
  302WAT     OW  904   6.086   0.020   3.513
  302WAT    HW1  905   6.151  -0.054   3.533
  302WAT    HW2  906   6.094   0.045   3.416
  303WAT     OW  907   5.603   0.005   2.544
  303WAT    HW1  908   5.509  -0.004   2.512
  303WAT    HW2  909   5.650   0.075   2.491
  304WAT     OW  910   5.263   2.871   2.320
  304WAT    HW1  911   5.262   2.830   2.228
  304WAT    HW2  912   5.179   2.924   2.333
  305WAT     OW  913   0.120   3.211   0.361
  305WAT    HW1  914   0.179   3.221   0.441
  305WAT    HW2  915   0.054   3.137   0.378
  306WAT     OW  916   2.997   3.612   4.480
  306WAT    HW1  917   3.023   3.517   4.466
  306WAT    HW2  918   3.076   3.663   4.515
  307WAT     OW  919   6.344   2.217   2.379
  307WAT    HW1  920   6.384   2.224   2.471
  307WAT    HW2  921   6.247   2.197   2.387
  308WAT     OW  922   2.561   1.776   2.919
  308WAT    HW1  923   2.480   1.835   2.918
  308WAT    HW2  924   2.585   1.751   2.826
  309WAT     OW  925   5.573   2.591   4.868
  309WAT    HW1  926   5.484   2.546   4.860
  309WAT    HW2  927   5.564   2.688   4.844
  310WAT     OW  928   1.007   3.585   5.351
  310WAT    HW1  929   1.092   3.564   5.400
  310WAT    HW2  930   1.020   3.566   5.253
  311WAT     OW  931   0.601   3.267   0.479
  311WAT    HW1  932   0.539   3.314   0.543
  311WAT    HW2  933   0.570   3.281   0.385
  312WAT     OW  934   4.892   4.921   0.602
  312WAT    HW1  935   4.923   5.005   0.646
  312WAT    HW2  936   4.793   4.924   0.589
  313WAT     OW  937   2.009   2.664   5.391
  313WAT    HW1  938   1.985   2.699   5.300
  313WAT    HW2  939   2.104   2.687   5.411
  314WAT     OW  940   2.979   2.676   0.510
  314WAT    HW1  941   3.022   2.600   0.461
  314WAT    HW2  942   2.884   2.655   0.529
  315WAT     OW  943   0.072   5.945   1.930
  315WAT    HW1  944   0.041   5.978   1.841
  315WAT    HW2  945   0.014   5.868   1.958
  316WAT     OW  946   5.806   5.796   5.374
  316WAT    HW1  947   5.847   5.842   5.453
  316WAT    HW2  948   5.763   5.711   5.404
  317WAT     OW  949   3.342   2.089   5.457
  317WAT    HW1  950   3.296   2.117   5.373
  317WAT    HW2  951   3.407   2.161   5.484
  318WAT     OW  952   5.320   6.041   5.497
  318WAT    HW1  953   5.418   6.056   5.512
  318WAT    HW2  954   5.269   6.117   5.536
  319WAT     OW  955   3.544   2.131   6.029
  319WAT    HW1  956   3.563   2.192   5.952
  319WAT    HW2  957   3.472   2.067   6.005
  320WAT     OW  958   5.707   6.449   3.288
  320WAT    HW1  959   5.634   6.484   3.230
  320WAT    HW2  960   5.793   6.494   3.264
  321WAT     OW  961   5.936   2.704   4.887
  321WAT    HW1  962   5.941   2.676   4.983
  321WAT    HW2  963   5.895   2.631   4.832
  322WAT     OW  964   3.942   0.950   4.150
  322WAT    HW1  965   3.881   1.016   4.191
  322WAT    HW2  966   3.922   0.859   4.185
  323WAT     OW  967   1.935   4.111   2.227
  323WAT    HW1  968   1.906   4.018   2.206
  323WAT    HW2  969   1.933   4.167   2.144
  324WAT     OW  970   2.878   1.521   2.226
  324WAT    HW1  971   2.826   1.607   2.226
  324WAT    HW2  972   2.819   1.447   2.258
  325WAT     OW  973   1.086   3.219   0.118
  325WAT    HW1  974   1.046   3.225   0.210
  325WAT    HW2  975   1.047   3.142   0.069
  326WAT     OW  976   0.269   1.691   5.035
  326WAT    HW1  977   0.183   1.647   5.060
  326WAT    HW2  978   0.273   1.782   5.077
  327WAT     OW  979   2.378   6.481   2.040
  327WAT    HW1  980   2.323   6.484   2.123
  327WAT    HW2  981   2.474   6.470   2.064
  328WAT     OW  982   0.610   2.792   3.621
  328WAT    HW1  983   0.609   2.889   3.598
  328WAT    HW2  984   0.549   2.775   3.698
  329WAT     OW  985   1.425   0.556   2.428
  329WAT    HW1  986   1.509   0.577   2.477
  329WAT    HW2  987   1.440   0.478   2.367
  330WAT     OW  988   0.796   0.026   0.244
  330WAT    HW1  989   0.806   0.124   0.264
  330WAT    HW2  990   0.764  -0.022   0.326
  331WAT     OW  991   1.007   1.151   6.248
  331WAT    HW1  992   1.027   1.135   6.151
  331WAT    HW2  993   1.030   1.246   6.271
  332WAT     OW  994   4.664   0.972   3.400
  332WAT    HW1  995   4.623   1.027   3.327
  332WAT    HW2  996   4.724   0.903   3.360
  333WAT     OW  997   1.709   5.809   6.257
  333WAT    HW1  998   1.672   5.724   6.220
  333WAT    HW2  999   1.688   5.816   6.354
  334WAT     OW 1000   4.789   0.810   6.272
  334WAT    HW1 1001   4.802   0.850   6.181
  334WAT    HW2 1002   4.691   0.798   6.288
  335WAT     OW 1003   1.597   4.192   5.708
  335WAT    HW1 1004   1.686   4.151   5.727
  335WAT    HW2 1005   1.606   4.291   5.706
  336WAT     OW 1006   2.040   3.458   5.740
  336WAT    HW1 1007   1.983   3.473   5.821
  336WAT    HW2 1008   2.010   3.375   5.693
  337WAT     OW 1009   1.914   2.290   0.863
  337WAT    HW1 1010   1.867   2.368   0.823
  337WAT    HW2 1011   1.867   2.263   0.947
  338WAT     OW 1012   5.441   4.213   0.961
  338WAT    HW1 1013   5.424   4.131   1.015
  338WAT    HW2 1014   5.419   4.195   0.865
  339WAT     OW 1015   4.393   5.054   2.841
  339WAT    HW1 1016   4.448   5.127   2.881
  339WAT    HW2 1017   4.422   4.966   2.876
  340WAT     OW 1018   0.329   1.085   5.812
  340WAT    HW1 1019   0.417   1.097   5.766
  340WAT    HW2 1020   0.276   1.170   5.805
  341WAT     OW 1021   0.022   2.060   1.122
  341WAT    HW1 1022   0.111   2.044   1.079
  341WAT    HW2 1023   0.015   2.156   1.150
  342WAT     OW 1024   3.477   3.897   2.442
  342WAT    HW1 1025   3.519   3.987   2.457
  342WAT    HW2 1026   3.503   3.836   2.517
  343WAT     OW 1027   3.672   2.806   0.457
  343WAT    HW1 1028   3.632   2.826   0.547
  343WAT    HW2 1029   3.599   2.791   0.391
  344WAT     OW 1030   3.542   5.891   1.737
  344WAT    HW1 1031   3.521   5.989   1.728
  344WAT    HW2 1032   3.525   5.862   1.831
  345WAT     OW 1033   5.877   5.306   3.467
  345WAT    HW1 1034   5.809   5.326   3.538
  345WAT    HW2 1035   5.838   5.323   3.377
  346WAT     OW 1036   2.394   4.406   2.829
  346WAT    HW1 1037   2.418   4.471   2.902
  346WAT    HW2 1038   2.450   4.425   2.748
  347WAT     OW 1039   1.772   3.139   0.631
  347WAT    HW1 1040   1.691   3.130   0.688
  347WAT    HW2 1041   1.745   3.156   0.536
  348WAT     OW 1042   1.371   1.897   4.851
  348WAT    HW1 1043   1.351   1.943   4.937
  348WAT    HW2 1044   1.407   1.805   4.870
  349WAT     OW 1045   2.245   3.674   5.014
  349WAT    HW1 1046   2.321   3.611   5.029
  349WAT    HW2 1047   2.280   3.765   4.993
  350WAT     OW 1048   5.733   3.775   5.480
  350WAT    HW1 1049   5.722   3.728   5.393
  350WAT    HW2 1050   5.648   3.822   5.504
  351WAT     OW 1051   4.410   6.077   2.268
  351WAT    HW1 1052   4.336   6.138   2.239
  351WAT    HW2 1053   4.409   6.070   2.368
  352WAT     OW 1054   1.505   1.848   6.168
  352WAT    HW1 1055   1.422   1.901   6.151
  352WAT    HW2 1056   1.536   1.864   6.262
  353WAT     OW 1057   2.850   4.829   1.519
  353WAT    HW1 1058   2.890   4.771   1.590
  353WAT    HW2 1059   2.878   4.924   1.534
  354WAT     OW 1060   5.473   5.135   5.216
  354WAT    HW1 1061   5.525   5.050   5.225
  354WAT    HW2 1062   5.520   5.197   5.154
  355WAT     OW 1063   1.987   0.186   0.043
  355WAT    HW1 1064   1.911   0.234   0.001
  355WAT    HW2 1065   1.968   0.088   0.045
  356WAT     OW 1066   0.479   0.082   3.853
  356WAT    HW1 1067   0.528   0.143   3.791
  356WAT    HW2 1068   0.520  -0.010   3.848
  357WAT     OW 1069   6.456   4.607   2.168
  357WAT    HW1 1070   6.421   4.659   2.090
  357WAT    HW2 1071   6.406   4.520   2.174
  358WAT     OW 1072   1.291   2.224   3.678
  358WAT    HW1 1073   1.331   2.230   3.586
  358WAT    HW2 1074   1.345   2.279   3.741
  359WAT     OW 1075   5.067   5.524   1.575
  359WAT    HW1 1076   5.063   5.567   1.665
  359WAT    HW2 1077   5.129   5.575   1.516
  360WAT     OW 1078   2.872   5.194   4.757
  360WAT    HW1 1079   2.889   5.288   4.729
  360WAT    HW2 1080   2.869   5.188   4.857
  361WAT     OW 1081   0.930   3.716   6.574
  361WAT    HW1 1082   0.903   3.626   6.610
  361WAT    HW2 1083   0.951   3.777   6.650
  362WAT     OW 1084   4.334   3.074   6.397
  362WAT    HW1 1085   4.408   3.141   6.396
  362WAT    HW2 1086   4.369   2.986   6.364
  363WAT     OW 1087   5.000   1.874   4.467
  363WAT    HW1 1088   5.067   1.926   4.520
  363WAT    HW2 1089   5.035   1.781   4.452
  364WAT     OW 1090   6.552   0.734   4.967
  364WAT    HW1 1091   6.517   0.732   5.061
  364WAT    HW2 1092   6.649   0.712   4.967
  365WAT     OW 1093   5.409   1.217   5.460
  365WAT    HW1 1094   5.477   1.188   5.392
  365WAT    HW2 1095   5.328   1.253   5.413
  366WAT     OW 1096   5.296   0.928   1.017
  366WAT    HW1 1097   5.254   0.944   0.927
  366WAT    HW2 1098   5.392   0.905   1.005
  367WAT     OW 1099   4.019   1.629   3.879
  367WAT    HW1 1100   4.074   1.567   3.823
  367WAT    HW2 1101   4.066   1.718   3.885
  368WAT     OW 1102   6.185   2.427   0.811
  368WAT    HW1 1103   6.186   2.483   0.894
  368WAT    HW2 1104   6.222   2.337   0.832
  369WAT     OW 1105   5.933   6.132   3.358
  369WAT    HW1 1106   5.919   6.120   3.456
  369WAT    HW2 1107   5.845   6.143   3.312
  370WAT     OW 1108   5.261   1.043   1.268
  370WAT    HW1 1109   5.267   1.004   1.176
  370WAT    HW2 1110   5.281   0.973   1.336
  371WAT     OW 1111   2.839   4.229   0.502
  371WAT    HW1 1112   2.884   4.233   0.412
  371WAT    HW2 1113   2.831   4.321   0.539
  372WAT     OW 1114   0.093   0.917   3.007
  372WAT    HW1 1115   0.059   0.916   3.101
  372WAT    HW2 1116   0.177   0.862   3.002
  373WAT     OW 1117   0.590   1.499   4.672
  373WAT    HW1 1118   0.573   1.461   4.581
  373WAT    HW2 1119   0.578   1.426   4.740
  374WAT     OW 1120   2.227   2.803   5.753
  374WAT    HW1 1121   2.307   2.773   5.700
  374WAT    HW2 1122   2.169   2.860   5.696
  375WAT     OW 1123   1.664   1.487   5.285
  375WAT    HW1 1124   1.739   1.442   5.333
  375WAT    HW2 1125   1.666   1.461   5.188
  376WAT     OW 1126   2.177   2.212   4.203
  376WAT    HW1 1127   2.159   2.222   4.301
  376WAT    HW2 1128   2.111   2.266   4.151
  377WAT     OW 1129   5.207   5.068   5.214
  377WAT    HW1 1130   5.166   5.085   5.124
  377WAT    HW2 1131   5.300   5.105   5.216
  378WAT     OW 1132   2.910   6.553   6.634
  378WAT    HW1 1133   2.980   6.617   6.601
  378WAT    HW2 1134   2.820   6.583   6.602
  379WAT     OW 1135   1.879   3.246   4.975
  379WAT    HW1 1136   1.912   3.305   5.048
  379WAT    HW2 1137   1.957   3.207   4.925
  380WAT     OW 1138   1.558   3.229   4.143
  380WAT    HW1 1139   1.604   3.159   4.089
  380WAT    HW2 1140   1.618   3.256   4.219
  381WAT     OW 1141   2.245   5.474   3.645
  381WAT    HW1 1142   2.260   5.537   3.722
  381WAT    HW2 1143   2.151   5.483   3.612
  382WAT     OW 1144   0.713   2.465   0.269
  382WAT    HW1 1145   0.688   2.476   0.172
  382WAT    HW2 1146   0.811   2.477   0.279
  383WAT     OW 1147   0.047   3.376   3.513
  383WAT    HW1 1148   0.053   3.476   3.513
  383WAT    HW2 1149   0.050   3.342   3.607
  384WAT     OW 1150   4.290   3.148   0.314
  384WAT    HW1 1151   4.350   3.069   0.323
  384WAT    HW2 1152   4.220   3.130   0.245
  385WAT     OW 1153   3.372   1.648   6.394
  385WAT    HW1 1154   3.384   1.706   6.313
  385WAT    HW2 1155   3.274   1.635   6.411
  386WAT     OW 1156   0.367   5.213   6.041
  386WAT    HW1 1157   0.286   5.209   6.099
  386WAT    HW2 1158   0.442   5.165   6.085
  387WAT     OW 1159   0.167   1.601   6.464
  387WAT    HW1 1160   0.082   1.619   6.513
  387WAT    HW2 1161   0.232   1.555   6.525
  388WAT     OW 1162   2.050   2.376   0.485
  388WAT    HW1 1163   2.063   2.446   0.554
  388WAT    HW2 1164   1.952   2.358   0.473
  389WAT     OW 1165   2.616   0.940   2.577
  389WAT    HW1 1166   2.533   0.905   2.619
  389WAT    HW2 1167   2.682   0.865   2.565
  390WAT     OW 1168   5.593   5.444   6.448
  390WAT    HW1 1169   5.646   5.496   6.381
  390WAT    HW2 1170   5.495   5.455   6.430
  391WAT     OW 1171   2.659   1.187   6.681
  391WAT    HW1 1172   2.679   1.257   6.613
  391WAT    HW2 1173   2.614   1.109   6.636
  392WAT     OW 1174   3.648   4.925   6.051
  392WAT    HW1 1175   3.612   4.845   6.002
  392WAT    HW2 1176   3.748   4.926   6.043
  393WAT     OW 1177   3.873   3.585   3.127
  393WAT    HW1 1178   3.775   3.569   3.117
  393WAT    HW2 1179   3.901   3.565   3.220
  394WAT     OW 1180   1.412   1.051   3.189
  394WAT    HW1 1181   1.357   1.085   3.113
  394WAT    HW2 1182   1.506   1.038   3.160
  395WAT     OW 1183   4.455   0.373   0.638
  395WAT    HW1 1184   4.401   0.314   0.699
  395WAT    HW2 1185   4.551   0.367   0.664
  396WAT     OW 1186   3.702   4.458   2.525
  396WAT    HW1 1187   3.708   4.555   2.550
  396WAT    HW2 1188   3.609   4.425   2.540
  397WAT     OW 1189   4.476   6.507   2.153
  397WAT    HW1 1190   4.432   6.517   2.063
  397WAT    HW2 1191   4.526   6.420   2.155
  398WAT     OW 1192   5.186   2.285   4.035
  398WAT    HW1 1193   5.121   2.220   4.074
  398WAT    HW2 1194   5.156   2.378   4.054
  399WAT     OW 1195   5.804   0.614   3.728
  399WAT    HW1 1196   5.849   0.526   3.742
  399WAT    HW2 1197   5.871   0.681   3.696
  400WAT     OW 1198   4.755   6.019   1.340
  400WAT    HW1 1199   4.847   5.987   1.364
  400WAT    HW2 1200   4.705   6.040   1.424
  401WAT     OW 1201   4.905   5.159   3.506
  401WAT    HW1 1202   4.865   5.218   3.575
  401WAT    HW2 1203   4.839   5.145   3.432
  402WAT     OW 1204   0.715   0.304   3.241
  402WAT    HW1 1205   0.693   0.319   3.145
  402WAT    HW2 1206   0.814   0.307   3.254
  403WAT     OW 1207   4.434   2.781   6.658
  403WAT    HW1 1208   4.471   2.707   6.601
  403WAT    HW2 1209   4.369   2.742   6.724
  404WAT     OW 1210   1.847   5.374   4.446
  404WAT    HW1 1211   1.913   5.422   4.505
  404WAT    HW2 1212   1.816   5.291   4.492
  405WAT     OW 1213   1.327   2.777   3.024
  405WAT    HW1 1214   1.302   2.715   2.949
  405WAT    HW2 1215   1.426   2.795   3.020
  406WAT     OW 1216   6.429   1.966   2.308
  406WAT    HW1 1217   6.406   2.059   2.334
  406WAT    HW2 1218   6.490   1.926   2.377
  407WAT     OW 1219   3.104   6.245   4.395
  407WAT    HW1 1220   3.005   6.236   4.385
  407WAT    HW2 1221   3.130   6.341   4.388
  408WAT     OW 1222   1.041   3.867   4.027
  408WAT    HW1 1223   0.972   3.921   4.076
  408WAT    HW2 1224   1.103   3.824   4.093
  409WAT     OW 1225   5.742   5.409   1.846
  409WAT    HW1 1226   5.656   5.447   1.879
  409WAT    HW2 1227   5.817   5.470   1.872
  410WAT     OW 1228   0.869   5.727   0.497
  410WAT    HW1 1229   0.801   5.699   0.429
  410WAT    HW2 1230   0.867   5.663   0.574
  411WAT     OW 1231   2.979   4.110   6.309
  411WAT    HW1 1232   3.078   4.099   6.323
  411WAT    HW2 1233   2.961   4.198   6.265
  412WAT     OW 1234   3.928   3.515   3.389
  412WAT    HW1 1235   3.864   3.448   3.425
  412WAT    HW2 1236   3.942   3.587   3.457
  413WAT     OW 1237   2.388   3.381   1.265
  413WAT    HW1 1238   2.394   3.466   1.317
  413WAT    HW2 1239   2.480   3.344   1.252
  414WAT     OW 1240   3.932   0.323   6.652
  414WAT    HW1 1241   3.874   0.245   6.632
  414WAT    HW2 1242   3.878   0.407   6.647
  415WAT     OW 1243   1.401   3.912   0.851
  415WAT    HW1 1244   1.305   3.937   0.868
  415WAT    HW2 1245   1.459   3.991   0.869
  416WAT     OW 1246   1.875   1.673   0.899
  416WAT    HW1 1247   1.836   1.760   0.869
  416WAT    HW2 1248   1.969   1.666   0.865
  417WAT     OW 1249   0.182   2.324   5.445
  417WAT    HW1 1250   0.261   2.339   5.386
  417WAT    HW2 1251   0.207   2.346   5.540
  418WAT     OW 1252   3.190   2.521   4.760
  418WAT    HW1 1253   3.256   2.534   4.686
  418WAT    HW2 1254   3.202   2.594   4.828
  419WAT     OW 1255   0.730   0.850   1.892
  419WAT    HW1 1256   0.638   0.857   1.931
  419WAT    HW2 1257   0.723   0.821   1.797
  420WAT     OW 1258   3.011   0.002   1.584
  420WAT    HW1 1259   3.025   0.038   1.492
  420WAT    HW2 1260   2.936   0.051   1.628
  421WAT     OW 1261   2.876   6.521   2.991
  421WAT    HW1 1262   2.850   6.437   2.943
  421WAT    HW2 1263   2.821   6.597   2.957
  422WAT     OW 1264   0.950   6.024   5.871
  422WAT    HW1 1265   0.951   6.045   5.969
  422WAT    HW2 1266   0.994   5.936   5.855
  423WAT     OW 1267   6.532   2.334   3.630
  423WAT    HW1 1268   6.554   2.306   3.724
  423WAT    HW2 1269   6.569   2.267   3.566
  424WAT     OW 1270   0.420   4.644   6.030
  424WAT    HW1 1271   0.411   4.544   6.032
  424WAT    HW2 1272   0.450   4.672   5.938
  425WAT     OW 1273   3.235   0.704   2.599
  425WAT    HW1 1274   3.160   0.714   2.533
  425WAT    HW2 1275   3.258   0.608   2.609
  426WAT     OW 1276   1.192   4.179   5.772
  426WAT    HW1 1277   1.273   4.132   5.807
  426WAT    HW2 1278   1.191   4.173   5.672
  427WAT     OW 1279   6.133   2.255   0.362
  427WAT    HW1 1280   6.160   2.204   0.443
  427WAT    HW2 1281   6.188   2.338   0.354
  428WAT     OW 1282   3.473   6.158   1.680
  428WAT    HW1 1283   3.383   6.195   1.656
  428WAT    HW2 1284   3.529   6.150   1.597
  429WAT     OW 1285   1.463   1.398   1.298
  429WAT    HW1 1286   1.467   1.498   1.296
  429WAT    HW2 1287   1.551   1.361   1.271
  430WAT     OW 1288   2.855   5.333   0.224
  430WAT    HW1 1289   2.883   5.425   0.252
  430WAT    HW2 1290   2.936   5.278   0.204
  431WAT     OW 1291   1.246   2.530   1.062
  431WAT    HW1 1292   1.251   2.630   1.062
  431WAT    HW2 1293   1.288   2.495   0.979
  432WAT     OW 1294   3.803   1.381   1.129
  432WAT    HW1 1295   3.855   1.457   1.090
  432WAT    HW2 1296   3.851   1.346   1.210
  433WAT     OW 1297   0.613   3.743   0.082
  433WAT    HW1 1298   0.532   3.719   0.028
  433WAT    HW2 1299   0.640   3.837   0.061
  434WAT     OW 1300   4.096   2.472   1.586
  434WAT    HW1 1301   4.179   2.476   1.641
  434WAT    HW2 1302   4.025   2.424   1.638
  435WAT     OW 1303   2.315   5.631   3.857
  435WAT    HW1 1304   2.345   5.556   3.917
  435WAT    HW2 1305   2.263   5.697   3.911
  436WAT     OW 1306   4.731   0.507   4.211
  436WAT    HW1 1307   4.750   0.474   4.303
  436WAT    HW2 1308   4.794   0.582   4.188
  437WAT     OW 1309   1.470   0.932   5.721
  437WAT    HW1 1310   1.522   0.882   5.791
  437WAT    HW2 1311   1.527   0.942   5.639
  438WAT     OW 1312   4.152   2.186   5.268
  438WAT    HW1 1313   4.152   2.114   5.338
  438WAT    HW2 1314   4.091   2.260   5.296
  439WAT     OW 1315   1.353   5.172   3.060
  439WAT    HW1 1316   1.350   5.261   3.016
  439WAT    HW2 1317   1.263   5.129   3.055
  440WAT     OW 1318   0.284   3.993   4.998
  440WAT    HW1 1319   0.352   3.922   4.979
  440WAT    HW2 1320   0.199   3.972   4.951
  441WAT     OW 1321   2.187   0.833   0.593
  441WAT    HW1 1322   2.182   0.784   0.506
  441WAT    HW2 1323   2.282   0.858   0.611
  442WAT     OW 1324   0.418   4.641   6.676
  442WAT    HW1 1325   0.386   4.578   6.604
  442WAT    HW2 1326   0.485   4.704   6.638
  443WAT     OW 1327   1.429   3.223   0.994
  443WAT    HW1 1328   1.426   3.198   1.091
  443WAT    HW2 1329   1.336   3.225   0.958
  444WAT     OW 1330   0.892   3.450   0.721
  444WAT    HW1 1331   0.882   3.360   0.680
  444WAT    HW2 1332   0.805   3.499   0.717
  445WAT     OW 1333   2.517   0.997   6.545
  445WAT    HW1 1334   2.500   0.913   6.597
  445WAT    HW2 1335   2.433   1.049   6.536
  446WAT     OW 1336   5.502   2.698   1.648
  446WAT    HW1 1337   5.468   2.741   1.564
  446WAT    HW2 1338   5.592   2.658   1.630
  447WAT     OW 1339   6.274   1.320   2.058
  447WAT    HW1 1340   6.367   1.290   2.038
  447WAT    HW2 1341   6.216   1.303   1.979
  448WAT     OW 1342   5.361   6.678   0.285
  448WAT    HW1 1343   5.435   6.664   0.351
  448WAT    HW2 1344   5.397   6.722   0.203
  449WAT     OW 1345   2.678   0.675   5.115
  449WAT    HW1 1346   2.615   0.639   5.046
  449WAT    HW2 1347   2.698   0.771   5.095
  450WAT     OW 1348   4.747   5.282   5.100
  450WAT    HW1 1349   4.716   5.371   5.068
  450WAT    HW2 1350   4.806   5.293   5.180
  451WAT     OW 1351   3.167   0.639   5.897
  451WAT    HW1 1352   3.245   0.594   5.853
  451WAT    HW2 1353   3.177   0.633   5.996
  452WAT     OW 1354   1.945   1.694   3.516
  452WAT    HW1 1355   1.964   1.724   3.609
  452WAT    HW2 1356   2.023   1.717   3.457
  453WAT     OW 1357   2.016   2.036   0.823
  453WAT    HW1 1358   1.989   2.132   0.819
  453WAT    HW2 1359   1.934   1.979   0.833
  454WAT     OW 1360   4.736   6.175   5.569
  454WAT    HW1 1361   4.641   6.152   5.548
  454WAT    HW2 1362   4.754   6.269   5.543
  455WAT     OW 1363   4.646   5.852   3.088
  455WAT    HW1 1364   4.604   5.918   3.025
  455WAT    HW2 1365   4.673   5.770   3.037
  456WAT     OW 1366   5.468   4.090   6.052
  456WAT    HW1 1367   5.379   4.120   6.088
  456WAT    HW2 1368   5.504   4.017   6.111
  457WAT     OW 1369   5.205   3.497   0.595
  457WAT    HW1 1370   5.162   3.416   0.634
  457WAT    HW2 1371   5.195   3.574   0.658
  458WAT     OW 1372   1.812   2.904   1.787
  458WAT    HW1 1373   1.889   2.881   1.728
  458WAT    HW2 1374   1.777   2.995   1.763
  459WAT     OW 1375   4.657   4.977   4.284
  459WAT    HW1 1376   4.712   4.973   4.367
  459WAT    HW2 1377   4.577   5.035   4.300
  460WAT     OW 1378   3.126   1.414   2.163
  460WAT    HW1 1379   3.037   1.447   2.195
  460WAT    HW2 1380   3.133   1.425   2.064
  461WAT     OW 1381   6.418   5.101   3.255
  461WAT    HW1 1382   6.398   5.179   3.196
  461WAT    HW2 1383   6.373   5.114   3.344
  462WAT     OW 1384   5.241   1.422   0.025
  462WAT    HW1 1385   5.338   1.425   0.049
  462WAT    HW2 1386   5.208   1.515   0.010
  463WAT     OW 1387   4.597   4.171   4.174
  463WAT    HW1 1388   4.690   4.148   4.204
  463WAT    HW2 1389   4.573   4.261   4.210
  464WAT     OW 1390   5.298   5.980   0.141
  464WAT    HW1 1391   5.233   5.983   0.217
  464WAT    HW2 1392   5.340   5.890   0.136
  465WAT     OW 1393   6.372   5.752   2.376
  465WAT    HW1 1394   6.373   5.661   2.333
  465WAT    HW2 1395   6.283   5.768   2.418
  466WAT     OW 1396   2.838   4.988   3.871
  466WAT    HW1 1397   2.779   4.955   3.797
  466WAT    HW2 1398   2.922   4.934   3.873
  467WAT     OW 1399   2.999   1.517   3.833
  467WAT    HW1 1400   3.094   1.513   3.801
  467WAT    HW2 1401   2.994   1.572   3.916
  468WAT     OW 1402   2.865   2.848   5.080
  468WAT    HW1 1403   2.908   2.850   4.990
  468WAT    HW2 1404   2.886   2.933   5.129
  469WAT     OW 1405   1.734   6.102   2.046
  469WAT    HW1 1406   1.762   6.134   1.956
  469WAT    HW2 1407   1.684   6.174   2.093
  470WAT     OW 1408   1.162   0.134   4.034
  470WAT    HW1 1409   1.135   0.108   4.127
  470WAT    HW2 1410   1.260   0.154   4.033
  471WAT     OW 1411   3.786   3.367   2.027
  471WAT    HW1 1412   3.709   3.428   2.044
  471WAT    HW2 1413   3.752   3.273   2.015
  472WAT     OW 1414   1.485   2.189   4.521
  472WAT    HW1 1415   1.490   2.164   4.425
  472WAT    HW2 1416   1.514   2.111   4.578
  473WAT     OW 1417   5.903   4.825   0.457
  473WAT    HW1 1418   5.823   4.886   0.453
  473WAT    HW2 1419   5.876   4.737   0.495
  474WAT     OW 1420   0.343   4.265   2.940
  474WAT    HW1 1421   0.363   4.330   3.013
  474WAT    HW2 1422   0.304   4.314   2.862
  475WAT     OW 1423   5.412   1.173   1.773
  475WAT    HW1 1424   5.454   1.185   1.864
  475WAT    HW2 1425   5.482   1.187   1.703
  476WAT     OW 1426   0.679   1.439   5.112
  476WAT    HW1 1427   0.610   1.512   5.114
  476WAT    HW2 1428   0.634   1.351   5.124
  477WAT     OW 1429   4.502   0.920   3.620
  477WAT    HW1 1430   4.425   0.871   3.580
  477WAT    HW2 1431   4.566   0.946   3.547
  478WAT     OW 1432   2.801   1.802   0.488
  478WAT    HW1 1433   2.814   1.740   0.565
  478WAT    HW2 1434   2.704   1.811   0.467
  479WAT     OW 1435   0.759   1.925   3.165
  479WAT    HW1 1436   0.856   1.949   3.156
  479WAT    HW2 1437   0.705   2.009   3.171
  480WAT     OW 1438   1.314   3.996   4.273
  480WAT    HW1 1439   1.256   3.915   4.265
  480WAT    HW2 1440   1.283   4.051   4.350
  481WAT     OW 1441   3.074   5.911   2.431
  481WAT    HW1 1442   3.148   5.963   2.473
  481WAT    HW2 1443   2.987   5.936   2.472
  482WAT     OW 1444   0.013   2.095   2.576
  482WAT    HW1 1445   0.076   2.114   2.651
  482WAT    HW2 1446   0.060   2.107   2.489
  483WAT     OW 1447   2.912   5.594   0.297
  483WAT    HW1 1448   2.867   5.609   0.385
  483WAT    HW2 1449   3.009   5.615   0.306
  484WAT     OW 1450   4.781   2.483   6.572
  484WAT    HW1 1451   4.784   2.384   6.581
  484WAT    HW2 1452   4.843   2.512   6.499
  485WAT     OW 1453   5.963   5.010   1.491
  485WAT    HW1 1454   5.974   5.096   1.440
  485WAT    HW2 1455   5.874   4.970   1.470
  486WAT     OW 1456   5.079   2.088   0.087
  486WAT    HW1 1457   5.095   2.078   0.185
  486WAT    HW2 1458   5.024   2.170   0.071
  487WAT     OW 1459   4.325   3.556   2.113
  487WAT    HW1 1460   4.266   3.480   2.139
  487WAT    HW2 1461   4.307   3.581   2.018
  488WAT     OW 1462   4.571   3.553   6.445
  488WAT    HW1 1463   4.643   3.540   6.376
  488WAT    HW2 1464   4.613   3.572   6.533
  489WAT     OW 1465   3.138   4.648   2.849
  489WAT    HW1 1466   3.063   4.696   2.894
  489WAT    HW2 1467   3.184   4.589   2.915
  490WAT     OW 1468   4.349   2.703   3.584
  490WAT    HW1 1469   4.367   2.800   3.600
  490WAT    HW2 1470   4.251   2.688   3.576
  491WAT     OW 1471   0.200   2.414   0.500
  491WAT    HW1 1472   0.264   2.450   0.567
  491WAT    HW2 1473   0.164   2.326   0.532
  492WAT     OW 1474   4.835   3.213   4.847
  492WAT    HW1 1475   4.814   3.165   4.762
  492WAT    HW2 1476   4.933   3.232   4.851
  493WAT     OW 1477   1.575   2.280   2.858
  493WAT    HW1 1478   1.536   2.255   2.769
  493WAT    HW2 1479   1.517   2.243   2.931
  494WAT     OW 1480   6.267   0.632   3.555
  494WAT    HW1 1481   6.273   0.533   3.541
  494WAT    HW2 1482   6.282   0.653   3.652
  495WAT     OW 1483   4.670   3.228   2.534
  495WAT    HW1 1484   4.745   3.255   2.594
  495WAT    HW2 1485   4.622   3.149   2.573
  496WAT     OW 1486   2.538   2.548   0.936
  496WAT    HW1 1487   2.546   2.494   0.853
  496WAT    HW2 1488   2.495   2.636   0.915
  497WAT     OW 1489   4.025   1.451   6.485
  497WAT    HW1 1490   3.987   1.513   6.417
  497WAT    HW2 1491   4.123   1.468   6.495
  498WAT     OW 1492   5.369   4.847   4.531
  498WAT    HW1 1493   5.467   4.858   4.547
  498WAT    HW2 1494   5.354   4.814   4.437
  499WAT     OW 1495   3.860   4.801   1.956
  499WAT    HW1 1496   3.959   4.794   1.971
  499WAT    HW2 1497   3.812   4.762   2.035
  500WAT     OW 1498   4.930   5.191   5.735
  500WAT    HW1 1499   4.882   5.228   5.816
  500WAT    HW2 1500   4.915   5.092   5.730
  501WAT     OW 1501   4.281   4.739   6.187
  501WAT    HW1 1502   4.259   4.835   6.201
  501WAT    HW2 1503   4.246   4.685   6.264
  502WAT     OW 1504   2.302   0.627   4.176
  502WAT    HW1 1505   2.383   0.586   4.217
  502WAT    HW2 1506   2.285   0.716   4.218
  503WAT     OW 1507   5.477   4.781   5.439
  503WAT    HW1 1508   5.554   4.768   5.502
  503WAT    HW2 1509   5.397   4.734   5.475
  504WAT     OW 1510   3.978   3.024   4.298
  504WAT    HW1 1511   4.078   3.035   4.304
  504WAT    HW2 1512   3.935   3.113   4.290
  505WAT     OW 1513   4.285   3.270   4.448
  505WAT    HW1 1514   4.243   3.342   4.391
  505WAT    HW2 1515   4.266   3.181   4.407
  506WAT     OW 1516   2.802   2.642   2.119
  506WAT    HW1 1517   2.796   2.550   2.156
  506WAT    HW2 1518   2.749   2.648   2.035
  507WAT     OW 1519   4.483   2.742   6.101
  507WAT    HW1 1520   4.443   2.770   6.189
  507WAT    HW2 1521   4.448   2.802   6.029
  508WAT     OW 1522   3.990   3.572   2.033
  508WAT    HW1 1523   4.060   3.510   2.066
  508WAT    HW2 1524   3.906   3.520   2.015
  509WAT     OW 1525   2.689   3.777   4.306
  509WAT    HW1 1526   2.781   3.757   4.271
  509WAT    HW2 1527   2.680   3.875   4.322
  510WAT     OW 1528   2.604   3.559   4.805
  510WAT    HW1 1529   2.557   3.501   4.738
  510WAT    HW2 1530   2.699   3.572   4.777
  511WAT     OW 1531   1.030   4.037   5.946
  511WAT    HW1 1532   1.077   4.098   5.882
  511WAT    HW2 1533   1.087   3.957   5.962
  512WAT     OW 1534   2.811   0.938   0.245
  512WAT    HW1 1535   2.739   1.008   0.244
  512WAT    HW2 1536   2.780   0.858   0.297
  513WAT     OW 1537   4.790   6.434   5.514
  513WAT    HW1 1538   4.710   6.492   5.533
  513WAT    HW2 1539   4.873   6.480   5.546
  514WAT     OW 1540   0.760   5.045   5.104
  514WAT    HW1 1541   0.774   5.022   5.008
  514WAT    HW2 1542   0.673   5.093   5.115
  515WAT     OW 1543   2.949   3.990   2.932
  515WAT    HW1 1544   3.002   4.040   2.864
  515WAT    HW2 1545   2.886   4.052   2.978
  516WAT     OW 1546   4.623   5.634   2.708
  516WAT    HW1 1547   4.586   5.723   2.680
  516WAT    HW2 1548   4.679   5.597   2.634
  517WAT     OW 1549   6.285   2.837   5.335
  517WAT    HW1 1550   6.269   2.807   5.241
  517WAT    HW2 1551   6.257   2.765   5.399
  518WAT     OW 1552   2.843   5.711   1.322
  518WAT    HW1 1553   2.814   5.741   1.413
  518WAT    HW2 1554   2.773   5.736   1.255
  519WAT     OW 1555   6.030   6.035   2.410
  519WAT    HW1 1556   6.048   6.056   2.313
  519WAT    HW2 1557   6.050   6.115   2.465
  520WAT     OW 1558   0.408   0.395   3.538
  520WAT    HW1 1559   0.317   0.405   3.498
  520WAT    HW2 1560   0.412   0.446   3.624
  521WAT     OW 1561   1.437   2.107   3.980
  521WAT    HW1 1562   1.509   2.055   3.936
  521WAT    HW2 1563   1.438   2.201   3.945
  522WAT     OW 1564   3.171   5.360   6.415
  522WAT    HW1 1565   3.138   5.272   6.381
  522WAT    HW2 1566   3.113   5.390   6.491
  523WAT     OW 1567   2.946   0.435   1.504
  523WAT    HW1 1568   2.861   0.401   1.545
  523WAT    HW2 1569   2.935   0.440   1.404
  524WAT     OW 1570   2.421   4.595   3.713
  524WAT    HW1 1571   2.341   4.643   3.676
  524WAT    HW2 1572   2.470   4.655   3.776
  525WAT     OW 1573   3.396   4.335   5.650
  525WAT    HW1 1574   3.424   4.316   5.744
  525WAT    HW2 1575   3.453   4.408   5.613
  526WAT     OW 1576   2.404   1.694   6.343
  526WAT    HW1 1577   2.448   1.724   6.258
  526WAT    HW2 1578   2.376   1.599   6.334
  527WAT     OW 1579   4.002   3.974   3.589
  527WAT    HW1 1580   3.965   4.018   3.671
  527WAT    HW2 1581   4.080   4.028   3.555
  528WAT     OW 1582   1.655   2.817   4.676
  528WAT    HW1 1583   1.565   2.802   4.636
  528WAT    HW2 1584   1.673   2.915   4.682
  529WAT     OW 1585   0.372   2.934   4.922
  529WAT    HW1 1586   0.282   2.902   4.895
  529WAT    HW2 1587   0.437   2.858   4.921
  530WAT     OW 1588   4.528   3.611   4.260
  530WAT    HW1 1589   4.527   3.518   4.297
  530WAT    HW2 1590   4.455   3.664   4.304
  531WAT     OW 1591   2.730   1.809   6.507
  531WAT    HW1 1592   2.747   1.716   6.539
  531WAT    HW2 1593   2.647   1.845   6.550
  532WAT     OW 1594   1.540   2.858   0.354
  532WAT    HW1 1595   1.473   2.888   0.286
  532WAT    HW2 1596   1.520   2.902   0.442
  533WAT     OW 1597   5.655   2.374   0.818
  533WAT    HW1 1598   5.749   2.409   0.821
  533WAT    HW2 1599   5.594   2.445   0.784
  534WAT     OW 1600   6.215   1.412   0.965
  534WAT    HW1 1601   6.233   1.424   0.867
  534WAT    HW2 1602   6.174   1.495   1.002
  535WAT     OW 1603   1.394   5.522   1.416
  535WAT    HW1 1604   1.480   5.574   1.412
  535WAT    HW2 1605   1.396   5.459   1.493
  536WAT     OW 1606   3.710   0.779   1.631
  536WAT    HW1 1607   3.644   0.814   1.564
  536WAT    HW2 1608   3.695   0.681   1.644
  537WAT     OW 1609   4.335   2.468   5.534
  537WAT    HW1 1610   4.398   2.482   5.611
  537WAT    HW2 1611   4.381   2.490   5.448
  538WAT     OW 1612   2.015   6.104   4.788
  538WAT    HW1 1613   2.022   6.201   4.811
  538WAT    HW2 1614   1.920   6.080   4.770
  539WAT     OW 1615   6.177   4.299   5.040
  539WAT    HW1 1616   6.097   4.329   5.092
  539WAT    HW2 1617   6.253   4.284   5.102
  540WAT     OW 1618   3.583   1.213   0.098
  540WAT    HW1 1619   3.604   1.184   0.192
  540WAT    HW2 1620   3.657   1.272   0.065
  541WAT     OW 1621   5.826   5.613   4.955
  541WAT    HW1 1622   5.727   5.602   4.961
  541WAT    HW2 1623   5.863   5.626   5.047
  542WAT     OW 1624   2.167   5.692   0.261
  542WAT    HW1 1625   2.217   5.610   0.234
  542WAT    HW2 1626   2.069   5.677   0.249
  543WAT     OW 1627   1.471   2.787   3.666
  543WAT    HW1 1628   1.481   2.823   3.573
  543WAT    HW2 1629   1.562   2.772   3.706
  544WAT     OW 1630   0.000   6.659   0.200
  544WAT    HW1 1631  -0.037   6.741   0.157
  544WAT    HW2 1632  -0.073   6.612   0.250
  545WAT     OW 1633   5.615   4.564   2.586
  545WAT    HW1 1634   5.553   4.584   2.510
  545WAT    HW2 1635   5.562   4.536   2.666
  546WAT     OW 1636   4.729   3.813   0.837
  546WAT    HW1 1637   4.704   3.903   0.802
  546WAT    HW2 1638   4.775   3.760   0.765
  547WAT     OW 1639   1.786   0.306   4.669
  547WAT    HW1 1640   1.775   0.398   4.707
  547WAT    HW2 1641   1.707   0.250   4.695
  548WAT     OW 1642   1.345   5.623   0.376
  548WAT    HW1 1643   1.251   5.658   0.378
  548WAT    HW2 1644   1.378   5.624   0.281
  549WAT     OW 1645   4.555   1.903   5.523
  549WAT    HW1 1646   4.474   1.867   5.478
  549WAT    HW2 1647   4.546   2.002   5.536
  550WAT     OW 1648   2.589   3.031   0.051
  550WAT    HW1 1649   2.684   3.035   0.020
  550WAT    HW2 1650   2.550   3.123   0.049
  551WAT     OW 1651   0.576   6.617   6.048
  551WAT    HW1 1652   0.563   6.714   6.066
  551WAT    HW2 1653   0.645   6.580   6.110
  552WAT     OW 1654   2.103   0.678   5.950
  552WAT    HW1 1655   2.155   0.718   5.874
  552WAT    HW2 1656   2.110   0.737   6.030
  553WAT     OW 1657   5.833   4.272   6.197
  553WAT    HW1 1658   5.749   4.303   6.153
  553WAT    HW2 1659   5.864   4.341   6.263
  554WAT     OW 1660   2.493   4.914   0.474
  554WAT    HW1 1661   2.451   4.881   0.558
  554WAT    HW2 1662   2.422   4.938   0.408
  555WAT     OW 1663   4.844   3.531   1.384
  555WAT    HW1 1664   4.895   3.491   1.459
  555WAT    HW2 1665   4.813   3.459   1.322
  556WAT     OW 1666   2.941   6.463   4.880
  556WAT    HW1 1667   2.953   6.449   4.978
  556WAT    HW2 1668   3.029   6.491   4.840
  557WAT     OW 1669   0.259   2.316   3.929
  557WAT    HW1 1670   0.338   2.365   3.965
  557WAT    HW2 1671   0.180   2.331   3.989
  558WAT     OW 1672   6.323   6.375   3.325
  558WAT    HW1 1673   6.371   6.461   3.311
  558WAT    HW2 1674   6.388   6.299   3.318
  559WAT     OW 1675   1.021   6.189   5.482
  559WAT    HW1 1676   0.954   6.233   5.541
  559WAT    HW2 1677   1.020   6.090   5.498
  560WAT     OW 1678   3.835   0.228   1.336
  560WAT    HW1 1679   3.816   0.130   1.335
  560WAT    HW2 1680   3.933   0.244   1.333
  561WAT     OW 1681   4.541   4.020   5.842
  561WAT    HW1 1682   4.620   3.996   5.898
  561WAT    HW2 1683   4.487   4.090   5.888
  562WAT     OW 1684   1.942   4.588   3.864
  562WAT    HW1 1685   1.855   4.610   3.821
  562WAT    HW2 1686   1.946   4.490   3.884
  563WAT     OW 1687   1.649   3.798   6.150
  563WAT    HW1 1688   1.599   3.711   6.150
  563WAT    HW2 1689   1.714   3.799   6.225
  564WAT     OW 1690   4.875   1.608   5.227
  564WAT    HW1 1691   4.848   1.703   5.236
  564WAT    HW2 1692   4.812   1.561   5.165
  565WAT     OW 1693   1.479   4.060   3.280
  565WAT    HW1 1694   1.507   4.156   3.284
  565WAT    HW2 1695   1.424   4.038   3.361
  566WAT     OW 1696   4.099   0.583   0.007
  566WAT    HW1 1697   4.000   0.575  -0.002
  566WAT    HW2 1698   4.135   0.502   0.053
  567WAT     OW 1699   2.217   4.572   4.413
  567WAT    HW1 1700   2.221   4.480   4.453
  567WAT    HW2 1701   2.239   4.566   4.315
  568WAT     OW 1702   0.843   0.697   0.532
  568WAT    HW1 1703   0.922   0.757   0.546
  568WAT    HW2 1704   0.764   0.734   0.580
  569WAT     OW 1705   5.026   5.369   6.082
  569WAT    HW1 1706   4.940   5.351   6.033
  569WAT    HW2 1707   5.052   5.287   6.134
  570WAT     OW 1708   1.166   5.179   1.548
  570WAT    HW1 1709   1.107   5.131   1.483
  570WAT    HW2 1710   1.249   5.127   1.562
  571WAT     OW 1711   5.482   3.452   2.951
  571WAT    HW1 1712   5.479   3.525   3.020
  571WAT    HW2 1713   5.528   3.486   2.869
  572WAT     OW 1714   2.152   4.327   5.250
  572WAT    HW1 1715   2.252   4.334   5.247
  572WAT    HW2 1716   2.125   4.231   5.252
  573WAT     OW 1717   2.740   0.709   0.384
  573WAT    HW1 1718   2.813   0.661   0.335
  573WAT    HW2 1719   2.660   0.649   0.391
  574WAT     OW 1720   4.506   2.182   3.999
  574WAT    HW1 1721   4.581   2.225   4.050
  574WAT    HW2 1722   4.540   2.152   3.910
  575WAT     OW 1723   1.244   1.236   1.266
  575WAT    HW1 1724   1.195   1.220   1.352
  575WAT    HW2 1725   1.324   1.294   1.283
  576WAT     OW 1726   2.178   6.220   1.453
  576WAT    HW1 1727   2.145   6.207   1.360
  576WAT    HW2 1728   2.186   6.318   1.473
  577WAT     OW 1729   2.743   0.983   2.936
  577WAT    HW1 1730   2.805   1.007   2.861
  577WAT    HW2 1731   2.669   1.050   2.942
  578WAT     OW 1732   4.636   4.050   3.616
  578WAT    HW1 1733   4.712   4.080   3.673
  578WAT    HW2 1734   4.670   4.015   3.529
  579WAT     OW 1735   1.258   0.771   6.104
  579WAT    HW1 1736   1.174   0.799   6.152
  579WAT    HW2 1737   1.335   0.825   6.138
  580WAT     OW 1738   2.843   4.255   1.663
  580WAT    HW1 1739   2.837   4.225   1.758
  580WAT    HW2 1740   2.812   4.350   1.657
  581WAT     OW 1741   4.025   0.176   3.705
  581WAT    HW1 1742   4.057   0.135   3.790
  581WAT    HW2 1743   3.926   0.164   3.697
  582WAT     OW 1744   1.000   4.665   1.353
  582WAT    HW1 1745   1.073   4.605   1.320
  582WAT    HW2 1746   1.000   4.667   1.453
  583WAT     OW 1747   0.494   4.000   0.501
  583WAT    HW1 1748   0.563   4.033   0.437
  583WAT    HW2 1749   0.438   4.077   0.533
  584WAT     OW 1750   0.240   0.588   2.576
  584WAT    HW1 1751   0.201   0.497   2.590
  584WAT    HW2 1752   0.166   0.655   2.565
  585WAT     OW 1753   3.537   4.709   5.922
  585WAT    HW1 1754   3.589   4.625   5.935
  585WAT    HW2 1755   3.486   4.704   5.836
  586WAT     OW 1756   3.647   6.616   2.236
  586WAT    HW1 1757   3.591   6.698   2.230
  586WAT    HW2 1758   3.595   6.538   2.201
  587WAT     OW 1759   3.088   2.941   5.803
  587WAT    HW1 1760   3.159   2.888   5.756
  587WAT    HW2 1761   3.106   2.940   5.902
  588WAT     OW 1762   1.113   5.596   5.630
  588WAT    HW1 1763   1.067   5.579   5.544
  588WAT    HW2 1764   1.212   5.605   5.614
  589WAT     OW 1765   0.596   4.193   1.986
  589WAT    HW1 1766   0.593   4.094   1.976
  589WAT    HW2 1767   0.690   4.225   1.971
  590WAT     OW 1768   4.322   1.385   4.745
  590WAT    HW1 1769   4.343   1.381   4.842
  590WAT    HW2 1770   4.223   1.397   4.732
  591WAT     OW 1771   4.228   3.108   2.985
  591WAT    HW1 1772   4.245   3.043   3.060
  591WAT    HW2 1773   4.132   3.133   2.984
  592WAT     OW 1774   6.318   4.312   0.366
  592WAT    HW1 1775   6.261   4.394   0.374
  592WAT    HW2 1776   6.378   4.304   0.445
  593WAT     OW 1777   4.908   5.855   0.320
  593WAT    HW1 1778   4.876   5.873   0.227
  593WAT    HW2 1779   4.837   5.803   0.369
  594WAT     OW 1780   0.069   2.476   5.152
  594WAT    HW1 1781  -0.023   2.444   5.172
  594WAT    HW2 1782   0.131   2.398   5.142
  595WAT     OW 1783   4.164   4.872   5.576
  595WAT    HW1 1784   4.181   4.779   5.610
  595WAT    HW2 1785   4.205   4.882   5.485
  596WAT     OW 1786   4.048   6.503   4.254
  596WAT    HW1 1787   3.991   6.554   4.190
  596WAT    HW2 1788   4.020   6.407   4.255
  597WAT     OW 1789   2.129   1.637   5.650
  597WAT    HW1 1790   2.034   1.606   5.648
  597WAT    HW2 1791   2.135   1.722   5.703
  598WAT     OW 1792   4.492   6.200   1.247
  598WAT    HW1 1793   4.575   6.145   1.237
  598WAT    HW2 1794   4.494   6.247   1.336
  599WAT     OW 1795   0.880   0.263   4.110
  599WAT    HW1 1796   0.858   0.182   4.163
  599WAT    HW2 1797   0.903   0.236   4.016
  600WAT     OW 1798   2.879   1.368   1.302
  600WAT    HW1 1799   2.828   1.346   1.385
  600WAT    HW2 1800   2.819   1.357   1.222
  601WAT     OW 1801   0.939   0.503   4.578
  601WAT    HW1 1802   0.863   0.514   4.513
  601WAT    HW2 1803   0.989   0.420   4.557
  602WAT     OW 1804   6.297   0.506   5.704
  602WAT    HW1 1805   6.254   0.568   5.769
  602WAT    HW2 1806   6.392   0.489   5.731
  603WAT     OW 1807   0.573   1.205   1.197
  603WAT    HW1 1808   0.615   1.289   1.231
  603WAT    HW2 1809   0.514   1.226   1.119
  604WAT     OW 1810   6.168   5.961   5.450
  604WAT    HW1 1811   6.084   5.940   5.500
  604WAT    HW2 1812   6.183   5.892   5.379
  605WAT     OW 1813   5.063   2.024   3.171
  605WAT    HW1 1814   5.067   2.015   3.071
  605WAT    HW2 1815   5.115   1.949   3.213
  606WAT     OW 1816   5.798   5.814   6.593
  606WAT    HW1 1817   5.819   5.846   6.501
  606WAT    HW2 1818   5.738   5.734   6.586
  607WAT     OW 1819   0.848   5.855   6.429
  607WAT    HW1 1820   0.888   5.764   6.441
  607WAT    HW2 1821   0.776   5.869   6.498
  608WAT     OW 1822   3.886   6.066   6.454
  608WAT    HW1 1823   3.832   6.095   6.375
  608WAT    HW2 1824   3.938   6.144   6.489
  609WAT     OW 1825   0.972   2.136   0.490
  609WAT    HW1 1826   1.059   2.086   0.490
  609WAT    HW2 1827   0.924   2.120   0.576
  610WAT     OW 1828   3.422   6.676   4.430
  610WAT    HW1 1829   3.344   6.613   4.423
  610WAT    HW2 1830   3.394   6.758   4.478
  611WAT     OW 1831   2.220   3.483   4.620
  611WAT    HW1 1832   2.203   3.554   4.551
  611WAT    HW2 1833   2.318   3.464   4.625
  612WAT     OW 1834   2.713   4.503   1.708
  612WAT    HW1 1835   2.653   4.560   1.652
  612WAT    HW2 1836   2.660   4.461   1.781
  613WAT     OW 1837   0.070   2.991   3.725
  613WAT    HW1 1838  -0.013   2.940   3.748
  613WAT    HW2 1839   0.051   3.089   3.729
  614WAT     OW 1840   2.498   3.888   0.560
  614WAT    HW1 1841   2.546   3.846   0.636
  614WAT    HW2 1842   2.539   3.977   0.539
  615WAT     OW 1843   3.999   3.254   1.194
  615WAT    HW1 1844   3.908   3.294   1.182
  615WAT    HW2 1845   4.066   3.307   1.142
  616WAT     OW 1846   0.209   3.558   1.422
  616WAT    HW1 1847   0.296   3.549   1.373
  616WAT    HW2 1848   0.217   3.514   1.511
  617WAT     OW 1849   1.195   5.966   4.362
  617WAT    HW1 1850   1.246   5.920   4.434
  617WAT    HW2 1851   1.108   5.918   4.347
  618WAT     OW 1852   0.327   4.855   1.166
  618WAT    HW1 1853   0.282   4.909   1.237
  618WAT    HW2 1854   0.295   4.885   1.076
  619WAT     OW 1855   1.508   5.921   5.022
  619WAT    HW1 1856   1.469   5.976   4.948
  619WAT    HW2 1857   1.504   5.824   4.997
  620WAT     OW 1858   4.126   0.080   3.956
  620WAT    HW1 1859   4.184   0.021   4.012
  620WAT    HW2 1860   4.170   0.169   3.944
  621WAT     OW 1861   3.025   3.392   2.318
  621WAT    HW1 1862   3.069   3.480   2.304
  621WAT    HW2 1863   2.968   3.370   2.239
  622WAT     OW 1864   3.942   6.537   6.409
  622WAT    HW1 1865   4.038   6.520   6.434
  622WAT    HW2 1866   3.885   6.527   6.491
  623WAT     OW 1867   1.133   3.956   0.883
  623WAT    HW1 1868   1.101   3.972   0.976
  623WAT    HW2 1869   1.070   3.896   0.835
  624WAT     OW 1870   1.903   2.234   5.615
  624WAT    HW1 1871   1.853   2.211   5.699
  624WAT    HW2 1872   1.905   2.154   5.554
  625WAT     OW 1873   3.995   0.588   1.303
  625WAT    HW1 1874   4.029   0.677   1.333
  625WAT    HW2 1875   4.014   0.520   1.373
  626WAT     OW 1876   2.748   6.415   4.166
  626WAT    HW1 1877   2.801   6.500   4.175
  626WAT    HW2 1878   2.756   6.382   4.072
  627WAT     OW 1879   2.817   2.994   3.443
  627WAT    HW1 1880   2.756   2.953   3.375
  627WAT    HW2 1881   2.886   2.927   3.471
  628WAT     OW 1882   5.954   0.065   0.776
  628WAT    HW1 1883   5.937   0.163   0.779
  628WAT    HW2 1884   6.010   0.038   0.854
  629WAT     OW 1885   0.330   5.732   2.439
  629WAT    HW1 1886   0.310   5.829   2.424
  629WAT    HW2 1887   0.374   5.720   2.529
  630WAT     OW 1888   4.582   2.921   1.127
  630WAT    HW1 1889   4.495   2.964   1.151
  630WAT    HW2 1890   4.581   2.826   1.157
  631WAT     OW 1891   4.792   1.415   2.387
  631WAT    HW1 1892   4.712   1.360   2.410
  631WAT    HW2 1893   4.786   1.503   2.434
  632WAT     OW 1894   2.187   6.182   1.726
  632WAT    HW1 1895   2.179   6.200   1.628
  632WAT    HW2 1896   2.269   6.227   1.761
  633WAT     OW 1897   3.533   4.156   3.563
  633WAT    HW1 1898   3.485   4.186   3.481
  633WAT    HW2 1899   3.616   4.108   3.538
  634WAT     OW 1900   3.286   0.417   0.210
  634WAT    HW1 1901   3.239   0.402   0.123
  634WAT    HW2 1902   3.218   0.424   0.283
  635WAT     OW 1903   1.292   1.730   2.015
  635WAT    HW1 1904   1.282   1.829   2.010
  635WAT    HW2 1905   1.253   1.696   2.100
  636WAT     OW 1906   4.428   1.114   1.824
  636WAT    HW1 1907   4.520   1.100   1.788
  636WAT    HW2 1908   4.430   1.186   1.894
  637WAT     OW 1909   0.949   3.800   2.703
  637WAT    HW1 1910   0.940   3.810   2.604
  637WAT    HW2 1911   1.044   3.779   2.727
  638WAT     OW 1912   1.139   1.356   4.236
  638WAT    HW1 1913   1.219   1.409   4.265
  638WAT    HW2 1914   1.086   1.329   4.317
  639WAT     OW 1915   5.489   0.813   2.555
  639WAT    HW1 1916   5.452   0.767   2.474
  639WAT    HW2 1917   5.419   0.816   2.626
  640WAT     OW 1918   3.345   4.925   1.416
  640WAT    HW1 1919   3.340   4.845   1.475
  640WAT    HW2 1920   3.337   4.897   1.320
  641WAT     OW 1921   3.159   0.366   3.039
  641WAT    HW1 1922   3.094   0.356   3.114
  641WAT    HW2 1923   3.185   0.276   3.004
  642WAT     OW 1924   3.908   4.192   1.830
  642WAT    HW1 1925   3.886   4.202   1.734
  642WAT    HW2 1926   3.994   4.240   1.850
  643WAT     OW 1927   5.931   5.172   2.145
  643WAT    HW1 1928   5.921   5.104   2.219
  643WAT    HW2 1929   5.868   5.248   2.161
  644WAT     OW 1930   2.029   0.458   5.168
  644WAT    HW1 1931   2.069   0.528   5.109
  644WAT    HW2 1932   1.990   0.385   5.112
  645WAT     OW 1933   3.899   2.954   0.421
  645WAT    HW1 1934   3.911   2.990   0.513
  645WAT    HW2 1935   3.818   2.895   0.418
  646WAT     OW 1936   2.206   0.658   3.293
  646WAT    HW1 1937   2.260   0.578   3.317
  646WAT    HW2 1938   2.151   0.686   3.372
  647WAT     OW 1939   3.671   3.123   1.982
  647WAT    HW1 1940   3.620   3.149   1.901
  647WAT    HW2 1941   3.618   3.059   2.037
  648WAT     OW 1942   4.099   3.142   1.993
  648WAT    HW1 1943   4.153   3.158   1.911
  648WAT    HW2 1944   4.021   3.084   1.971
  649WAT     OW 1945   2.414   6.598   3.301
  649WAT    HW1 1946   2.387   6.583   3.396
  649WAT    HW2 1947   2.403   6.695   3.279
  650WAT     OW 1948   2.276   6.215   0.148
  650WAT    HW1 1949   2.242   6.120   0.150
  650WAT    HW2 1950   2.373   6.215   0.123
  651WAT     OW 1951   5.266   1.895   3.839
  651WAT    HW1 1952   5.360   1.927   3.850
  651WAT    HW2 1953   5.212   1.967   3.794
  652WAT     OW 1954   2.936   5.189   6.617
  652WAT    HW1 1955   2.946   5.289   6.610
  652WAT    HW2 1956   2.980   5.157   6.701
  653WAT     OW 1957   2.605   5.431   0.189
  653WAT    HW1 1958   2.699   5.397   0.195
  653WAT    HW2 1959   2.559   5.417   0.276
  654WAT     OW 1960   2.615   4.268   4.745
  654WAT    HW1 1961   2.567   4.305   4.824
  654WAT    HW2 1962   2.639   4.173   4.762
  655WAT     OW 1963   0.621   5.645   1.454
  655WAT    HW1 1964   0.553   5.684   1.393
  655WAT    HW2 1965   0.633   5.704   1.533
  656WAT     OW 1966   1.553   4.010   3.879
  656WAT    HW1 1967   1.483   4.058   3.931
  656WAT    HW2 1968   1.602   3.947   3.940
  657WAT     OW 1969   2.860   4.087   4.999
  657WAT    HW1 1970   2.799   4.066   4.923
  657WAT    HW2 1971   2.868   4.008   5.059
  658WAT     OW 1972   3.093   5.025   1.875
  658WAT    HW1 1973   3.175   5.029   1.817
  658WAT    HW2 1974   3.119   5.041   1.970
  659WAT     OW 1975   5.939   4.408   2.790
  659WAT    HW1 1976   5.923   4.478   2.720
  659WAT    HW2 1977   6.015   4.437   2.848
  660WAT     OW 1978   5.734   6.238   4.001
  660WAT    HW1 1979   5.797   6.286   3.939
  660WAT    HW2 1980   5.672   6.180   3.948
  661WAT     OW 1981   2.377   2.710   1.962
  661WAT    HW1 1982   2.347   2.805   1.967
  661WAT    HW2 1983   2.304   2.654   1.924
  662WAT     OW 1984   4.822   0.876   1.782
  662WAT    HW1 1985   4.845   0.827   1.698
  662WAT    HW2 1986   4.767   0.957   1.759
  663WAT     OW 1987   0.434   5.785   1.313
  663WAT    HW1 1988   0.363   5.831   1.367
  663WAT    HW2 1989   0.476   5.850   1.251
  664WAT     OW 1990   5.493   6.462   6.464
  664WAT    HW1 1991   5.455   6.410   6.540
  664WAT    HW2 1992   5.498   6.403   6.383
  665WAT     OW 1993   3.878   1.746   5.002
  665WAT    HW1 1994   3.976   1.764   4.991
  665WAT    HW2 1995   3.829   1.833   5.006
  666WAT     OW 1996   3.381   2.490   5.109
  666WAT    HW1 1997   3.438   2.462   5.187
  666WAT    HW2 1998   3.303   2.543   5.143
  667WAT     OW 1999   1.021   2.044   2.193
  667WAT    HW1 2000   1.099   1.988   2.220
  667WAT    HW2 2001   1.053   2.124   2.142
  668WAT     OW 2002   6.428   2.730   4.977
  668WAT    HW1 2003   6.355   2.688   5.031
  668WAT    HW2 2004   6.430   2.828   4.995
  669WAT     OW 2005   6.240   5.550   6.593
  669WAT    HW1 2006   6.340   5.541   6.591
  669WAT    HW2 2007   6.199   5.459   6.591
  670WAT     OW 2008   5.068   2.084   0.690
  670WAT    HW1 2009   5.012   2.019   0.742
  670WAT    HW2 2010   5.124   2.034   0.624
  671WAT     OW 2011   2.509   5.504   4.495
  671WAT    HW1 2012   2.599   5.547   4.483
  671WAT    HW2 2013   2.468   5.537   4.580
  672WAT     OW 2014   4.071   0.891   0.870
  672WAT    HW1 2015   4.140   0.947   0.824
  672WAT    HW2 2016   4.046   0.933   0.957
  673WAT     OW 2017   0.494   4.200   5.743
  673WAT    HW1 2018   0.560   4.143   5.791
  673WAT    HW2 2019   0.413   4.145   5.720
  674WAT     OW 2020   1.997   2.326   4.033
  674WAT    HW1 2021   2.043   2.329   3.945
  674WAT    HW2 2022   1.926   2.255   4.031
  675WAT     OW 2023   0.256   1.484   0.957
  675WAT    HW1 2024   0.280   1.581   0.945
  675WAT    HW2 2025   0.206   1.473   1.043
  676WAT     OW 2026   3.581   5.177   1.743
  676WAT    HW1 2027   3.589   5.128   1.656
  676WAT    HW2 2028   3.617   5.120   1.816
  677WAT     OW 2029   2.974   6.477   5.152
  677WAT    HW1 2030   2.978   6.413   5.229
  677WAT    HW2 2031   3.056   6.533   5.151
  678WAT     OW 2032   4.220   2.226   6.120
  678WAT    HW1 2033   4.234   2.149   6.182
  678WAT    HW2 2034   4.207   2.191   6.027
  679WAT     OW 2035   3.806   4.898   5.301
  679WAT    HW1 2036   3.735   4.867   5.238
  679WAT    HW2 2037   3.875   4.826   5.311
  680WAT     OW 2038   6.044   2.950   5.889
  680WAT    HW1 2039   5.947   2.974   5.897
  680WAT    HW2 2040   6.069   2.888   5.963
  681WAT     OW 2041   3.269   0.942   5.244
  681WAT    HW1 2042   3.341   0.935   5.312
  681WAT    HW2 2043   3.182   0.962   5.289
  682WAT     OW 2044   1.088   1.484   5.427
  682WAT    HW1 2045   1.171   1.440   5.462
  682WAT    HW2 2046   1.036   1.524   5.503
  683WAT     OW 2047   2.477   6.287   2.481
  683WAT    HW1 2048   2.518   6.378   2.490
  683WAT    HW2 2049   2.377   6.296   2.478
  684WAT     OW 2050   0.260   2.838   6.446
  684WAT    HW1 2051   0.209   2.755   6.471
  684WAT    HW2 2052   0.197   2.915   6.441
  685WAT     OW 2053   0.735   0.026   2.161
  685WAT    HW1 2054   0.675   0.029   2.241
  685WAT    HW2 2055   0.818   0.079   2.178
  686WAT     OW 2056   3.445   4.522   0.355
  686WAT    HW1 2057   3.481   4.454   0.419
  686WAT    HW2 2058   3.383   4.477   0.290
  687WAT     OW 2059   0.714   4.656   6.342
  687WAT    HW1 2060   0.674   4.566   6.323
  687WAT    HW2 2061   0.802   4.664   6.295
  688WAT     OW 2062   0.524   0.723   3.252
  688WAT    HW1 2063   0.610   0.755   3.213
  688WAT    HW2 2064   0.538   0.634   3.296
  689WAT     OW 2065   3.651   6.640   0.808
  689WAT    HW1 2066   3.552   6.625   0.813
  689WAT    HW2 2067   3.698   6.564   0.851
  690WAT     OW 2068   5.315   1.497   2.671
  690WAT    HW1 2069   5.331   1.453   2.582
  690WAT    HW2 2070   5.277   1.430   2.735
  691WAT     OW 2071   3.268   2.850   0.116
  691WAT    HW1 2072   3.228   2.847   0.208
  691WAT    HW2 2073   3.287   2.757   0.086
  692WAT     OW 2074   2.871   1.587   3.481
  692WAT    HW1 2075   2.836   1.538   3.561
  692WAT    HW2 2076   2.971   1.594   3.487
  693WAT     OW 2077   3.156   5.127   1.408
  693WAT    HW1 2078   3.228   5.059   1.426
  693WAT    HW2 2079   3.076   5.105   1.464
  694WAT     OW 2080   1.005   5.204   2.204
  694WAT    HW1 2081   1.099   5.240   2.199
  694WAT    HW2 2082   0.976   5.174   2.113
  695WAT     OW 2083   3.328   5.047   1.749
  695WAT    HW1 2084   3.373   4.960   1.769
  695WAT    HW2 2085   3.397   5.119   1.743
  696WAT     OW 2086   2.834   3.517   2.725
  696WAT    HW1 2087   2.735   3.513   2.741
  696WAT    HW2 2088   2.874   3.586   2.786
  697WAT     OW 2089   4.415   6.136   3.592
  697WAT    HW1 2090   4.441   6.229   3.565
  697WAT    HW2 2091   4.317   6.123   3.579
  698WAT     OW 2092   6.169   1.456   5.315
  698WAT    HW1 2093   6.103   1.511   5.264
  698WAT    HW2 2094   6.199   1.506   5.396
  699WAT     OW 2095   0.685   5.659   4.323
  699WAT    HW1 2096   0.750   5.687   4.395
  699WAT    HW2 2097   0.606   5.720   4.325
  700WAT     OW 2098   6.445   1.003   5.346
  700WAT    HW1 2099   6.354   0.974   5.374
  700WAT    HW2 2100   6.445   1.101   5.326
  701WAT     OW 2101   2.335   2.086   5.033
  701WAT    HW1 2102   2.395   2.039   5.099
  701WAT    HW2 2103   2.382   2.094   4.945
  702WAT     OW 2104   3.022   1.766   1.140
  702WAT    HW1 2105   3.073   1.848   1.168
  702WAT    HW2 2106   2.993   1.715   1.221
  703WAT     OW 2107   4.822   5.894   0.038
  703WAT    HW1 2108   4.834   5.798   0.063
  703WAT    HW2 2109   4.815   5.902  -0.061
  704WAT     OW 2110   1.905   4.264   6.410
  704WAT    HW1 2111   1.827   4.312   6.451
  704WAT    HW2 2112   1.943   4.199   6.476
  705WAT     OW 2113   6.535   6.546   3.672
  705WAT    HW1 2114   6.608   6.593   3.621
  705WAT    HW2 2115   6.554   6.448   3.674
  706WAT     OW 2116   5.316   5.482   5.068
  706WAT    HW1 2117   5.283   5.441   4.983
  706WAT    HW2 2118   5.242   5.482   5.135
  707WAT     OW 2119   5.961   6.345   4.845
  707WAT    HW1 2120   5.870   6.368   4.810
  707WAT    HW2 2121   6.013   6.297   4.774
  708WAT     OW 2122   2.219   4.971   5.110
  708WAT    HW1 2123   2.313   4.942   5.129
  708WAT    HW2 2124   2.156   4.925   5.173
  709WAT     OW 2125   1.845   0.398   5.704
  709WAT    HW1 2126   1.926   0.340   5.700
  709WAT    HW2 2127   1.765   0.343   5.727
  710WAT     OW 2128   1.906   1.430   4.391
  710WAT    HW1 2129   1.982   1.364   4.394
  710WAT    HW2 2130   1.891   1.459   4.296
  711WAT     OW 2131   5.236   1.677   0.480
  711WAT    HW1 2132   5.268   1.679   0.386
  711WAT    HW2 2133   5.308   1.640   0.539
  712WAT     OW 2134   5.891   2.384   0.401
  712WAT    HW1 2135   5.839   2.330   0.467
  712WAT    HW2 2136   5.974   2.334   0.376
  713WAT     OW 2137   2.313   2.013   1.487
  713WAT    HW1 2138   2.372   1.934   1.504
  713WAT    HW2 2139   2.346   2.091   1.540
  714WAT     OW 2140   1.212   0.097   1.772
  714WAT    HW1 2141   1.254   0.188   1.769
  714WAT    HW2 2142   1.271   0.031   1.726
  715WAT     OW 2143   5.964   3.250   6.554
  715WAT    HW1 2144   5.961   3.320   6.626
  715WAT    HW2 2145   5.911   3.280   6.475
  716WAT     OW 2146   1.775   2.723   2.837
  716WAT    HW1 2147   1.865   2.767   2.827
  716WAT    HW2 2148   1.787   2.624   2.849
  717WAT     OW 2149   4.947   5.419   1.945
  717WAT    HW1 2150   4.886   5.496   1.928
  717WAT    HW2 2151   5.032   5.432   1.894
  718WAT     OW 2152   3.480   1.019   0.977
  718WAT    HW1 2153   3.498   0.944   1.040
  718WAT    HW2 2154   3.382   1.022   0.955
  719WAT     OW 2155   6.098   5.116   5.874
  719WAT    HW1 2156   6.142   5.041   5.924
  719WAT    HW2 2157   6.056   5.082   5.791
  720WAT     OW 2158   4.697   4.067   0.740
  720WAT    HW1 2159   4.627   4.139   0.736
  720WAT    HW2 2160   4.747   4.065   0.653
  721WAT     OW 2161   3.360   4.983   0.458
  721WAT    HW1 2162   3.265   4.990   0.428
  721WAT    HW2 2163   3.407   4.913   0.404
  722WAT     OW 2164   1.289   2.630   0.449
  722WAT    HW1 2165   1.310   2.538   0.417
  722WAT    HW2 2166   1.247   2.682   0.375
  723WAT     OW 2167   1.277   3.105   5.657
  723WAT    HW1 2168   1.337   3.042   5.707
  723WAT    HW2 2169   1.186   3.103   5.697
  724WAT     OW 2170   0.052   4.055   5.331
  724WAT    HW1 2171   0.042   4.145   5.373
  724WAT    HW2 2172  -0.017   4.044   5.260
  725WAT     OW 2173   6.573   2.855   5.353
  725WAT    HW1 2174   6.476   2.834   5.366
  725WAT    HW2 2175   6.582   2.941   5.304
  726WAT     OW 2176   5.855   4.507   4.839
  726WAT    HW1 2177   5.855   4.562   4.923
  726WAT    HW2 2178   5.948   4.473   4.823
  727WAT     OW 2179   6.095   3.484   3.730
  727WAT    HW1 2180   6.192   3.471   3.709
  727WAT    HW2 2181   6.048   3.523   3.650
  728WAT     OW 2182   6.547   4.364   4.805
  728WAT    HW1 2183   6.522   4.412   4.721
  728WAT    HW2 2184   6.632   4.401   4.841
  729WAT     OW 2185   1.502   0.322   6.561
  729WAT    HW1 2186   1.448   0.239   6.574
  729WAT    HW2 2187   1.468   0.371   6.480
  730WAT     OW 2188   4.673   1.355   3.134
  730WAT    HW1 2189   4.754   1.374   3.079
  730WAT    HW2 2190   4.597   1.413   3.101
  731WAT     OW 2191   5.769   2.700   1.051
  731WAT    HW1 2192   5.828   2.621   1.065
  731WAT    HW2 2193   5.738   2.702   0.956
  732WAT     OW 2194   4.918   3.415   2.110
  732WAT    HW1 2195   4.919   3.328   2.059
  732WAT    HW2 2196   4.867   3.403   2.195
  733WAT     OW 2197   3.356   1.951   5.947
  733WAT    HW1 2198   3.258   1.930   5.952
  733WAT    HW2 2199   3.391   1.922   5.857
  734WAT     OW 2200   3.801   4.345   3.457
  734WAT    HW1 2201   3.739   4.376   3.529
  734WAT    HW2 2202   3.771   4.383   3.369
  735WAT     OW 2203   2.701   6.238   3.432
  735WAT    HW1 2204   2.796   6.210   3.417
  735WAT    HW2 2205   2.671   6.295   3.356
  736WAT     OW 2206   4.550   0.212   2.459
  736WAT    HW1 2207   4.551   0.246   2.552
  736WAT    HW2 2208   4.610   0.132   2.452
  737WAT     OW 2209   1.230   3.757   2.075
  737WAT    HW1 2210   1.268   3.849   2.076
  737WAT    HW2 2211   1.244   3.714   2.164
  738WAT     OW 2212   4.219   5.049   0.777
  738WAT    HW1 2213   4.199   5.000   0.693
  738WAT    HW2 2214   4.155   5.021   0.848
  739WAT     OW 2215   5.221   5.718   1.453
  739WAT    HW1 2216   5.144   5.778   1.431
  739WAT    HW2 2217   5.285   5.767   1.513
  740WAT     OW 2218   0.024   1.076   3.503
  740WAT    HW1 2219   0.099   1.132   3.537
  740WAT    HW2 2220  -0.056   1.134   3.487
  741WAT     OW 2221   5.964   6.489   6.479
  741WAT    HW1 2222   5.985   6.521   6.387
  741WAT    HW2 2223   5.919   6.400   6.475
  742WAT     OW 2224   6.360   5.476   5.692
  742WAT    HW1 2225   6.349   5.491   5.594
  742WAT    HW2 2226   6.347   5.379   5.713
  743WAT     OW 2227   1.641   1.974   3.859
  743WAT    HW1 2228   1.689   1.888   3.878
  743WAT    HW2 2229   1.610   1.975   3.764
  744WAT     OW 2230   1.958   3.396   5.189
  744WAT    HW1 2231   1.998   3.341   5.262
  744WAT    HW2 2232   1.999   3.488   5.190
  745WAT     OW 2233   0.071   0.864   3.905
  745WAT    HW1 2234   0.063   0.764   3.905
  745WAT    HW2 2235   0.151   0.891   3.958
  746WAT     OW 2236   2.869   0.776   2.026
  746WAT    HW1 2237   2.839   0.702   1.966
  746WAT    HW2 2238   2.869   0.862   1.974
  747WAT     OW 2239   6.628   3.100   5.714
  747WAT    HW1 2240   6.641   3.003   5.696
  747WAT    HW2 2241   6.548   3.133   5.664
  748WAT     OW 2242   3.957   6.334   4.639
  748WAT    HW1 2243   3.996   6.246   4.667
  748WAT    HW2 2244   3.876   6.319   4.583
  749WAT     OW 2245   1.200   0.929   5.720
  749WAT    HW1 2246   1.300   0.933   5.720
  749WAT    HW2 2247   1.170   0.855   5.780
  750WAT     OW 2248   0.288   2.621   5.065
  750WAT    HW1 2249   0.207   2.571   5.095
  750WAT    HW2 2250   0.286   2.630   4.966
  751WAT     OW 2251   3.293   5.737   5.716
  751WAT    HW1 2252   3.355   5.801   5.670
  751WAT    HW2 2253   3.248   5.680   5.647
  752WAT     OW 2254   5.952   0.547   4.463
  752WAT    HW1 2255   6.017   0.553   4.539
  752WAT    HW2 2256   5.859   0.541   4.499
  753WAT     OW 2257   5.032   2.599   2.588
  753WAT    HW1 2258   4.980   2.684   2.602
  753WAT    HW2 2259   5.012   2.563   2.496
  754WAT     OW 2260   5.298   3.271   2.868
  754WAT    HW1 2261   5.368   3.336   2.897
  754WAT    HW2 2262   5.209   3.317   2.865
  755WAT     OW 2263   6.269   4.197   3.925
  755WAT    HW1 2264   6.314   4.282   3.953
  755WAT    HW2 2265   6.328   4.149   3.860
  756WAT     OW 2266   5.163   6.094   5.269
  756WAT    HW1 2267   5.236   6.056   5.326
  756WAT    HW2 2268   5.080   6.105   5.324
  757WAT     OW 2269   0.458   0.063   4.688
  757WAT    HW1 2270   0.384   0.066   4.621
  757WAT    HW2 2271   0.422   0.027   4.775
  758WAT     OW 2272   1.390   0.700   4.260
  758WAT    HW1 2273   1.421   0.785   4.303
  758WAT    HW2 2274   1.439   0.685   4.175
  759WAT     OW 2275   4.161   3.938   6.212
  759WAT    HW1 2276   4.256   3.943   6.182
  759WAT    HW2 2277   4.157   3.945   6.312
  760WAT     OW 2278   4.128   6.050   1.014
  760WAT    HW1 2279   4.163   6.083   1.102
  760WAT    HW2 2280   4.202   6.003   0.965
  761WAT     OW 2281   0.855   2.087   6.340
  761WAT    HW1 2282   0.861   2.181   6.308
  761WAT    HW2 2283   0.792   2.082   6.418
  762WAT     OW 2284   3.686   0.277   4.887
  762WAT    HW1 2285   3.753   0.296   4.959
  762WAT    HW2 2286   3.713   0.195   4.836
  763WAT     OW 2287   4.890   1.391   2.963
  763WAT    HW1 2288   4.838   1.384   2.878
  763WAT    HW2 2289   4.944   1.307   2.975
  764WAT     OW 2290   1.409   0.346   2.229
  764WAT    HW1 2291   1.343   0.416   2.200
  764WAT    HW2 2292   1.467   0.322   2.151
  765WAT     OW 2293   6.030   6.498   1.447
  765WAT    HW1 2294   6.110   6.443   1.471
  765WAT    HW2 2295   5.977   6.451   1.377
  766WAT     OW 2296   3.925   0.205   0.563
  766WAT    HW1 2297   3.989   0.132   0.587
  766WAT    HW2 2298   3.924   0.274   0.636
  767WAT     OW 2299   2.475   1.650   3.888
  767WAT    HW1 2300   2.392   1.704   3.902
  767WAT    HW2 2301   2.517   1.675   3.801
  768WAT     OW 2302   5.178   5.968   6.335
  768WAT    HW1 2303   5.245   5.934   6.269
  768WAT    HW2 2304   5.196   5.930   6.425
  769WAT     OW 2305   4.879   5.068   3.076
  769WAT    HW1 2306   4.979   5.077   3.079
  769WAT    HW2 2307   4.845   5.105   2.990
  770WAT     OW 2308   3.824   0.587   6.647
  770WAT    HW1 2309   3.829   0.685   6.630
  770WAT    HW2 2310   3.756   0.569   6.718
  771WAT     OW 2311   3.567   4.712   2.859
  771WAT    HW1 2312   3.481   4.751   2.825
  771WAT    HW2 2313   3.555   4.614   2.874
  772WAT     OW 2314   1.333   2.439   4.868
  772WAT    HW1 2315   1.323   2.536   4.890
  772WAT    HW2 2316   1.428   2.410   4.884
  773WAT     OW 2317   1.857   0.551   5.933
  773WAT    HW1 2318   1.853   0.506   5.843
  773WAT    HW2 2319   1.942   0.602   5.941
  774WAT     OW 2320   2.592   5.989   6.556
  774WAT    HW1 2321   2.677   5.952   6.517
  774WAT    HW2 2322   2.604   6.087   6.573
  775WAT     OW 2323   0.600   1.785   5.464
  775WAT    HW1 2324   0.616   1.872   5.419
  775WAT    HW2 2325   0.652   1.713   5.418
  776WAT     OW 2326   3.736   2.584   1.760
  776WAT    HW1 2327   3.759   2.518   1.831
  776WAT    HW2 2328   3.637   2.596   1.756
  777WAT     OW 2329   5.982   2.042   2.182
  777WAT    HW1 2330   6.023   2.077   2.265
  777WAT    HW2 2331   6.021   1.952   2.161
  778WAT     OW 2332   4.800   5.054   2.591
  778WAT    HW1 2333   4.781   4.956   2.595
  778WAT    HW2 2334   4.775   5.089   2.501
  779WAT     OW 2335   5.175   3.794   5.268
  779WAT    HW1 2336   5.205   3.777   5.362
  779WAT    HW2 2337   5.077   3.778   5.262
  780WAT     OW 2338   3.926   5.891   2.994
  780WAT    HW1 2339   3.879   5.951   2.930
  780WAT    HW2 2340   4.021   5.922   3.005
  781WAT     OW 2341   1.613   6.207   0.694
  781WAT    HW1 2342   1.562   6.126   0.665
  781WAT    HW2 2343   1.603   6.219   0.792
  782WAT     OW 2344   2.277   6.603   1.259
  782WAT    HW1 2345   2.325   6.690   1.266
  782WAT    HW2 2346   2.189   6.616   1.214
  783WAT     OW 2347   1.467   6.092   6.499
  783WAT    HW1 2348   1.449   6.126   6.406
  783WAT    HW2 2349   1.414   6.009   6.515
  784WAT     OW 2350   2.354   4.631   5.185
  784WAT    HW1 2351   2.408   4.714   5.176
  784WAT    HW2 2352   2.292   4.622   5.107
  785WAT     OW 2353   4.333   5.859   1.300
  785WAT    HW1 2354   4.405   5.846   1.231
  785WAT    HW2 2355   4.375   5.864   1.391
  786WAT     OW 2356   1.070   1.534   5.874
  786WAT    HW1 2357   1.164   1.553   5.905
  786WAT    HW2 2358   1.008   1.536   5.953
  787WAT     OW 2359   3.769   2.969   6.073
  787WAT    HW1 2360   3.739   2.928   6.160
  787WAT    HW2 2361   3.722   3.057   6.061
  788WAT     OW 2362   1.003   1.797   4.828
  788WAT    HW1 2363   1.068   1.811   4.753
  788WAT    HW2 2364   0.981   1.885   4.869
  789WAT     OW 2365   5.092   5.637   4.846
  789WAT    HW1 2366   5.004   5.643   4.892
  789WAT    HW2 2367   5.156   5.702   4.887
  790WAT     OW 2368   5.216   5.311   2.798
  790WAT    HW1 2369   5.189   5.317   2.894
  790WAT    HW2 2370   5.147   5.260   2.746
  791WAT     OW 2371   0.992   2.455   1.154
  791WAT    HW1 2372   0.933   2.519   1.105
  791WAT    HW2 2373   1.087   2.471   1.128
  792WAT     OW 2374   2.224   5.922   1.435
  792WAT    HW1 2375   2.191   6.016   1.446
  792WAT    HW2 2376   2.291   5.918   1.361
  793WAT     OW 2377   0.443   5.792   4.284
  793WAT    HW1 2378   0.360   5.847   4.278
  793WAT    HW2 2379   0.480   5.777   4.192
  794WAT     OW 2380   0.074   3.498   4.397
  794WAT    HW1 2381  -0.024   3.509   4.379
  794WAT    HW2 2382   0.091   3.406   4.431
  795WAT     OW 2383   5.927   0.716   0.054
  795WAT    HW1 2384   5.827   0.728   0.055
  795WAT    HW2 2385   5.952   0.646   0.121
  796WAT     OW 2386   0.462   5.481   6.403
  796WAT    HW1 2387   0.491   5.511   6.312
  796WAT    HW2 2388   0.525   5.411   6.437
  797WAT     OW 2389   6.295   1.487   0.716
  797WAT    HW1 2390   6.358   1.564   0.715
  797WAT    HW2 2391   6.335   1.410   0.668
  798WAT     OW 2392   3.014   0.021   2.126
  798WAT    HW1 2393   3.037  -0.076   2.121
  798WAT    HW2 2394   3.078   0.073   2.070
  799WAT     OW 2395   3.532   3.204   1.762
  799WAT    HW1 2396   3.436   3.193   1.789
  799WAT    HW2 2397   3.545   3.294   1.719
  800WAT     OW 2398   5.353   5.137   3.965
  800WAT    HW1 2399   5.284   5.193   3.918
  800WAT    HW2 2400   5.338   5.041   3.944
  801WAT     OW 2401   3.020   5.168   5.596
  801WAT    HW1 2402   3.016   5.074   5.628
  801WAT    HW2 2403   3.081   5.221   5.654
  802WAT     OW 2404   1.783   3.165   2.115
  802WAT    HW1 2405   1.800   3.228   2.039
  802WAT    HW2 2406   1.871   3.138   2.155
  803WAT     OW 2407   2.476   4.802   0.951
  803WAT    HW1 2408   2.520   4.892   0.956
  803WAT    HW2 2409   2.538   4.732   0.988
  804WAT     OW 2410   4.517   5.524   2.032
  804WAT    HW1 2411   4.528   5.432   1.995
  804WAT    HW2 2412   4.425   5.557   2.012
  805WAT     OW 2413   2.625   1.734   0.111
  805WAT    HW1 2414   2.645   1.651   0.162
  805WAT    HW2 2415   2.555   1.715   0.042
  806WAT     OW 2416   3.093   4.297   5.285
  806WAT    HW1 2417   3.152   4.221   5.260
  806WAT    HW2 2418   3.111   4.324   5.380
  807WAT     OW 2419   3.961   3.151   2.428
  807WAT    HW1 2420   4.027   3.180   2.497
  807WAT    HW2 2421   3.939   3.228   2.369
  808WAT     OW 2422   0.573   0.199   6.095
  808WAT    HW1 2423   0.521   0.277   6.062
  808WAT    HW2 2424   0.642   0.229   6.160
  809WAT     OW 2425   5.747   5.952   1.637
  809WAT    HW1 2426   5.727   5.856   1.656
  809WAT    HW2 2427   5.676   5.989   1.577
  810WAT     OW 2428   2.363   1.422   2.896
  810WAT    HW1 2429   2.308   1.506   2.901
  810WAT    HW2 2430   2.303   1.342   2.909
  811WAT     OW 2431   5.690   6.340   4.445
  811WAT    HW1 2432   5.715   6.423   4.395
  811WAT    HW2 2433   5.593   6.342   4.467
  812WAT     OW 2434   5.087   2.394   0.954
  812WAT    HW1 2435   5.067   2.469   0.891
  812WAT    HW2 2436   5.148   2.328   0.910
  813WAT     OW 2437   5.015   6.485   6.477
  813WAT    HW1 2438   4.970   6.547   6.413
  813WAT    HW2 2439   5.050   6.405   6.428
  814WAT     OW 2440   3.151   6.526   0.695
  814WAT    HW1 2441   3.192   6.449   0.646
  814WAT    HW2 2442   3.138   6.603   0.633
  815WAT     OW 2443   5.052   3.682   6.047
  815WAT    HW1 2444   5.120   3.610   6.066
  815WAT    HW2 2445   5.013   3.713   6.133
  816WAT     OW 2446   4.218   0.865   2.667
  816WAT    HW1 2447   4.233   0.889   2.571
  816WAT    HW2 2448   4.120   0.855   2.684
  817WAT     OW 2449   2.474   0.108   2.042
  817WAT    HW1 2450   2.521   0.040   2.099
  817WAT    HW2 2451   2.516   0.110   1.951
  818WAT     OW 2452   5.649   4.652   1.419
  818WAT    HW1 2453   5.576   4.640   1.352
  818WAT    HW2 2454   5.612   4.645   1.511
  819WAT     OW 2455   6.494   3.529   6.145
  819WAT    HW1 2456   6.431   3.461   6.184
  819WAT    HW2 2457   6.586   3.512   6.179
  820WAT     OW 2458   6.419   1.798   5.604
  820WAT    HW1 2459   6.445   1.891   5.579
  820WAT    HW2 2460   6.492   1.757   5.659
  821WAT     OW 2461   0.750   0.710   5.655
  821WAT    HW1 2462   0.798   0.755   5.580
  821WAT    HW2 2463   0.681   0.648   5.619
  822WAT     OW 2464   3.818   2.591   3.492
  822WAT    HW1 2465   3.757   2.612   3.568
  822WAT    HW2 2466   3.782   2.631   3.408
  823WAT     OW 2467   2.601   6.181   0.629
  823WAT    HW1 2468   2.591   6.256   0.693
  823WAT    HW2 2469   2.511   6.153   0.595
  824WAT     OW 2470   2.734   2.659   4.080
  824WAT    HW1 2471   2.692   2.585   4.028
  824WAT    HW2 2472   2.743   2.740   4.021
  825WAT     OW 2473   0.191   0.204   1.180
  825WAT    HW1 2474   0.271   0.257   1.153
  825WAT    HW2 2475   0.184   0.122   1.123
  826WAT     OW 2476   5.757   0.836   2.463
  826WAT    HW1 2477   5.808   0.828   2.549
  826WAT    HW2 2478   5.659   0.826   2.482
  827WAT     OW 2479   1.143   1.589   0.991
  827WAT    HW1 2480   1.118   1.499   1.027
  827WAT    HW2 2481   1.166   1.650   1.067
  828WAT     OW 2482   3.653   3.020   5.090
  828WAT    HW1 2483   3.712   3.062   5.159
  828WAT    HW2 2484   3.710   2.987   5.014
  829WAT     OW 2485   2.086   0.593   5.406
  829WAT    HW1 2486   2.075   0.527   5.331
  829WAT    HW2 2487   2.176   0.579   5.448
  830WAT     OW 2488   2.037   6.378   4.823
  830WAT    HW1 2489   2.024   6.445   4.895
  830WAT    HW2 2490   1.977   6.399   4.746
  831WAT     OW 2491   0.879   1.087   5.467
  831WAT    HW1 2492   0.789   1.119   5.498
  831WAT    HW2 2493   0.874   0.989   5.447
  832WAT     OW 2494   1.965   2.844   0.003
  832WAT    HW1 2495   1.868   2.853   0.027
  832WAT    HW2 2496   1.999   2.930  -0.034
  833WAT     OW 2497   3.893   5.867   1.365
  833WAT    HW1 2498   3.891   5.768   1.375
  833WAT    HW2 2499   3.929   5.909   1.448
  834WAT     OW 2500   1.825   2.491   1.628
  834WAT    HW1 2501   1.913   2.455   1.597
  834WAT    HW2 2502   1.752   2.430   1.596
  835WAT     OW 2503   0.985   1.544   2.922
  835WAT    HW1 2504   0.909   1.483   2.944
  835WAT    HW2 2505   1.069   1.490   2.916
  836WAT     OW 2506   4.915   6.034   6.296
  836WAT    HW1 2507   5.009   6.004   6.312
  836WAT    HW2 2508   4.902   6.053   6.199
  837WAT     OW 2509   5.764   4.569   0.997
  837WAT    HW1 2510   5.715   4.651   1.025
  837WAT    HW2 2511   5.817   4.533   1.074
  838WAT     OW 2512   1.449   5.173   3.322
  838WAT    HW1 2513   1.509   5.253   3.326
  838WAT    HW2 2514   1.408   5.167   3.231
  839WAT     OW 2515   0.336   5.167   2.219
  839WAT    HW1 2516   0.342   5.067   2.215
  839WAT    HW2 2517   0.338   5.204   2.127
  840WAT     OW 2518   0.664   5.644   5.139
  840WAT    HW1 2519   0.692   5.548   5.148
  840WAT    HW2 2520   0.646   5.665   5.043
  841WAT     OW 2521   1.389   3.350   2.583
  841WAT    HW1 2522   1.378   3.262   2.535
  841WAT    HW2 2523   1.485   3.377   2.580
  842WAT     OW 2524   2.958   3.839   6.272
  842WAT    HW1 2525   2.962   3.938   6.284
  842WAT    HW2 2526   3.048   3.799   6.290
  843WAT     OW 2527   5.040   2.070   2.132
  843WAT    HW1 2528   5.073   2.072   2.037
  843WAT    HW2 2529   4.942   2.053   2.133
  844WAT     OW 2530   2.116   5.176   3.796
  844WAT    HW1 2531   2.203   5.160   3.748
  844WAT    HW2 2532   2.134   5.196   3.892
  845WAT     OW 2533   5.323   5.194   0.852
  845WAT    HW1 2534   5.292   5.099   0.863
  845WAT    HW2 2535   5.306   5.244   0.937
  846WAT     OW 2536   4.605   6.381   5.129
  846WAT    HW1 2537   4.580   6.285   5.118
  846WAT    HW2 2538   4.542   6.425   5.193
  847WAT     OW 2539   1.456   4.270   6.537
  847WAT    HW1 2540   1.431   4.250   6.443
  847WAT    HW2 2541   1.484   4.185   6.583
  848WAT     OW 2542   4.304   1.554   5.392
  848WAT    HW1 2543   4.362   1.560   5.473
  848WAT    HW2 2544   4.256   1.466   5.392
  849WAT     OW 2545   0.600   6.214   4.291
  849WAT    HW1 2546   0.518   6.230   4.345
  849WAT    HW2 2547   0.681   6.243   4.343
  850WAT     OW 2548   5.863   0.995   0.715
  850WAT    HW1 2549   5.806   1.064   0.758
  850WAT    HW2 2550   5.945   0.978   0.770
  851WAT     OW 2551   5.077   5.975   5.895
  851WAT    HW1 2552   5.102   5.936   5.805
  851WAT    HW2 2553   5.111   6.068   5.901
  852WAT     OW 2554   4.784   3.072   5.074
  852WAT    HW1 2555   4.872   3.047   5.116
  852WAT    HW2 2556   4.801   3.124   4.990
  853WAT     OW 2557   0.099   0.835   2.094
  853WAT    HW1 2558   0.137   0.914   2.142
  853WAT    HW2 2559   0.157   0.755   2.111
  854WAT     OW 2560   3.318   6.151   0.097
  854WAT    HW1 2561   3.333   6.220   0.026
  854WAT    HW2 2562   3.398   6.091   0.102
  855WAT     OW 2563   5.909   6.651   0.250
  855WAT    HW1 2564   5.953   6.653   0.161
  855WAT    HW2 2565   5.961   6.592   0.312
  856WAT     OW 2566   0.917   1.056   1.894
  856WAT    HW1 2567   0.907   1.118   1.816
  856WAT    HW2 2568   0.846   0.985   1.889
  857WAT     OW 2569   2.459   5.716   3.632
  857WAT    HW1 2570   2.507   5.801   3.653
  857WAT    HW2 2571   2.408   5.686   3.712
  858WAT     OW 2572   2.497   2.325   3.637
  858WAT    HW1 2573   2.592   2.324   3.666
  858WAT    HW2 2574   2.488   2.279   3.549
  859WAT     OW 2575   6.167   2.462   1.783
  859WAT    HW1 2576   6.243   2.399   1.770
  859WAT    HW2 2577   6.104   2.454   1.705
  860WAT     OW 2578   5.458   1.941   3.222
  860WAT    HW1 2579   5.503   1.852   3.218
  860WAT    HW2 2580   5.359   1.929   3.226
  861WAT     OW 2581   2.361   6.493   6.490
  861WAT    HW1 2582   2.421   6.449   6.424
  861WAT    HW2 2583   2.266   6.471   6.469
  862WAT     OW 2584   3.795   5.065   0.244
  862WAT    HW1 2585   3.869   5.116   0.200
  862WAT    HW2 2586   3.713   5.121   0.248
  863WAT     OW 2587   5.003   4.847   4.181
  863WAT    HW1 2588   4.947   4.795   4.245
  863WAT    HW2 2589   5.057   4.783   4.125
  864WAT     OW 2590   5.307   1.159   6.652
  864WAT    HW1 2591   5.274   1.247   6.686
  864WAT    HW2 2592   5.271   1.085   6.710
  865WAT     OW 2593   3.880   3.632   0.447
  865WAT    HW1 2594   3.903   3.535   0.452
  865WAT    HW2 2595   3.942   3.684   0.505
  866WAT     OW 2596   0.340   5.620   5.984
  866WAT    HW1 2597   0.265   5.578   6.035
  866WAT    HW2 2598   0.321   5.717   5.971
  867WAT     OW 2599   2.119   5.588   4.342
  867WAT    HW1 2600   2.217   5.588   4.320
  867WAT    HW2 2601   2.067   5.563   4.261
  868WAT     OW 2602   6.298   6.419   2.474
  868WAT    HW1 2603   6.367   6.347   2.466
  868WAT    HW2 2604   6.343   6.504   2.502
  869WAT     OW 2605   6.674   5.853   5.505
  869WAT    HW1 2606   6.731   5.895   5.435
  869WAT    HW2 2607   6.604   5.796   5.462
  870WAT     OW 2608   3.210   1.397   6.266
  870WAT    HW1 2609   3.173   1.324   6.208
  870WAT    HW2 2610   3.248   1.469   6.208
  871WAT     OW 2611   2.362   1.260   1.361
  871WAT    HW1 2612   2.278   1.236   1.312
  871WAT    HW2 2613   2.340   1.274   1.458
  872WAT     OW 2614   0.822   2.815   4.552
  872WAT    HW1 2615   0.893   2.885   4.544
  872WAT    HW2 2616   0.744   2.853   4.602
  873WAT     OW 2617   1.897   0.536   0.630
  873WAT    HW1 2618   1.963   0.479   0.580
  873WAT    HW2 2619   1.848   0.595   0.565
  874WAT     OW 2620   0.863   5.237   3.699
  874WAT    HW1 2621   0.827   5.283   3.780
  874WAT    HW2 2622   0.818   5.273   3.617
  875WAT     OW 2623   0.125   4.100   0.583
  875WAT    HW1 2624   0.211   4.147   0.601
  875WAT    HW2 2625   0.068   4.100   0.665
  876WAT     OW 2626   2.313   2.975   2.003
  876WAT    HW1 2627   2.333   3.017   2.091
  876WAT    HW2 2628   2.378   3.007   1.935
  877WAT     OW 2629   5.212   1.831   3.280
  877WAT    HW1 2630   5.192   1.734   3.267
  877WAT    HW2 2631   5.208   1.853   3.377
  878WAT     OW 2632   1.942   6.035   5.776
  878WAT    HW1 2633   1.990   6.118   5.746
  878WAT    HW2 2634   1.873   6.060   5.844
  879WAT     OW 2635   3.579   5.027   1.518
  879WAT    HW1 2636   3.493   4.989   1.482
  879WAT    HW2 2637   3.639   4.952   1.545
  880WAT     OW 2638   0.317   6.149   6.058
  880WAT    HW1 2639   0.348   6.245   6.055
  880WAT    HW2 2640   0.219   6.146   6.041
  881WAT     OW 2641   6.454   6.351   0.560
  881WAT    HW1 2642   6.495   6.380   0.646
  881WAT    HW2 2643   6.368   6.302   0.579
  882WAT     OW 2644   1.658   5.621   1.419
  882WAT    HW1 2645   1.672   5.523   1.427
  882WAT    HW2 2646   1.722   5.669   1.479
  883WAT     OW 2647   1.549   4.595   5.366
  883WAT    HW1 2648   1.624   4.536   5.396
  883WAT    HW2 2649   1.496   4.548   5.296
  884WAT     OW 2650   4.412   3.167   0.851
  884WAT    HW1 2651   4.407   3.246   0.790
  884WAT    HW2 2652   4.379   3.193   0.941
  885WAT     OW 2653   4.989   3.085   2.666
  885WAT    HW1 2654   5.082   3.114   2.646
  885WAT    HW2 2655   4.935   3.163   2.696
  886WAT     OW 2656   2.893   1.132   6.444
  886WAT    HW1 2657   2.877   1.198   6.371
  886WAT    HW2 2658   2.933   1.178   6.523
  887WAT     OW 2659   5.696   4.455   2.929
  887WAT    HW1 2660   5.695   4.400   3.012
  887WAT    HW2 2661   5.780   4.437   2.877
  888WAT     OW 2662   3.055   2.478   1.782
  888WAT    HW1 2663   3.099   2.535   1.852
  888WAT    HW2 2664   2.966   2.517   1.758
  889WAT     OW 2665   2.673   4.268   1.303
  889WAT    HW1 2666   2.593   4.240   1.251
  889WAT    HW2 2667   2.683   4.210   1.384
  890WAT     OW 2668   0.619   5.022   5.710
  890WAT    HW1 2669   0.625   5.050   5.614
  890WAT    HW2 2670   0.711   5.011   5.748
  891WAT     OW 2671   6.144   2.598   1.019
  891WAT    HW1 2672   6.122   2.676   0.960
  891WAT    HW2 2673   6.061   2.563   1.061
  892WAT     OW 2674   0.488   5.674   6.590
  892WAT    HW1 2675   0.480   5.607   6.516
  892WAT    HW2 2676   0.542   5.635   6.665
  893WAT     OW 2677   3.258   3.345   3.990
  893WAT    HW1 2678   3.322   3.317   3.918
  893WAT    HW2 2679   3.277   3.439   4.018
  894WAT     OW 2680   1.881   3.908   4.216
  894WAT    HW1 2681   1.898   3.864   4.304
  894WAT    HW2 2682   1.783   3.907   4.197
  895WAT     OW 2683   3.381   1.846   2.699
  895WAT    HW1 2684   3.324   1.926   2.681
  895WAT    HW2 2685   3.411   1.847   2.794
  896WAT     OW 2686   0.446   4.770   3.396
  896WAT    HW1 2687   0.377   4.727   3.454
  896WAT    HW2 2688   0.502   4.833   3.450
  897WAT     OW 2689   1.643   4.806   2.655
  897WAT    HW1 2690   1.606   4.718   2.623
  897WAT    HW2 2691   1.720   4.790   2.716
  898WAT     OW 2692   0.630   0.892   0.915
  898WAT    HW1 2693   0.639   0.853   0.823
  898WAT    HW2 2694   0.632   0.818   0.982
  899WAT     OW 2695   6.522   3.869   5.802
  899WAT    HW1 2696   6.491   3.821   5.884
  899WAT    HW2 2697   6.538   3.965   5.823
  900WAT     OW 2698   3.433   6.362   5.453
  900WAT    HW1 2699   3.383   6.361   5.367
  900WAT    HW2 2700   3.419   6.276   5.501
  901WAT     OW 2701   3.639   3.601   5.568
  901WAT    HW1 2702   3.602   3.622   5.477
  901WAT    HW2 2703   3.665   3.504   5.571
  902WAT     OW 2704   3.730   4.705   4.370
  902WAT    HW1 2705   3.701   4.666   4.282
  902WAT    HW2 2706   3.798   4.645   4.412
  903WAT     OW 2707   2.610   5.413   6.593
  903WAT    HW1 2708   2.599   5.400   6.692
  903WAT    HW2 2709   2.686   5.476   6.576
  904WAT     OW 2710   1.185   1.282   2.095
  904WAT    HW1 2711   1.152   1.236   2.178
  904WAT    HW2 2712   1.109   1.327   2.050
  905WAT     OW 2713   0.055   5.787   6.473
  905WAT    HW1 2714   0.045   5.846   6.393
  905WAT    HW2 2715  -0.019   5.806   6.538
  906WAT     OW 2716   2.024   1.892   6.443
  906WAT    HW1 2717   1.965   1.942   6.380
  906WAT    HW2 2718   2.119   1.922   6.429
  907WAT     OW 2719   5.336   5.275   0.455
  907WAT    HW1 2720   5.406   5.344   0.439
  907WAT    HW2 2721   5.379   5.186   0.470
  908WAT     OW 2722   5.369   1.647   4.417
  908WAT    HW1 2723   5.375   1.566   4.358
  908WAT    HW2 2724   5.433   1.639   4.493
  909WAT     OW 2725   2.838   4.061   4.553
  909WAT    HW1 2726   2.774   4.051   4.477
  909WAT    HW2 2727   2.882   4.151   4.548
  910WAT     OW 2728   1.872   4.162   4.755
  910WAT    HW1 2729   1.902   4.109   4.834
  910WAT    HW2 2730   1.894   4.112   4.671
  911WAT     OW 2731   5.621   0.292   3.752
  911WAT    HW1 2732   5.567   0.376   3.741
  911WAT    HW2 2733   5.718   0.316   3.752
  912WAT     OW 2734   0.520   2.611   5.406
  912WAT    HW1 2735   0.605   2.636   5.358
  912WAT    HW2 2736   0.491   2.520   5.376
  913WAT     OW 2737   4.546   2.607   6.481
  913WAT    HW1 2738   4.625   2.564   6.526
  913WAT    HW2 2739   4.528   2.560   6.394
  914WAT     OW 2740   6.486   0.821   0.287
  914WAT    HW1 2741   6.408   0.824   0.225
  914WAT    HW2 2742   6.496   0.909   0.334
  915WAT     OW 2743   4.902   4.258   0.072
  915WAT    HW1 2744   4.898   4.176   0.129
  915WAT    HW2 2745   4.809   4.284   0.044
  916WAT     OW 2746   5.054   4.703   1.870
  916WAT    HW1 2747   5.061   4.605   1.850
  916WAT    HW2 2748   5.108   4.754   1.804
  917WAT     OW 2749   3.437   6.532   5.927
  917WAT    HW1 2750   3.423   6.439   5.895
  917WAT    HW2 2751   3.387   6.546   6.012
  918WAT     OW 2752   2.370   6.611   5.515
  918WAT    HW1 2753   2.341   6.640   5.423
  918WAT    HW2 2754   2.466   6.582   5.512
  919WAT     OW 2755   3.005   1.280   6.662
  919WAT    HW1 2756   3.089   1.328   6.637
  919WAT    HW2 2757   2.948   1.341   6.718
  920WAT     OW 2758   4.212   2.764   2.040
  920WAT    HW1 2759   4.216   2.757   1.941
  920WAT    HW2 2760   4.118   2.749   2.071
  921WAT     OW 2761   6.593   5.275   6.351
  921WAT    HW1 2762   6.546   5.252   6.436
  921WAT    HW2 2763   6.620   5.371   6.353
  922WAT     OW 2764   1.464   4.553   2.862
  922WAT    HW1 2765   1.559   4.536   2.889
  922WAT    HW2 2766   1.459   4.568   2.763
  923WAT     OW 2767   1.473   1.667   1.330
  923WAT    HW1 2768   1.538   1.731   1.370
  923WAT    HW2 2769   1.381   1.687   1.364
  924WAT     OW 2770   2.734   0.532   4.762
  924WAT    HW1 2771   2.733   0.441   4.720
  924WAT    HW2 2772   2.657   0.540   4.826
  925WAT     OW 2773   2.914   4.784   1.252
  925WAT    HW1 2774   2.880   4.809   1.343
  925WAT    HW2 2775   2.961   4.696   1.257
  926WAT     OW 2776   1.933   3.498   2.450
  926WAT    HW1 2777   1.895   3.531   2.536
  926WAT    HW2 2778   1.859   3.489   2.383
  927WAT     OW 2779   3.665   0.607   4.417
  927WAT    HW1 2780   3.597   0.605   4.490
  927WAT    HW2 2781   3.692   0.513   4.393
  928WAT     OW 2782   1.698   1.799   5.006
  928WAT    HW1 2783   1.671   1.878   5.061
  928WAT    HW2 2784   1.616   1.751   4.974
  929WAT     OW 2785   0.511   4.694   5.780
  929WAT    HW1 2786   0.506   4.607   5.730
  929WAT    HW2 2787   0.488   4.769   5.718
  930WAT     OW 2788   0.460   3.396   4.072
  930WAT    HW1 2789   0.544   3.425   4.025
  930WAT    HW2 2790   0.394   3.363   4.004
  931WAT     OW 2791   4.279   2.339   4.045
  931WAT    HW1 2792   4.305   2.427   4.084
  931WAT    HW2 2793   4.361   2.284   4.029
  932WAT     OW 2794   5.968   5.725   2.723
  932WAT    HW1 2795   5.934   5.632   2.735
  932WAT    HW2 2796   5.893   5.790   2.737
  933WAT     OW 2797   5.527   3.787   3.556
  933WAT    HW1 2798   5.604   3.851   3.548
  933WAT    HW2 2799   5.550   3.701   3.512
  934WAT     OW 2800   6.537   4.103   4.888
  934WAT    HW1 2801   6.542   4.201   4.868
  934WAT    HW2 2802   6.482   4.057   4.819
  935WAT     OW 2803   3.768   4.079   5.515
  935WAT    HW1 2804   3.672   4.105   5.513
  935WAT    HW2 2805   3.777   3.986   5.551
  936WAT     OW 2806   2.470   1.978   4.264
  936WAT    HW1 2807   2.464   2.057   4.203
  936WAT    HW2 2808   2.559   1.934   4.253
  937WAT     OW 2809   1.206   5.550   5.020
  937WAT    HW1 2810   1.131   5.561   4.955
  937WAT    HW2 2811   1.239   5.455   5.016
  938WAT     OW 2812   2.470   5.250   4.863
  938WAT    HW1 2813   2.477   5.193   4.781
  938WAT    HW2 2814   2.529   5.330   4.852
  939WAT     OW 2815   0.432   5.287   3.579
  939WAT    HW1 2816   0.349   5.325   3.539
  939WAT    HW2 2817   0.410   5.202   3.627
  940WAT     OW 2818   1.063   0.032   4.888
  940WAT    HW1 2819   1.021   0.065   4.972
  940WAT    HW2 2820   1.160   0.013   4.903
  941WAT     OW 2821   5.495   5.271   6.668
  941WAT    HW1 2822   5.530   5.315   6.586
  941WAT    HW2 2823   5.446   5.187   6.644
  942WAT     OW 2824   1.040   0.594   5.061
  942WAT    HW1 2825   0.962   0.652   5.086
  942WAT    HW2 2826   1.017   0.540   4.981
  943WAT     OW 2827   0.359   4.433   1.150
  943WAT    HW1 2828   0.287   4.451   1.083
  943WAT    HW2 2829   0.319   4.426   1.242
  944WAT     OW 2830   1.509   1.236   5.462
  944WAT    HW1 2831   1.527   1.138   5.454
  944WAT    HW2 2832   1.570   1.275   5.531
  945WAT     OW 2833   1.594   4.496   4.701
  945WAT    HW1 2834   1.606   4.532   4.794
  945WAT    HW2 2835   1.507   4.529   4.664
  946WAT     OW 2836   0.285   0.389   1.992
  946WAT    HW1 2837   0.334   0.304   2.016
  946WAT    HW2 2838   0.202   0.366   1.942
  947WAT     OW 2839   5.814   5.078   5.142
  947WAT    HW1 2840   5.756   5.022   5.201
  947WAT    HW2 2841   5.829   5.031   5.055
  948WAT     OW 2842   2.878   5.390   4.361
  948WAT    HW1 2843   2.814   5.430   4.295
  948WAT    HW2 2844   2.837   5.307   4.400
  949WAT     OW 2845   2.710   1.494   1.737
  949WAT    HW1 2846   2.726   1.448   1.824
  949WAT    HW2 2847   2.642   1.566   1.750
  950WAT     OW 2848   4.457   6.552   5.288
  950WAT    HW1 2849   4.470   6.649   5.269
  950WAT    HW2 2850   4.363   6.526   5.268
  951WAT     OW 2851   5.826   6.187   0.815
  951WAT    HW1 2852   5.760   6.111   0.815
  951WAT    HW2 2853   5.777   6.274   0.822
  952WAT     OW 2854   0.110   5.551   2.101
  952WAT    HW1 2855   0.109   5.545   2.201
  952WAT    HW2 2856   0.203   5.570   2.070
  953WAT     OW 2857   0.409   0.311   2.664
  953WAT    HW1 2858   0.465   0.328   2.583
  953WAT    HW2 2859   0.312   0.321   2.639
  954WAT     OW 2860   0.752   4.558   5.555
  954WAT    HW1 2861   0.667   4.526   5.596
  954WAT    HW2 2862   0.766   4.513   5.467
  955WAT     OW 2863   6.026   5.831   4.549
  955WAT    HW1 2864   5.991   5.919   4.516
  955WAT    HW2 2865   5.987   5.810   4.638
  956WAT     OW 2866   4.364   5.965   0.909
  956WAT    HW1 2867   4.407   5.905   0.977
  956WAT    HW2 2868   4.398   6.058   0.921
  957WAT     OW 2869   1.355   1.354   2.496
  957WAT    HW1 2870   1.332   1.256   2.502
  957WAT    HW2 2871   1.384   1.376   2.403
  958WAT     OW 2872   3.315   3.598   4.058
  958WAT    HW1 2873   3.297   3.617   4.155
  958WAT    HW2 2874   3.278   3.673   4.002
  959WAT     OW 2875   3.699   4.459   3.224
  959WAT    HW1 2876   3.673   4.397   3.151
  959WAT    HW2 2877   3.767   4.524   3.190
  960WAT     OW 2878   4.336   0.310   6.161
  960WAT    HW1 2879   4.373   0.319   6.254
  960WAT    HW2 2880   4.282   0.226   6.156
  961WAT     OW 2881   0.879   6.507   4.108
  961WAT    HW1 2882   0.844   6.569   4.177
  961WAT    HW2 2883   0.807   6.443   4.080
  962WAT     OW 2884   1.718   5.706   5.859
  962WAT    HW1 2885   1.748   5.748   5.773
  962WAT    HW2 2886   1.677   5.776   5.917
  963WAT     OW 2887   6.331   3.757   2.442
  963WAT    HW1 2888   6.295   3.832   2.498
  963WAT    HW2 2889   6.281   3.673   2.464
  964WAT     OW 2890   3.074   2.704   6.525
  964WAT    HW1 2891   3.028   2.617   6.543
  964WAT    HW2 2892   3.007   2.770   6.491
  965WAT     OW 2893   0.667   4.106   5.080
  965WAT    HW1 2894   0.719   4.022   5.091
  965WAT    HW2 2895   0.623   4.129   5.167
  966WAT     OW 2896   2.399   6.564   4.909
  966WAT    HW1 2897   2.320   6.618   4.881
  966WAT    HW2 2898   2.443   6.525   4.828
  967WAT     OW 2899   2.682   3.905   5.313
  967WAT    HW1 2900   2.624   3.829   5.341
  967WAT    HW2 2901   2.673   3.980   5.379
  968WAT     OW 2902   1.313   6.651   4.963
  968WAT    HW1 2903   1.295   6.576   5.026
  968WAT    HW2 2904   1.373   6.619   4.889
  969WAT     OW 2905   4.645   2.785   1.660
  969WAT    HW1 2906   4.598   2.783   1.749
  969WAT    HW2 2907   4.739   2.814   1.673
  970WAT     OW 2908   6.280   2.176   0.866
  970WAT    HW1 2909   6.377   2.158   0.886
  970WAT    HW2 2910   6.223   2.129   0.933
  971WAT     OW 2911   4.966   3.028   3.016
  971WAT    HW1 2912   5.065   3.041   3.023
  971WAT    HW2 2913   4.947   2.937   2.978
  972WAT     OW 2914   5.103   0.489   4.149
  972WAT    HW1 2915   5.183   0.486   4.088
  972WAT    HW2 2916   5.038   0.419   4.121
  973WAT     OW 2917   0.735   3.064   4.918
  973WAT    HW1 2918   0.703   3.006   4.993
  973WAT    HW2 2919   0.716   3.160   4.939
  974WAT     OW 2920   4.359   6.590   4.861
  974WAT    HW1 2921   4.347   6.595   4.762
  974WAT    HW2 2922   4.457   6.585   4.882
  975WAT     OW 2923   4.666   0.857   4.968
  975WAT    HW1 2924   4.746   0.902   4.930
  975WAT    HW2 2925   4.647   0.773   4.917
  976WAT     OW 2926   2.315   4.024   0.848
  976WAT    HW1 2927   2.265   3.992   0.928
  976WAT    HW2 2928   2.321   3.951   0.780
  977WAT     OW 2929   6.560   0.802   5.692
  977WAT    HW1 2930   6.585   0.884   5.640
  977WAT    HW2 2931   6.587   0.813   5.788
  978WAT     OW 2932   1.620   0.642   2.600
  978WAT    HW1 2933   1.561   0.598   2.668
  978WAT    HW2 2934   1.638   0.736   2.627
  979WAT     OW 2935   0.512   5.325   2.364
  979WAT    HW1 2936   0.451   5.263   2.314
  979WAT    HW2 2937   0.607   5.307   2.338
  980WAT     OW 2938   0.279   0.575   5.896
  980WAT    HW1 2939   0.245   0.528   5.814
  980WAT    HW2 2940   0.310   0.667   5.871
  981WAT     OW 2941   5.135   1.708   2.759
  981WAT    HW1 2942   5.203   1.642   2.727
  981WAT    HW2 2943   5.080   1.740   2.683
  982WAT     OW 2944   5.897   0.961   5.082
  982WAT    HW1 2945   5.980   0.907   5.073
  982WAT    HW2 2946   5.817   0.902   5.069
  983WAT     OW 2947   6.310   4.245   5.504
  983WAT    HW1 2948   6.214   4.271   5.516
  983WAT    HW2 2949   6.324   4.153   5.541
  984WAT     OW 2950   3.580   1.574   6.086
  984WAT    HW1 2951   3.480   1.572   6.088
  984WAT    HW2 2952   3.615   1.482   6.074
  985WAT     OW 2953   2.410   2.067   0.534
  985WAT    HW1 2954   2.369   2.149   0.574
  985WAT    HW2 2955   2.471   2.093   0.460
  986WAT     OW 2956   3.014   4.137   3.426
  986WAT    HW1 2957   3.071   4.188   3.490
  986WAT    HW2 2958   3.062   4.128   3.338
  987WAT     OW 2959   5.848   2.784   5.350
  987WAT    HW1 2960   5.864   2.717   5.277
  987WAT    HW2 2961   5.886   2.872   5.323
  988WAT     OW 2962   1.925   4.048   4.515
  988WAT    HW1 2963   1.840   4.082   4.474
  988WAT    HW2 2964   1.932   3.949   4.500
  989WAT     OW 2965   5.280   6.010   4.646
  989WAT    HW1 2966   5.311   6.055   4.730
  989WAT    HW2 2967   5.190   5.969   4.661
  990WAT     OW 2968   1.976   0.716   1.901
  990WAT    HW1 2969   1.902   0.648   1.897
  990WAT    HW2 2970   1.954   0.784   1.970
  991WAT     OW 2971   2.852   6.639   1.097
  991WAT    HW1 2972   2.848   6.727   1.145
  991WAT    HW2 2973   2.926   6.640   1.030
  992WAT     OW 2974   2.057   5.179   2.455
  992WAT    HW1 2975   1.967   5.187   2.498
  992WAT    HW2 2976   2.045   5.154   2.359
  993WAT     OW 2977   5.467   1.092   5.989
  993WAT    HW1 2978   5.539   1.140   6.040
  993WAT    HW2 2979   5.499   1.001   5.964
  994WAT     OW 2980   0.814   0.855   4.011
  994WAT    HW1 2981   0.773   0.773   3.969
  994WAT    HW2 2982   0.765   0.878   4.095
  995WAT     OW 2983   4.850   0.489   1.060
  995WAT    HW1 2984   4.856   0.586   1.084
  995WAT    HW2 2985   4.934   0.461   1.013
  996WAT     OW 2986   6.013   0.385   6.010
  996WAT    HW1 2987   6.004   0.468   5.955
  996WAT    HW2 2988   6.110   0.360   6.016
  997WAT     OW 2989   1.323   2.951   3.237
  997WAT    HW1 2990   1.326   2.880   3.167
  997WAT    HW2 2991   1.393   2.932   3.307
  998WAT     OW 2992   3.288   5.480   6.103
  998WAT    HW1 2993   3.238   5.545   6.160
  998WAT    HW2 2994   3.372   5.453   6.150
  999WAT     OW 2995   3.585   3.627   4.033
  999WAT    HW1 2996   3.596   3.725   4.049
  999WAT    HW2 2997   3.488   3.603   4.038
 1000WAT     OW 2998   3.270   6.509   0.169
 1000WAT    HW1 2999   3.302   6.441   0.235
 1000WAT    HW2 3000   3.192   6.559   0.207
 1001WAT     OW 3001   2.002   2.346   2.730
 1001WAT    HW1 3002   1.982   2.248   2.729
 1001WAT    HW2 3003   2.060   2.369   2.808
 1002WAT     OW 3004   6.571   6.279   3.704
 1002WAT    HW1 3005   6.544   6.276   3.800
 1002WAT    HW2 3006   6.527   6.204   3.655
 1003WAT     OW 3007   3.401   6.274   5.834
 1003WAT    HW1 3008   3.380   6.238   5.743
 1003WAT    HW2 3009   3.346   6.227   5.903
 1004WAT     OW 3010   6.437   1.726   1.083
 1004WAT    HW1 3011   6.496   1.656   1.041
 1004WAT    HW2 3012   6.374   1.762   1.014
 1005WAT     OW 3013   3.511   0.872   1.450
 1005WAT    HW1 3014   3.432   0.882   1.510
 1005WAT    HW2 3015   3.537   0.962   1.414
 1006WAT     OW 3016   1.156   2.216   6.437
 1006WAT    HW1 3017   1.099   2.222   6.355
 1006WAT    HW2 3018   1.231   2.282   6.431
 1007WAT     OW 3019   1.661   4.593   4.949
 1007WAT    HW1 3020   1.730   4.662   4.929
 1007WAT    HW2 3021   1.693   4.536   5.025
 1008WAT     OW 3022   3.391   3.329   2.058
 1008WAT    HW1 3023   3.359   3.260   1.993
 1008WAT    HW2 3024   3.410   3.285   2.146
 1009WAT     OW 3025   3.088   0.070   6.552
 1009WAT    HW1 3026   3.182   0.098   6.537
 1009WAT    HW2 3027   3.055   0.108   6.639
 1010WAT     OW 3028   2.139   6.141   1.998
 1010WAT    HW1 3029   2.140   6.159   1.900
 1010WAT    HW2 3030   2.233   6.136   2.032
 1011WAT     OW 3031   4.884   2.385   0.363
 1011WAT    HW1 3032   4.933   2.472   0.371
 1011WAT    HW2 3033   4.788   2.402   0.341
 1012WAT     OW 3034   1.853   5.446   0.811
 1012WAT    HW1 3035   1.890   5.353   0.801
 1012WAT    HW2 3036   1.784   5.447   0.883
 1013WAT     OW 3037   4.398   3.947   3.140
 1013WAT    HW1 3038   4.409   3.862   3.192
 1013WAT    HW2 3039   4.420   3.930   3.044
 1014WAT     OW 3040   0.109   1.934   5.421
 1014WAT    HW1 3041   0.105   1.934   5.521
 1014WAT    HW2 3042   0.064   2.016   5.386
 1015WAT     OW 3043   1.211   6.394   0.444
 1015WAT    HW1 3044   1.295   6.390   0.499
 1015WAT    HW2 3045   1.178   6.302   0.427
 1016WAT     OW 3046   3.342   2.266   2.529
 1016WAT    HW1 3047   3.434   2.229   2.514
 1016WAT    HW2 3048   3.343   2.365   2.513
 1017WAT     OW 3049   4.098   5.225   1.573
 1017WAT    HW1 3050   4.046   5.289   1.629
 1017WAT    HW2 3051   4.128   5.270   1.489
 1018WAT     OW 3052   4.129   1.177   5.039
 1018WAT    HW1 3053   4.086   1.159   4.950
 1018WAT    HW2 3054   4.158   1.090   5.080
 1019WAT     OW 3055   0.902   1.437   0.279
 1019WAT    HW1 3056   0.831   1.476   0.337
 1019WAT    HW2 3057   0.988   1.485   0.295
 1020WAT     OW 3058   1.462   0.729   0.947
 1020WAT    HW1 3059   1.473   0.729   0.848
 1020WAT    HW2 3060   1.511   0.807   0.986
 1021WAT     OW 3061   1.984   0.126   2.011
 1021WAT    HW1 3062   1.915   0.079   1.955
 1021WAT    HW2 3063   2.074   0.087   1.991
 1022WAT     OW 3064   2.692   6.184   5.636
 1022WAT    HW1 3065   2.706   6.283   5.644
 1022WAT    HW2 3066   2.780   6.140   5.622
 1023WAT     OW 3067   5.372   2.093   1.503
 1023WAT    HW1 3068   5.287   2.143   1.487
 1023WAT    HW2 3069   5.352   2.005   1.546
 1024WAT     OW 3070   0.780   4.193   3.461
 1024WAT    HW1 3071   0.696   4.234   3.427
 1024WAT    HW2 3072   0.857   4.222   3.404
 1025WAT     OW 3073   5.315   4.815   5.213
 1025WAT    HW1 3074   5.375   4.801   5.292
 1025WAT    HW2 3075   5.264   4.900   5.225
 1026WAT     OW 3076   4.909   3.720   5.219
 1026WAT    HW1 3077   4.870   3.631   5.194
 1026WAT    HW2 3078   4.861   3.792   5.171
 1027WAT     OW 3079   3.629   0.728   0.526
 1027WAT    HW1 3080   3.642   0.739   0.625
 1027WAT    HW2 3081   3.533   0.742   0.503
 1028WAT     OW 3082   4.233   5.134   0.196
 1028WAT    HW1 3083   4.297   5.211   0.196
 1028WAT    HW2 3084   4.270   5.060   0.253
 1029WAT     OW 3085   1.489   3.976   2.495
 1029WAT    HW1 3086   1.396   3.941   2.494
 1029WAT    HW2 3087   1.497   4.048   2.564
 1030WAT     OW 3088   4.499   3.740   6.010
 1030WAT    HW1 3089   4.598   3.730   5.999
 1030WAT    HW2 3090   4.479   3.826   6.057
 1031WAT     OW 3091   2.544   1.612   4.769
 1031WAT    HW1 3092   2.620   1.663   4.809
 1031WAT    HW2 3093   2.457   1.654   4.796
 1032WAT     OW 3094   6.031   3.002   6.283
 1032WAT    HW1 3095   6.067   2.957   6.201
 1032WAT    HW2 3096   6.043   3.101   6.274
 1033WAT     OW 3097   4.517   6.524   2.416
 1033WAT    HW1 3098   4.589   6.586   2.446
 1033WAT    HW2 3099   4.505   6.530   2.317
 1034WAT     OW 3100   0.839   0.060   5.367
 1034WAT    HW1 3101   0.851   0.066   5.466
 1034WAT    HW2 3102   0.837  -0.037   5.340
 1035WAT     OW 3103   1.499   5.587   0.617
 1035WAT    HW1 3104   1.597   5.588   0.593
 1035WAT    HW2 3105   1.445   5.602   0.535
 1036WAT     OW 3106   1.864   4.520   2.155
 1036WAT    HW1 3107   1.845   4.539   2.251
 1036WAT    HW2 3108   1.802   4.448   2.123
 1037WAT     OW 3109   5.287   0.786   3.414
 1037WAT    HW1 3110   5.316   0.789   3.318
 1037WAT    HW2 3111   5.221   0.859   3.431
 1038WAT     OW 3112   6.502   1.117   3.215
 1038WAT    HW1 3113   6.499   1.169   3.300
 1038WAT    HW2 3114   6.537   1.174   3.141
 1039WAT     OW 3115   6.221   4.917   6.003
 1039WAT    HW1 3116   6.157   4.891   6.075
 1039WAT    HW2 3117   6.314   4.893   6.029
 1040WAT     OW 3118   1.575   3.599   0.283
 1040WAT    HW1 3119   1.488   3.595   0.234
 1040WAT    HW2 3120   1.557   3.612   0.381
 1041WAT     OW 3121   3.841   5.734   0.959
 1041WAT    HW1 3122   3.770   5.751   0.890
 1041WAT    HW2 3123   3.856   5.818   1.011
 1042WAT     OW 3124   1.746   0.289   4.394
 1042WAT    HW1 3125   1.646   0.286   4.396
 1042WAT    HW2 3126   1.781   0.305   4.487
 1043WAT     OW 3127   5.950   4.650   3.506
 1043WAT    HW1 3128   5.881   4.718   3.481
 1043WAT    HW2 3129   6.034   4.668   3.455
 1044WAT     OW 3130   5.783   1.595   5.334
 1044WAT    HW1 3131   5.756   1.500   5.317
 1044WAT    HW2 3132   5.706   1.655   5.315
 1045WAT     OW 3133   6.088   5.741   0.880
 1045WAT    HW1 3134   6.092   5.674   0.806
 1045WAT    HW2 3135   6.171   5.735   0.935
 1046WAT     OW 3136   6.285   2.460   5.865
 1046WAT    HW1 3137   6.294   2.558   5.880
 1046WAT    HW2 3138   6.374   2.422   5.839
 1047WAT     OW 3139   3.340   0.568   3.295
 1047WAT    HW1 3140   3.286   0.507   3.353
 1047WAT    HW2 3141   3.279   0.635   3.251
 1048WAT     OW 3142   5.810   3.442   3.046
 1048WAT    HW1 3143   5.736   3.384   3.081
 1048WAT    HW2 3144   5.845   3.498   3.121
 1049WAT     OW 3145   6.095   6.199   5.327
 1049WAT    HW1 3146   6.006   6.218   5.367
 1049WAT    HW2 3147   6.136   6.119   5.371
 1050WAT     OW 3148   5.139   4.611   4.377
 1050WAT    HW1 3149   5.197   4.681   4.335
 1050WAT    HW2 3150   5.184   4.522   4.371
 1051WAT     OW 3151   5.764   5.879   4.212
 1051WAT    HW1 3152   5.676   5.863   4.166
 1051WAT    HW2 3153   5.770   5.975   4.239
 1052WAT     OW 3154   2.918   0.535   5.878
 1052WAT    HW1 3155   2.906   0.470   5.953
 1052WAT    HW2 3156   3.005   0.584   5.890
 1053WAT     OW 3157   6.543   3.555   3.063
 1053WAT    HW1 3158   6.640   3.566   3.081
 1053WAT    HW2 3159   6.522   3.585   2.970
 1054WAT     OW 3160   3.168   2.840   0.364
 1054WAT    HW1 3161   3.099   2.787   0.413
 1054WAT    HW2 3162   3.231   2.881   0.430
 1055WAT     OW 3163   5.232   6.480   4.394
 1055WAT    HW1 3164   5.157   6.444   4.450
 1055WAT    HW2 3165   5.202   6.485   4.299
 1056WAT     OW 3166   0.409   0.961   2.650
 1056WAT    HW1 3167   0.323   0.972   2.599
 1056WAT    HW2 3168   0.476   0.915   2.591
 1057WAT     OW 3169   3.155   5.448   4.889
 1057WAT    HW1 3170   3.195   5.512   4.954
 1057WAT    HW2 3171   3.155   5.356   4.929
 1058WAT     OW 3172   4.072   0.872   0.533
 1058WAT    HW1 3173   3.988   0.865   0.587
 1058WAT    HW2 3174   4.145   0.910   0.589
 1059WAT     OW 3175   0.129   0.066   1.411
 1059WAT    HW1 3176   0.149   0.119   1.329
 1059WAT    HW2 3177   0.042   0.018   1.399
 1060WAT     OW 3178   3.263   6.306   2.261
 1060WAT    HW1 3179   3.252   6.329   2.358
 1060WAT    HW2 3180   3.232   6.212   2.246
 1061WAT     OW 3181   4.065   1.453   4.479
 1061WAT    HW1 3182   4.105   1.370   4.439
 1061WAT    HW2 3183   4.067   1.447   4.579
 1062WAT     OW 3184   1.896   6.431   1.933
 1062WAT    HW1 3185   1.926   6.409   2.026
 1062WAT    HW2 3186   1.877   6.346   1.883
 1063WAT     OW 3187   4.710   6.185   5.844
 1063WAT    HW1 3188   4.722   6.180   5.745
 1063WAT    HW2 3189   4.613   6.197   5.865
 1064WAT     OW 3190   0.453   2.579   6.296
 1064WAT    HW1 3191   0.365   2.531   6.293
 1064WAT    HW2 3192   0.471   2.611   6.389
 1065WAT     OW 3193   5.850   1.415   2.396
 1065WAT    HW1 3194   5.893   1.461   2.474
 1065WAT    HW2 3195   5.796   1.337   2.429
 1066WAT     OW 3196   4.047   3.986   0.735
 1066WAT    HW1 3197   4.070   4.081   0.711
 1066WAT    HW2 3198   3.948   3.974   0.733
 1067WAT     OW 3199   3.330   2.393   5.899
 1067WAT    HW1 3200   3.272   2.456   5.848
 1067WAT    HW2 3201   3.274   2.342   5.965
 1068WAT     OW 3202   3.675   6.245   5.235
 1068WAT    HW1 3203   3.764   6.232   5.190
 1068WAT    HW2 3204   3.669   6.338   5.271
 1069WAT     OW 3205   5.444   4.612   6.616
 1069WAT    HW1 3206   5.446   4.691   6.678
 1069WAT    HW2 3207   5.508   4.626   6.541
 1070WAT     OW 3208   6.129   2.035   1.050
 1070WAT    HW1 3209   6.035   2.003   1.060
 1070WAT    HW2 3210   6.159   2.077   1.136
 1071WAT     OW 3211   1.388   0.462   6.345
 1071WAT    HW1 3212   1.364   0.419   6.258
 1071WAT    HW2 3213   1.304   0.489   6.393
 1072WAT     OW 3214   2.108   4.703   2.873
 1072WAT    HW1 3215   2.106   4.652   2.959
 1072WAT    HW2 3216   2.167   4.784   2.883
 1073WAT     OW 3217   1.088   4.254   5.073
 1073WAT    HW1 3218   0.993   4.263   5.045
 1073WAT    HW2 3219   1.128   4.345   5.085
 1074WAT     OW 3220   4.514   5.295   3.601
 1074WAT    HW1 3221   4.518   5.302   3.502
 1074WAT    HW2 3222   4.451   5.363   3.637
 1075WAT     OW 3223   5.093   1.961   2.895
 1075WAT    HW1 3224   5.125   1.874   2.856
 1075WAT    HW2 3225   5.122   2.036   2.835
 1076WAT     OW 3226   4.570   2.654   4.962
 1076WAT    HW1 3227   4.569   2.750   4.989
 1076WAT    HW2 3228   4.489   2.633   4.908
 1077WAT     OW 3229   3.487   0.959   3.040
 1077WAT    HW1 3230   3.406   0.967   3.098
 1077WAT    HW2 3231   3.501   0.864   3.014
 1078WAT     OW 3232   5.027   0.110   2.809
 1078WAT    HW1 3233   5.068   0.028   2.766
 1078WAT    HW2 3234   5.064   0.121   2.901
 1079WAT     OW 3235   6.623   2.783   2.766
 1079WAT    HW1 3236   6.651   2.756   2.858
 1079WAT    HW2 3237   6.525   2.771   2.756
 1080WAT     OW 3238   2.397   4.091   5.138
 1080WAT    HW1 3239   2.414   4.183   5.173
 1080WAT    HW2 3240   2.376   4.029   5.214
 1081WAT     OW 3241   0.252   0.417   3.957
 1081WAT    HW1 3242   0.319   0.396   4.028
 1081WAT    HW2 3243   0.199   0.336   3.935
 1082WAT     OW 3244   0.866   4.399   4.111
 1082WAT    HW1 3245   0.848   4.491   4.144
 1082WAT    HW2 3246   0.867   4.335   4.188
 1083WAT     OW 3247   2.643   2.731   2.328
 1083WAT    HW1 3248   2.700   2.726   2.247
 1083WAT    HW2 3249   2.665   2.655   2.389
 1084WAT     OW 3250   0.321   2.313   5.940
 1084WAT    HW1 3251   0.401   2.373   5.936
 1084WAT    HW2 3252   0.307   2.283   6.035
 1085WAT     OW 3253   4.010   1.548   5.863
 1085WAT    HW1 3254   3.958   1.492   5.800
 1085WAT    HW2 3255   4.091   1.585   5.816
 1086WAT     OW 3256   5.416   4.368   4.967
 1086WAT    HW1 3257   5.332   4.330   4.927
 1086WAT    HW2 3258   5.445   4.448   4.914
 1087WAT     OW 3259   1.716   4.373   5.429
 1087WAT    HW1 3260   1.775   4.293   5.425
 1087WAT    HW2 3261   1.705   4.402   5.525
 1088WAT     OW 3262   0.613   2.127   1.344
 1088WAT    HW1 3263   0.572   2.217   1.356
 1088WAT    HW2 3264   0.572   2.063   1.409
 1089WAT     OW 3265   5.042   0.334   4.808
 1089WAT    HW1 3266   5.042   0.429   4.776
 1089WAT    HW2 3267   4.950   0.297   4.803
 1090WAT     OW 3268   3.741   6.139   6.227
 1090WAT    HW1 3269   3.760   6.108   6.134
 1090WAT    HW2 3270   3.750   6.239   6.231
 1091WAT     OW 3271   4.473   5.385   4.398
 1091WAT    HW1 3272   4.407   5.460   4.398
 1091WAT    HW2 3273   4.543   5.403   4.329
 1092WAT     OW 3274   5.269   0.363   2.932
 1092WAT    HW1 3275   5.356   0.332   2.893
 1092WAT    HW2 3276   5.219   0.285   2.970
 1093WAT     OW 3277   1.775   2.353   0.455
 1093WAT    HW1 3278   1.716   2.302   0.518
 1093WAT    HW2 3279   1.735   2.443   0.438
 1094WAT     OW 3280   4.313   3.993   0.954
 1094WAT    HW1 3281   4.334   3.970   0.859
 1094WAT    HW2 3282   4.339   4.087   0.973
 1095WAT     OW 3283   4.459   3.379   2.636
 1095WAT    HW1 3284   4.439   3.350   2.730
 1095WAT    HW2 3285   4.543   3.335   2.605
 1096WAT     OW 3286   1.491   5.668   4.914
 1096WAT    HW1 3287   1.500   5.588   4.972
 1096WAT    HW2 3288   1.405   5.663   4.863
 1097WAT     OW 3289   4.605   1.982   2.815
 1097WAT    HW1 3290   4.536   1.936   2.870
 1097WAT    HW2 3291   4.692   1.985   2.865
 1098WAT     OW 3292   1.271   5.668   2.009
 1098WAT    HW1 3293   1.243   5.627   1.922
 1098WAT    HW2 3294   1.282   5.767   1.997
 1099WAT     OW 3295   5.034   2.180   6.295
 1099WAT    HW1 3296   5.125   2.181   6.335
 1099WAT    HW2 3297   5.004   2.086   6.281
 1100WAT     OW 3298   2.063   1.572   4.766
 1100WAT    HW1 3299   2.026   1.609   4.681
 1100WAT    HW2 3300   1.997   1.584   4.840
 1101WAT     OW 3301   6.569   5.525   6.108
 1101WAT    HW1 3302   6.584   5.526   6.009
 1101WAT    HW2 3303   6.471   5.523   6.127
 1102WAT     OW 3304   0.206   5.466   0.796
 1102WAT    HW1 3305   0.209   5.366   0.801
 1102WAT    HW2 3306   0.147   5.501   0.869
 1103WAT     OW 3307   3.333   0.206   6.521
 1103WAT    HW1 3308   3.363   0.185   6.428
 1103WAT    HW2 3309   3.408   0.250   6.571
 1104WAT     OW 3310   2.765   4.027   3.460
 1104WAT    HW1 3311   2.851   4.077   3.453
 1104WAT    HW2 3312   2.767   3.947   3.401
 1105WAT     OW 3313   2.287   4.553   4.155
 1105WAT    HW1 3314   2.310   4.464   4.115
 1105WAT    HW2 3315   2.233   4.605   4.089
 1106WAT     OW 3316   2.531   0.019   4.113
 1106WAT    HW1 3317   2.496  -0.071   4.137
 1106WAT    HW2 3318   2.459   0.073   4.069
 1107WAT     OW 3319   5.602   2.484   2.250
 1107WAT    HW1 3320   5.698   2.509   2.236
 1107WAT    HW2 3321   5.554   2.561   2.292
 1108WAT     OW 3322   2.135   2.346   0.225
 1108WAT    HW1 3323   2.058   2.304   0.176
 1108WAT    HW2 3324   2.109   2.362   0.320
 1109WAT     OW 3325   1.846   6.682   2.554
 1109WAT    HW1 3326   1.849   6.585   2.577
 1109WAT    HW2 3327   1.887   6.697   2.464
 1110WAT     OW 3328   6.414   5.707   0.340
 1110WAT    HW1 3329   6.335   5.681   0.283
 1110WAT    HW2 3330   6.404   5.802   0.369
 1111WAT     OW 3331   4.417   3.594   3.823
 1111WAT    HW1 3332   4.495   3.643   3.785
 1111WAT    HW2 3333   4.442   3.498   3.838
 1112WAT     OW 3334   1.984   5.430   3.467
 1112WAT    HW1 3335   1.953   5.393   3.555
 1112WAT    HW2 3336   1.936   5.383   3.393
 1113WAT     OW 3337   3.568   5.710   3.078
 1113WAT    HW1 3338   3.558   5.809   3.089
 1113WAT    HW2 3339   3.556   5.665   3.166
 1114WAT     OW 3340   6.563   5.586   3.564
 1114WAT    HW1 3341   6.497   5.660   3.575
 1114WAT    HW2 3342   6.517   5.505   3.526
 1115WAT     OW 3343   4.595   1.531   3.543
 1115WAT    HW1 3344   4.521   1.561   3.603
 1115WAT    HW2 3345   4.559   1.468   3.474
 1116WAT     OW 3346   1.903   3.670   0.809
 1116WAT    HW1 3347   1.811   3.631   0.809
 1116WAT    HW2 3348   1.944   3.660   0.718
 1117WAT     OW 3349   0.588   4.523   4.298
 1117WAT    HW1 3350   0.671   4.571   4.268
 1117WAT    HW2 3351   0.602   4.488   4.391
 1118WAT     OW 3352   3.523   0.853   5.695
 1118WAT    HW1 3353   3.446   0.860   5.758
 1118WAT    HW2 3354   3.575   0.938   5.695
 1119WAT     OW 3355   6.249   1.827   0.914
 1119WAT    HW1 3356   6.253   1.836   0.815
 1119WAT    HW2 3357   6.208   1.909   0.954
 1120WAT     OW 3358   3.055   1.800   5.730
 1120WAT    HW1 3359   2.961   1.773   5.711
 1120WAT    HW2 3360   3.080   1.876   5.670
 1121WAT     OW 3361   5.833   4.086   2.559
 1121WAT    HW1 3362   5.896   4.094   2.637
 1121WAT    HW2 3363   5.778   4.003   2.570
 1122WAT     OW 3364   3.578   3.078   1.319
 1122WAT    HW1 3365   3.542   3.158   1.367
 1122WAT    HW2 3366   3.675   3.066   1.342
 1123WAT     OW 3367   2.956   1.043   2.743
 1123WAT    HW1 3368   2.988   1.064   2.651
 1123WAT    HW2 3369   3.015   0.972   2.783
 1124WAT     OW 3370   0.758   4.240   3.732
 1124WAT    HW1 3371   0.773   4.211   3.637
 1124WAT    HW2 3372   0.742   4.339   3.734
 1125WAT     OW 3373   4.500   5.811   1.086
 1125WAT    HW1 3374   4.588   5.858   1.082
 1125WAT    HW2 3375   4.502   5.730   1.027
 1126WAT     OW 3376   3.860   5.035   6.419
 1126WAT    HW1 3377   3.910   4.956   6.454
 1126WAT    HW2 3378   3.772   5.005   6.382
 1127WAT     OW 3379   3.098   1.202   1.307
 1127WAT    HW1 3380   3.021   1.266   1.302
 1127WAT    HW2 3381   3.113   1.177   1.403
 1128WAT     OW 3382   3.903   0.491   2.149
 1128WAT    HW1 3383   3.934   0.429   2.076
 1128WAT    HW2 3384   3.983   0.532   2.194
 1129WAT     OW 3385   4.147   0.521   6.204
 1129WAT    HW1 3386   4.161   0.542   6.301
 1129WAT    HW2 3387   4.211   0.449   6.176
 1130WAT     OW 3388   5.590   1.133   5.280
 1130WAT    HW1 3389   5.648   1.208   5.247
 1130WAT    HW2 3390   5.558   1.079   5.202
 1131WAT     OW 3391   4.106   0.010   0.632
 1131WAT    HW1 3392   4.194   0.027   0.588
 1131WAT    HW2 3393   4.116   0.017   0.731
 1132WAT     OW 3394   6.632   4.661   2.922
 1132WAT    HW1 3395   6.561   4.727   2.902
 1132WAT    HW2 3396   6.704   4.666   2.852
 1133WAT     OW 3397   4.604   3.867   2.166
 1133WAT    HW1 3398   4.682   3.910   2.119
 1133WAT    HW2 3399   4.520   3.912   2.137
 1134WAT     OW 3400   3.776   3.607   2.382
 1134WAT    HW1 3401   3.682   3.575   2.374
 1134WAT    HW2 3402   3.798   3.621   2.479
 1135WAT     OW 3403   6.491   2.049   6.470
 1135WAT    HW1 3404   6.584   2.057   6.507
 1135WAT    HW2 3405   6.479   2.113   6.394
 1136WAT     OW 3406   2.327   4.290   1.827
 1136WAT    HW1 3407   2.255   4.325   1.887
 1136WAT    HW2 3408   2.338   4.192   1.842
 1137WAT     OW 3409   5.713   0.289   0.963
 1137WAT    HW1 3410   5.799   0.306   0.915
 1137WAT    HW2 3411   5.638   0.283   0.897
 1138WAT     OW 3412   6.282   3.561   3.374
 1138WAT    HW1 3413   6.360   3.505   3.402
 1138WAT    HW2 3414   6.313   3.630   3.308
 1139WAT     OW 3415   1.504   3.165   1.601
 1139WAT    HW1 3416   1.496   3.087   1.541
 1139WAT    HW2 3417   1.592   3.163   1.648
 1140WAT     OW 3418   0.011   3.093   3.126
 1140WAT    HW1 3419   0.048   3.109   3.218
 1140WAT    HW2 3420  -0.023   2.999   3.120
 1141WAT     OW 3421   5.232   4.179   5.401
 1141WAT    HW1 3422   5.299   4.203   5.331
 1141WAT    HW2 3423   5.273   4.191   5.491
 1142WAT     OW 3424   3.716   0.465   0.561
 1142WAT    HW1 3425   3.697   0.561   0.543
 1142WAT    HW2 3426   3.793   0.458   0.625
 1143WAT     OW 3427   3.491   4.423   2.274
 1143WAT    HW1 3428   3.571   4.448   2.220
 1143WAT    HW2 3429   3.408   4.446   2.223
 1144WAT     OW 3430   4.149   6.251   6.263
 1144WAT    HW1 3431   4.079   6.278   6.329
 1144WAT    HW2 3432   4.223   6.203   6.309
 1145WAT     OW 3433   1.720   3.178   0.361
 1145WAT    HW1 3434   1.642   3.132   0.318
 1145WAT    HW2 3435   1.736   3.265   0.316
 1146WAT     OW 3436   2.457   6.587   4.471
 1146WAT    HW1 3437   2.364   6.614   4.446
 1146WAT    HW2 3438   2.514   6.669   4.478
 1147WAT     OW 3439   5.977   5.139   0.399
 1147WAT    HW1 3440   6.047   5.102   0.460
 1147WAT    HW2 3441   5.894   5.083   0.406
 1148WAT     OW 3442   6.208   2.140   0.608
 1148WAT    HW1 3443   6.113   2.111   0.609
 1148WAT    HW2 3444   6.240   2.156   0.702
 1149WAT     OW 3445   2.157   3.754   2.124
 1149WAT    HW1 3446   2.067   3.713   2.127
 1149WAT    HW2 3447   2.184   3.768   2.029
 1150WAT     OW 3448   2.770   1.288   6.231
 1150WAT    HW1 3449   2.820   1.354   6.176
 1150WAT    HW2 3450   2.711   1.233   6.172
 1151WAT     OW 3451   1.222   5.396   6.392
 1151WAT    HW1 3452   1.177   5.315   6.429
 1151WAT    HW2 3453   1.313   5.372   6.361
 1152WAT     OW 3454   5.909   2.559   2.467
 1152WAT    HW1 3455   5.908   2.464   2.501
 1152WAT    HW2 3456   5.899   2.559   2.368
 1153WAT     OW 3457   3.964   1.072   3.016
 1153WAT    HW1 3458   4.051   1.121   3.019
 1153WAT    HW2 3459   3.980   0.977   2.991
 1154WAT     OW 3460   2.116   5.674   1.363
 1154WAT    HW1 3461   2.053   5.686   1.286
 1154WAT    HW2 3462   2.147   5.763   1.395
 1155WAT     OW 3463   1.413   3.700   5.873
 1155WAT    HW1 3464   1.346   3.650   5.817
 1155WAT    HW2 3465   1.490   3.727   5.816
 1156WAT     OW 3466   3.948   1.801   1.426
 1156WAT    HW1 3467   4.025   1.832   1.480
 1156WAT    HW2 3468   3.863   1.812   1.478
 1157WAT     OW 3469   5.241   2.534   2.232
 1157WAT    HW1 3470   5.319   2.559   2.290
 1157WAT    HW2 3471   5.253   2.441   2.197
 1158WAT     OW 3472   5.621   2.658   5.756
 1158WAT    HW1 3473   5.622   2.713   5.673
 1158WAT    HW2 3474   5.566   2.576   5.741
 1159WAT     OW 3475   4.141   0.571   5.658
 1159WAT    HW1 3476   4.201   0.553   5.581
 1159WAT    HW2 3477   4.061   0.623   5.627
 1160WAT     OW 3478   5.638   4.783   1.098
 1160WAT    HW1 3479   5.572   4.734   1.155
 1160WAT    HW2 3480   5.590   4.852   1.043
 1161WAT     OW 3481   4.000   5.591   6.411
 1161WAT    HW1 3482   3.971   5.563   6.320
 1161WAT    HW2 3483   4.015   5.690   6.413
 1162WAT     OW 3484   4.793   3.504   6.290
 1162WAT    HW1 3485   4.844   3.589   6.282
 1162WAT    HW2 3486   4.772   3.468   6.199
 1163WAT     OW 3487   2.054   1.172   3.108
 1163WAT    HW1 3488   2.044   1.091   3.166
 1163WAT    HW2 3489   1.967   1.192   3.064
 1164WAT     OW 3490   5.858   6.152   5.714
 1164WAT    HW1 3491   5.868   6.251   5.717
 1164WAT    HW2 3492   5.819   6.119   5.800
 1165WAT     OW 3493   0.726   5.939   2.368
 1165WAT    HW1 3494   0.643   5.991   2.349
 1165WAT    HW2 3495   0.805   5.988   2.332
 1166WAT     OW 3496   3.709   5.502   0.165
 1166WAT    HW1 3497   3.753   5.559   0.235
 1166WAT    HW2 3498   3.767   5.500   0.084
 1167WAT     OW 3499   6.091   6.672   5.288
 1167WAT    HW1 3500   6.160   6.723   5.338
 1167WAT    HW2 3501   6.020   6.734   5.255
 1168WAT     OW 3502   1.970   5.309   6.611
 1168WAT    HW1 3503   2.047   5.310   6.547
 1168WAT    HW2 3504   1.898   5.250   6.577
 1169WAT     OW 3505   1.952   5.974   5.193
 1169WAT    HW1 3506   2.029   6.037   5.183
 1169WAT    HW2 3507   1.882   5.997   5.126
 1170WAT     OW 3508   4.255   5.299   3.347
 1170WAT    HW1 3509   4.235   5.390   3.382
 1170WAT    HW2 3510   4.354   5.287   3.337
 1171WAT     OW 3511   2.531   5.118   1.443
 1171WAT    HW1 3512   2.623   5.149   1.420
 1171WAT    HW2 3513   2.475   5.113   1.361
 1172WAT     OW 3514   5.327   6.660   3.746
 1172WAT    HW1 3515   5.394   6.631   3.814
 1172WAT    HW2 3516   5.369   6.725   3.683
 1173WAT     OW 3517   0.309   5.205   1.334
 1173WAT    HW1 3518   0.286   5.109   1.352
 1173WAT    HW2 3519   0.407   5.213   1.317
 1174WAT     OW 3520   3.265   3.764   1.605
 1174WAT    HW1 3521   3.305   3.709   1.678
 1174WAT    HW2 3522   3.183   3.809   1.637
 1175WAT     OW 3523   2.945   0.351   3.217
 1175WAT    HW1 3524   2.912   0.284   3.283
 1175WAT    HW2 3525   2.919   0.443   3.247
 1176WAT     OW 3526   5.904   1.587   4.903
 1176WAT    HW1 3527   5.931   1.662   4.842
 1176WAT    HW2 3528   5.949   1.503   4.874
 1177WAT     OW 3529   3.685   6.128   1.056
 1177WAT    HW1 3530   3.696   6.161   0.962
 1177WAT    HW2 3531   3.759   6.064   1.078
 1178WAT     OW 3532   6.114   3.893   2.855
 1178WAT    HW1 3533   6.206   3.889   2.817
 1178WAT    HW2 3534   6.069   3.978   2.826
 1179WAT     OW 3535   1.477   0.252   4.417
 1179WAT    HW1 3536   1.484   0.165   4.370
 1179WAT    HW2 3537   1.426   0.240   4.502
 1180WAT     OW 3538   0.559   3.459   5.524
 1180WAT    HW1 3539   0.646   3.435   5.481
 1180WAT    HW2 3540   0.517   3.376   5.561
 1181WAT     OW 3541   5.511   1.242   2.021
 1181WAT    HW1 3542   5.430   1.264   2.075
 1181WAT    HW2 3543   5.564   1.325   2.004
 1182WAT     OW 3544   3.079   1.239   5.457
 1182WAT    HW1 3545   3.061   1.153   5.410
 1182WAT    HW2 3546   3.169   1.274   5.429
 1183WAT     OW 3547   5.983   3.535   0.559
 1183WAT    HW1 3548   5.978   3.483   0.644
 1183WAT    HW2 3549   6.055   3.604   0.567
 1184WAT     OW 3550   3.238   2.079   3.525
 1184WAT    HW1 3551   3.230   2.118   3.433
 1184WAT    HW2 3552   3.147   2.071   3.566
 1185WAT     OW 3553   1.221   6.631   2.178
 1185WAT    HW1 3554   1.198   6.718   2.220
 1185WAT    HW2 3555   1.138   6.577   2.164
 1186WAT     OW 3556   4.527   3.735   4.882
 1186WAT    HW1 3557   4.620   3.701   4.895
 1186WAT    HW2 3558   4.507   3.804   4.951
 1187WAT     OW 3559   3.303   1.587   6.085
 1187WAT    HW1 3560   3.257   1.583   5.996
 1187WAT    HW2 3561   3.307   1.682   6.117
 1188WAT     OW 3562   6.621   0.462   0.173
 1188WAT    HW1 3563   6.527   0.473   0.141
 1188WAT    HW2 3564   6.629   0.501   0.264
 1189WAT     OW 3565   3.344   5.037   3.990
 1189WAT    HW1 3566   3.366   4.940   3.993
 1189WAT    HW2 3567   3.427   5.091   3.998
 1190WAT     OW 3568   4.147   3.062   5.709
 1190WAT    HW1 3569   4.114   3.096   5.621
 1190WAT    HW2 3570   4.242   3.032   5.700
 1191WAT     OW 3571   3.724   3.112   3.324
 1191WAT    HW1 3572   3.743   3.196   3.374
 1191WAT    HW2 3573   3.636   3.075   3.354
 1192WAT     OW 3574   5.155   5.331   3.066
 1192WAT    HW1 3575   5.157   5.235   3.094
 1192WAT    HW2 3576   5.212   5.385   3.128
 1193WAT     OW 3577   2.073   6.377   0.039
 1193WAT    HW1 3578   2.154   6.331   0.076
 1193WAT    HW2 3579   1.998   6.311   0.036
 1194WAT     OW 3580   0.075   0.829   0.279
 1194WAT    HW1 3581   0.122   0.756   0.330
 1194WAT    HW2 3582  -0.023   0.811   0.278
 1195WAT     OW 3583   3.128   4.025   5.941
 1195WAT    HW1 3584   3.131   3.955   5.870
 1195WAT    HW2 3585   3.207   4.015   6.001
 1196WAT     OW 3586   1.341   5.081   3.972
 1196WAT    HW1 3587   1.358   4.988   4.006
 1196WAT    HW2 3588   1.251   5.085   3.930
 1197WAT     OW 3589   4.272   2.431   0.193
 1197WAT    HW1 3590   4.214   2.391   0.122
 1197WAT    HW2 3591   4.260   2.381   0.278
 1198WAT     OW 3592   0.572   3.477   3.530
 1198WAT    HW1 3593   0.672   3.473   3.524
 1198WAT    HW2 3594   0.533   3.427   3.453
 1199WAT     OW 3595   3.175   5.767   6.532
 1199WAT    HW1 3596   3.203   5.702   6.603
 1199WAT    HW2 3597   3.107   5.830   6.571
 1200WAT     OW 3598   6.642   3.694   3.730
 1200WAT    HW1 3599   6.546   3.718   3.715
 1200WAT    HW2 3600   6.685   3.675   3.642
 1201WAT     OW 3601   1.459   2.376   3.837
 1201WAT    HW1 3602   1.481   2.448   3.902
 1201WAT    HW2 3603   1.534   2.364   3.772
 1202WAT     OW 3604   5.298   0.763   5.094
 1202WAT    HW1 3605   5.349   0.683   5.063
 1202WAT    HW2 3606   5.220   0.777   5.034
 1203WAT     OW 3607   0.280   0.318   4.496
 1203WAT    HW1 3608   0.267   0.219   4.504
 1203WAT    HW2 3609   0.376   0.338   4.475
 1204WAT     OW 3610   0.934   4.724   5.708
 1204WAT    HW1 3611   0.886   4.671   5.638
 1204WAT    HW2 3612   0.881   4.725   5.792
 1205WAT     OW 3613   3.522   0.685   3.686
 1205WAT    HW1 3614   3.581   0.764   3.670
 1205WAT    HW2 3615   3.520   0.627   3.604
 1206WAT     OW 3616   4.869   5.043   1.808
 1206WAT    HW1 3617   4.812   5.113   1.764
 1206WAT    HW2 3618   4.925   5.086   1.879
 1207WAT     OW 3619   2.329   1.638   5.106
 1207WAT    HW1 3620   2.344   1.669   5.013
 1207WAT    HW2 3621   2.236   1.662   5.135
 1208WAT     OW 3622   2.815   2.060   0.600
 1208WAT    HW1 3623   2.726   2.077   0.641
 1208WAT    HW2 3624   2.813   1.973   0.551
 1209WAT     OW 3625   6.277   0.125   5.423
 1209WAT    HW1 3626   6.249   0.214   5.457
 1209WAT    HW2 3627   6.375   0.112   5.439
 1210WAT     OW 3628   6.254   4.607   0.926
 1210WAT    HW1 3629   6.231   4.574   1.017
 1210WAT    HW2 3630   6.233   4.704   0.919
 1211WAT     OW 3631   1.302   0.836   0.160
 1211WAT    HW1 3632   1.285   0.799   0.252
 1211WAT    HW2 3633   1.243   0.915   0.145
 1212WAT     OW 3634   6.204   2.767   3.456
 1212WAT    HW1 3635   6.147   2.845   3.482
 1212WAT    HW2 3636   6.167   2.683   3.497
 1213WAT     OW 3637   2.220   5.541   2.646
 1213WAT    HW1 3638   2.181   5.524   2.736
 1213WAT    HW2 3639   2.320   5.544   2.653
 1214WAT     OW 3640   3.042   0.802   2.430
 1214WAT    HW1 3641   3.060   0.897   2.453
 1214WAT    HW2 3642   2.950   0.777   2.461
 1215WAT     OW 3643   0.711   5.232   4.742
 1215WAT    HW1 3644   0.618   5.200   4.724
 1215WAT    HW2 3645   0.776   5.168   4.700
 1216WAT     OW 3646   0.444   5.161   4.691
 1216WAT    HW1 3647   0.392   5.098   4.633
 1216WAT    HW2 3648   0.402   5.252   4.687
 1217WAT     OW 3649   2.185   6.509   3.773
 1217WAT    HW1 3650   2.157   6.574   3.843
 1217WAT    HW2 3651   2.104   6.474   3.726
 1218WAT     OW 3652   1.202   0.953   4.512
 1218WAT    HW1 3653   1.190   0.999   4.599
 1218WAT    HW2 3654   1.162   0.861   4.517
 1219WAT     OW 3655   1.951   3.031   6.013
 1219WAT    HW1 3656   1.901   3.039   5.927
 1219WAT    HW2 3657   2.048   3.050   5.997
 1220WAT     OW 3658   4.226   0.912   3.091
 1220WAT    HW1 3659   4.278   0.976   3.034
 1220WAT    HW2 3660   4.203   0.956   3.178
 1221WAT     OW 3661   4.256   3.697   0.507
 1221WAT    HW1 3662   4.204   3.698   0.593
 1221WAT    HW2 3663   4.353   3.703   0.527
 1222WAT     OW 3664   2.667   5.451   5.122
 1222WAT    HW1 3665   2.593   5.502   5.165
 1222WAT    HW2 3666   2.653   5.447   5.023
 1223WAT     OW 3667   1.189   1.642   1.783
 1223WAT    HW1 3668   1.228   1.659   1.873
 1223WAT    HW2 3669   1.202   1.722   1.725
 1224WAT     OW 3670   0.503   3.843   5.328
 1224WAT    HW1 3671   0.573   3.892   5.379
 1224WAT    HW2 3672   0.435   3.908   5.293
 1225WAT     OW 3673   6.447   0.248   1.204
 1225WAT    HW1 3674   6.480   0.334   1.166
 1225WAT    HW2 3675   6.502   0.172   1.168
 1226WAT     OW 3676   4.088   0.327   5.764
 1226WAT    HW1 3677   4.119   0.419   5.741
 1226WAT    HW2 3678   4.011   0.332   5.827
 1227WAT     OW 3679   1.713   1.341   6.173
 1227WAT    HW1 3680   1.620   1.343   6.208
 1227WAT    HW2 3681   1.732   1.252   6.132
 1228WAT     OW 3682   5.160   2.730   4.608
 1228WAT    HW1 3683   5.224   2.707   4.534
 1228WAT    HW2 3684   5.096   2.800   4.576
 1229WAT     OW 3685   5.657   3.648   4.154
 1229WAT    HW1 3686   5.612   3.705   4.222
 1229WAT    HW2 3687   5.588   3.601   4.099
 1230WAT     OW 3688   3.807   3.832   2.208
 1230WAT    HW1 3689   3.900   3.841   2.171
 1230WAT    HW2 3690   3.804   3.758   2.274
 1231WAT     OW 3691   1.809   3.025   5.779
 1231WAT    HW1 3692   1.725   3.059   5.820
 1231WAT    HW2 3693   1.800   2.927   5.760
 1232WAT     OW 3694   1.080   0.107   1.170
 1232WAT    HW1 3695   1.091   0.193   1.122
 1232WAT    HW2 3696   1.119   0.114   1.262
 1233WAT     OW 3697   3.907   6.608   3.427
 1233WAT    HW1 3698   3.986   6.657   3.463
 1233WAT    HW2 3699   3.938   6.536   3.365
 1234WAT     OW 3700   1.671   4.605   1.842
 1234WAT    HW1 3701   1.729   4.655   1.907
 1234WAT    HW2 3702   1.604   4.551   1.893
 1235WAT     OW 3703   1.807   3.763   5.131
 1235WAT    HW1 3704   1.894   3.722   5.158
 1235WAT    HW2 3705   1.751   3.780   5.212
 1236WAT     OW 3706   3.763   2.397   4.861
 1236WAT    HW1 3707   3.813   2.311   4.864
 1236WAT    HW2 3708   3.828   2.473   4.858
 1237WAT     OW 3709   6.115   3.152   0.240
 1237WAT    HW1 3710   6.148   3.081   0.303
 1237WAT    HW2 3711   6.116   3.240   0.287
 1238WAT     OW 3712   4.497   0.135   1.499
 1238WAT    HW1 3713   4.433   0.114   1.573
 1238WAT    HW2 3714   4.451   0.124   1.411
 1239WAT     OW 3715   1.707   2.174   6.092
 1239WAT    HW1 3716   1.620   2.176   6.142
 1239WAT    HW2 3717   1.746   2.266   6.089
 1240WAT     OW 3718   6.448   0.386   0.500
 1240WAT    HW1 3719   6.403   0.352   0.583
 1240WAT    HW2 3720   6.533   0.335   0.485
 1241WAT     OW 3721   0.546   1.279   4.826
 1241WAT    HW1 3722   0.469   1.323   4.874
 1241WAT    HW2 3723   0.539   1.180   4.837
 1242WAT     OW 3724   6.028   5.850   4.120
 1242WAT    HW1 3725   6.095   5.827   4.190
 1242WAT    HW2 3726   5.937   5.851   4.160
 1243WAT     OW 3727   4.091   0.653   4.400
 1243WAT    HW1 3728   4.078   0.642   4.499
 1243WAT    HW2 3729   4.186   0.677   4.381
 1244WAT     OW 3730   1.327   6.023   2.475
 1244WAT    HW1 3731   1.400   6.069   2.425
 1244WAT    HW2 3732   1.277   6.090   2.530
 1245WAT     OW 3733   2.080   0.200   0.713
 1245WAT    HW1 3734   2.158   0.228   0.658
 1245WAT    HW2 3735   2.112   0.169   0.803
 1246WAT     OW 3736   6.227   6.286   2.056
 1246WAT    HW1 3737   6.222   6.339   1.972
 1246WAT    HW2 3738   6.314   6.236   2.058
 1247WAT     OW 3739   6.360   2.431   3.985
 1247WAT    HW1 3740   6.420   2.501   3.946
 1247WAT    HW2 3741   6.339   2.455   4.080
 1248WAT     OW 3742   3.312   0.486   1.255
 1248WAT    HW1 3743   3.396   0.511   1.302
 1248WAT    HW2 3744   3.256   0.568   1.241
 1249WAT     OW 3745   1.471   4.595   2.592
 1249WAT    HW1 3746   1.402   4.656   2.554
 1249WAT    HW2 3747   1.454   4.502   2.559
 1250WAT     OW 3748   2.525   1.390   3.797
 1250WAT    HW1 3749   2.489   1.386   3.704
 1250WAT    HW2 3750   2.490   1.473   3.842
 1251WAT     OW 3751   5.934   2.406   2.807
 1251WAT    HW1 3752   5.933   2.381   2.710
 1251WAT    HW2 3753   5.852   2.372   2.851
 1252WAT     OW 3754   1.030   2.994   4.570
 1252WAT    HW1 3755   1.087   2.949   4.639
 1252WAT    HW2 3756   0.977   3.067   4.612
 1253WAT     OW 3757   0.252   0.045   4.516
 1253WAT    HW1 3758   0.167   0.026   4.566
 1253WAT    HW2 3759   0.287  -0.040   4.477
 1254WAT     OW 3760   4.945   2.382   1.968
 1254WAT    HW1 3761   4.949   2.380   2.068
 1254WAT    HW2 3762   4.901   2.299   1.935
 1255WAT     OW 3763   4.956   1.888   0.845
 1255WAT    HW1 3764   4.921   1.932   0.928
 1255WAT    HW2 3765   5.051   1.861   0.860
 1256WAT     OW 3766   4.290   1.010   4.538
 1256WAT    HW1 3767   4.216   0.957   4.581
 1256WAT    HW2 3768   4.350   1.046   4.609
 1257WAT     OW 3769   4.403   5.675   2.447
 1257WAT    HW1 3770   4.467   5.631   2.384
 1257WAT    HW2 3771   4.450   5.747   2.498
 1258WAT     OW 3772   3.020   1.327   5.825
 1258WAT    HW1 3773   2.994   1.248   5.880
 1258WAT    HW2 3774   3.026   1.301   5.728
 1259WAT     OW 3775   5.707   4.231   4.370
 1259WAT    HW1 3776   5.794   4.183   4.384
 1259WAT    HW2 3777   5.669   4.204   4.282
 1260WAT     OW 3778   2.530   2.266   2.206
 1260WAT    HW1 3779   2.457   2.318   2.250
 1260WAT    HW2 3780   2.512   2.168   2.217
 1261WAT     OW 3781   2.976   5.546   3.642
 1261WAT    HW1 3782   2.893   5.514   3.688
 1261WAT    HW2 3783   3.057   5.516   3.693
 1262WAT     OW 3784   0.658   0.539   5.294
 1262WAT    HW1 3785   0.625   0.546   5.388
 1262WAT    HW2 3786   0.700   0.450   5.280
 1263WAT     OW 3787   3.651   0.619   5.722
 1263WAT    HW1 3788   3.743   0.634   5.687
 1263WAT    HW2 3789   3.598   0.703   5.712
 1264WAT     OW 3790   1.824   4.416   3.627
 1264WAT    HW1 3791   1.778   4.497   3.663
 1264WAT    HW2 3792   1.783   4.333   3.666
 1265WAT     OW 3793   0.303   6.447   1.729
 1265WAT    HW1 3794   0.258   6.357   1.733
 1265WAT    HW2 3795   0.295   6.484   1.636
 1266WAT     OW 3796   2.543   2.383   2.615
 1266WAT    HW1 3797   2.558   2.296   2.661
 1266WAT    HW2 3798   2.461   2.427   2.652
 1267WAT     OW 3799   4.489   0.356   2.982
 1267WAT    HW1 3800   4.524   0.325   2.894
 1267WAT    HW2 3801   4.556   0.416   3.026
 1268WAT     OW 3802   3.708   3.730   1.967
 1268WAT    HW1 3803   3.758   3.774   2.042
 1268WAT    HW2 3804   3.662   3.649   2.002
 1269WAT     OW 3805   1.911   6.382   1.246
 1269WAT    HW1 3806   1.985   6.317   1.227
 1269WAT    HW2 3807   1.941   6.474   1.223
 1270WAT     OW 3808   1.657   3.382   2.569
 1270WAT    HW1 3809   1.705   3.464   2.600
 1270WAT    HW2 3810   1.702   3.301   2.607
 1271WAT     OW 3811   0.486   6.074   2.041
 1271WAT    HW1 3812   0.569   6.120   2.008
 1271WAT    HW2 3813   0.491   6.063   2.140
 1272WAT     OW 3814   2.403   3.151   4.597
 1272WAT    HW1 3815   2.304   3.168   4.593
 1272WAT    HW2 3816   2.429   3.088   4.523
 1273WAT     OW 3817   1.672   4.212   3.740
 1273WAT    HW1 3818   1.640   4.127   3.783
 1273WAT    HW2 3819   1.606   4.284   3.758
 1274WAT     OW 3820   0.319   2.517   2.093
 1274WAT    HW1 3821   0.265   2.594   2.058
 1274WAT    HW2 3822   0.327   2.523   2.192
 1275WAT     OW 3823   6.549   5.391   1.660
 1275WAT    HW1 3824   6.507   5.302   1.677
 1275WAT    HW2 3825   6.593   5.424   1.743
 1276WAT     OW 3826   2.146   4.582   1.022
 1276WAT    HW1 3827   2.141   4.640   1.103
 1276WAT    HW2 3828   2.226   4.522   1.029
 1277WAT     OW 3829   2.637   1.339   5.334
 1277WAT    HW1 3830   2.578   1.419   5.333
 1277WAT    HW2 3831   2.714   1.356   5.396
 1278WAT     OW 3832   2.384   2.732   3.603
 1278WAT    HW1 3833   2.398   2.798   3.529
 1278WAT    HW2 3834   2.472   2.709   3.644
 1279WAT     OW 3835   2.291   1.145   6.533
 1279WAT    HW1 3836   2.216   1.106   6.586
 1279WAT    HW2 3837   2.313   1.237   6.568
 1280WAT     OW 3838   0.041   5.713   1.398
 1280WAT    HW1 3839  -0.026   5.639   1.402
 1280WAT    HW2 3840   0.056   5.739   1.302
 1281WAT     OW 3841   3.464   6.535   3.837
 1281WAT    HW1 3842   3.528   6.567   3.907
 1281WAT    HW2 3843   3.475   6.590   3.754
 1282WAT     OW 3844   5.265   4.513   0.506
 1282WAT    HW1 3845   5.332   4.537   0.577
 1282WAT    HW2 3846   5.191   4.579   0.506
 1283WAT     OW 3847   4.429   4.903   1.565
 1283WAT    HW1 3848   4.396   4.816   1.529
 1283WAT    HW2 3849   4.451   4.964   1.489
 1284WAT     OW 3850   1.393   4.764   3.019
 1284WAT    HW1 3851   1.418   4.678   2.974
 1284WAT    HW2 3852   1.398   4.752   3.118
 1285WAT     OW 3853   3.102   4.991   0.358
 1285WAT    HW1 3854   3.039   5.037   0.421
 1285WAT    HW2 3855   3.057   4.911   0.318
 1286WAT     OW 3856   1.411   5.610   2.695
 1286WAT    HW1 3857   1.433   5.667   2.616
 1286WAT    HW2 3858   1.432   5.515   2.674
 1287WAT     OW 3859   6.647   4.885   5.535
 1287WAT    HW1 3860   6.617   4.893   5.631
 1287WAT    HW2 3861   6.653   4.788   5.511
 1288WAT     OW 3862   4.975   2.032   1.682
 1288WAT    HW1 3863   4.987   1.936   1.705
 1288WAT    HW2 3864   4.941   2.040   1.589
 1289WAT     OW 3865   0.312   1.819   2.661
 1289WAT    HW1 3866   0.242   1.771   2.607
 1289WAT    HW2 3867   0.326   1.910   2.624
 1290WAT     OW 3868   3.579   5.202   3.138
 1290WAT    HW1 3869   3.488   5.237   3.160
 1290WAT    HW2 3870   3.583   5.179   3.041
 1291WAT     OW 3871   4.935   3.420   4.184
 1291WAT    HW1 3872   4.906   3.328   4.158
 1291WAT    HW2 3873   4.988   3.460   4.109
 1292WAT     OW 3874   2.519   4.415   4.957
 1292WAT    HW1 3875   2.465   4.381   5.034
 1292WAT    HW2 3876   2.605   4.454   4.991
 1293WAT     OW 3877   0.675   2.904   6.556
 1293WAT    HW1 3878   0.726   2.872   6.636
 1293WAT    HW2 3879   0.739   2.933   6.485
 1294WAT     OW 3880   4.944   0.436   3.789
 1294WAT    HW1 3881   4.935   0.365   3.720
 1294WAT    HW2 3882   4.943   0.395   3.880
 1295WAT     OW 3883   1.424   3.513   3.148
 1295WAT    HW1 3884   1.444   3.485   3.054
 1295WAT    HW2 3885   1.484   3.588   3.174
 1296WAT     OW 3886   5.293   3.819   1.292
 1296WAT    HW1 3887   5.205   3.856   1.321
 1296WAT    HW2 3888   5.307   3.729   1.334
 1297WAT     OW 3889   5.865   6.510   5.345
 1297WAT    HW1 3890   5.855   6.462   5.258
 1297WAT    HW2 3891   5.943   6.573   5.340
 1298WAT     OW 3892   1.977   3.077   0.341
 1298WAT    HW1 3893   2.013   3.137   0.270
 1298WAT    HW2 3894   1.881   3.101   0.360
 1299WAT     OW 3895   6.619   6.455   1.762
 1299WAT    HW1 3896   6.664   6.421   1.679
 1299WAT    HW2 3897   6.524   6.479   1.741
 1300WAT     OW 3898   5.519   2.278   6.489
 1300WAT    HW1 3899   5.554   2.351   6.430
 1300WAT    HW2 3900   5.515   2.311   6.584
 1301WAT     OW 3901   3.498   4.755   0.030
 1301WAT    HW1 3902   3.434   4.689  -0.009
 1301WAT    HW2 3903   3.492   4.841  -0.019
 1302WAT     OW 3904   2.156   1.190   3.867
 1302WAT    HW1 3905   2.211   1.107   3.851
 1302WAT    HW2 3906   2.166   1.218   3.963
 1303WAT     OW 3907   2.538   4.209   3.440
 1303WAT    HW1 3908   2.624   4.157   3.435
 1303WAT    HW2 3909   2.462   4.145   3.453
 1304WAT     OW 3910   4.195   1.607   3.363
 1304WAT    HW1 3911   4.136   1.535   3.402
 1304WAT    HW2 3912   4.212   1.676   3.432
 1305WAT     OW 3913   2.464   3.542   0.633
 1305WAT    HW1 3914   2.471   3.456   0.684
 1305WAT    HW2 3915   2.449   3.521   0.536
 1306WAT     OW 3916   2.198   3.504   2.406
 1306WAT    HW1 3917   2.225   3.599   2.394
 1306WAT    HW2 3918   2.099   3.499   2.421
 1307WAT     OW 3919   3.902   3.643   4.746
 1307WAT    HW1 3920   3.926   3.701   4.823
 1307WAT    HW2 3921   3.802   3.635   4.739
 1308WAT     OW 3922   2.077   0.425   0.445
 1308WAT    HW1 3923   2.017   0.361   0.398
 1308WAT    HW2 3924   2.153   0.375   0.486
 1309WAT     OW 3925   1.207   0.184   2.314
 1309WAT    HW1 3926   1.192   0.216   2.407
 1309WAT    HW2 3927   1.283   0.235   2.273
 1310WAT     OW 3928   6.129   0.052   6.163
 1310WAT    HW1 3929   6.116   0.116   6.239
 1310WAT    HW2 3930   6.092   0.092   6.079
 1311WAT     OW 3931   0.684   5.696   0.824
 1311WAT    HW1 3932   0.752   5.634   0.784
 1311WAT    HW2 3933   0.604   5.643   0.853
 1312WAT     OW 3934   1.708   2.340   2.277
 1312WAT    HW1 3935   1.730   2.420   2.221
 1312WAT    HW2 3936   1.792   2.300   2.313
 1313WAT     OW 3937   5.083   2.802   0.581
 1313WAT    HW1 3938   5.073   2.866   0.505
 1313WAT    HW2 3939   5.050   2.845   0.665
 1314WAT     OW 3940   1.202   0.135   0.371
 1314WAT    HW1 3941   1.145   0.187   0.308
 1314WAT    HW2 3942   1.236   0.053   0.326
 1315WAT     OW 3943   3.040   2.441   1.170
 1315WAT    HW1 3944   2.987   2.359   1.190
 1315WAT    HW2 3945   3.011   2.515   1.230
 1316WAT     OW 3946   5.732   3.988   3.557
 1316WAT    HW1 3947   5.716   4.077   3.515
 1316WAT    HW2 3948   5.740   3.999   3.656
 1317WAT     OW 3949   5.548   5.588   4.927
 1317WAT    HW1 3950   5.548   5.553   4.833
 1317WAT    HW2 3951   5.466   5.556   4.975
 1318WAT     OW 3952   2.741   3.522   0.942
 1318WAT    HW1 3953   2.756   3.517   1.041
 1318WAT    HW2 3954   2.696   3.609   0.919
 1319WAT     OW 3955   2.551   4.611   4.143
 1319WAT    HW1 3956   2.457   4.577   4.150
 1319WAT    HW2 3957   2.601   4.589   4.226
 1320WAT     OW 3958   5.078   1.593   1.557
 1320WAT    HW1 3959   5.050   1.654   1.632
 1320WAT    HW2 3960   5.052   1.499   1.580
 1321WAT     OW 3961   2.281   5.430   0.238
 1321WAT    HW1 3962   2.341   5.357   0.203
 1321WAT    HW2 3963   2.277   5.424   0.337
 1322WAT     OW 3964   0.073   1.095   4.952
 1322WAT    HW1 3965   0.150   1.035   4.928
 1322WAT    HW2 3966   0.048   1.081   5.048
 1323WAT     OW 3967   0.055   6.133   5.999
 1323WAT    HW1 3968  -0.017   6.201   5.979
 1323WAT    HW2 3969   0.017   6.041   5.989
 1324WAT     OW 3970   3.049   4.948   5.237
 1324WAT    HW1 3971   3.059   5.043   5.267
 1324WAT    HW2 3972   3.082   4.939   5.143
 1325WAT     OW 3973   3.244   3.517   0.451
 1325WAT    HW1 3974   3.230   3.611   0.480
 1325WAT    HW2 3975   3.324   3.511   0.391
 1326WAT     OW 3976   5.271   2.715   2.690
 1326WAT    HW1 3977   5.188   2.674   2.654
 1326WAT    HW2 3978   5.345   2.648   2.687
 1327WAT     OW 3979   5.290   0.496   1.120
 1327WAT    HW1 3980   5.251   0.440   1.193
 1327WAT    HW2 3981   5.390   0.488   1.123
 1328WAT     OW 3982   3.992   2.653   5.269
 1328WAT    HW1 3983   4.007   2.732   5.328
 1328WAT    HW2 3984   3.911   2.668   5.213
 1329WAT     OW 3985   0.401   3.249   4.753
 1329WAT    HW1 3986   0.384   3.223   4.848
 1329WAT    HW2 3987   0.394   3.168   4.694
 1330WAT     OW 3988   6.041   5.734   1.472
 1330WAT    HW1 3989   6.060   5.679   1.554
 1330WAT    HW2 3990   6.030   5.830   1.499
 1331WAT     OW 3991   2.797   3.337   4.442
 1331WAT    HW1 3992   2.752   3.424   4.422
 1331WAT    HW2 3993   2.896   3.350   4.442
 1332WAT     OW 3994   3.378   3.358   0.638
 1332WAT    HW1 3995   3.319   3.409   0.575
 1332WAT    HW2 3996   3.425   3.285   0.587
 1333WAT     OW 3997   6.257   1.528   2.537
 1333WAT    HW1 3998   6.261   1.517   2.437
 1333WAT    HW2 3999   6.282   1.622   2.561
 1334WAT     OW 4000   1.083   4.951   6.420
 1334WAT    HW1 4001   1.176   4.943   6.384
 1334WAT    HW2 4002   1.069   4.883   6.491
 1335WAT     OW 4003   6.134   5.931   0.200
 1335WAT    HW1 4004   6.042   5.939   0.161
 1335WAT    HW2 4005   6.148   6.003   0.268
 1336WAT     OW 4006   3.328   3.075   3.624
 1336WAT    HW1 4007   3.350   3.164   3.666
 1336WAT    HW2 4008   3.329   3.004   3.694
 1337WAT     OW 4009   0.890   0.361   1.999
 1337WAT    HW1 4010   0.905   0.270   2.038
 1337WAT    HW2 4011   0.873   0.427   2.072
 1338WAT     OW 4012   1.099   6.655   5.728
 1338WAT    HW1 4013   1.165   6.605   5.671
 1338WAT    HW2 4014   1.138   6.668   5.819
 1339WAT     OW 4015   5.911   1.688   1.255
 1339WAT    HW1 4016   5.988   1.660   1.197
 1339WAT    HW2 4017   5.918   1.643   1.344
 1340WAT     OW 4018   6.186   1.715   3.268
 1340WAT    HW1 4019   6.128   1.665   3.204
 1340WAT    HW2 4020   6.233   1.650   3.327
 1341WAT     OW 4021   1.029   6.601   1.855
 1341WAT    HW1 4022   1.030   6.533   1.782
 1341WAT    HW2 4023   1.100   6.669   1.837
 1342WAT     OW 4024   4.088   3.578   5.866
 1342WAT    HW1 4025   4.154   3.591   5.940
 1342WAT    HW2 4026   4.012   3.521   5.898
 1343WAT     OW 4027   1.607   5.052   0.016
 1343WAT    HW1 4028   1.661   5.097  -0.056
 1343WAT    HW2 4029   1.548   5.119   0.060
 1344WAT     OW 4030   3.269   0.988   3.191
 1344WAT    HW1 4031   3.213   0.905   3.191
 1344WAT    HW2 4032   3.211   1.068   3.178
 1345WAT     OW 4033   3.451   3.297   1.428
 1345WAT    HW1 4034   3.490   3.350   1.502
 1345WAT    HW2 4035   3.352   3.288   1.441
 1346WAT     OW 4036   4.586   6.130   0.420
 1346WAT    HW1 4037   4.611   6.111   0.516
 1346WAT    HW2 4038   4.507   6.075   0.395
 1347WAT     OW 4039   4.161   2.107   2.033
 1347WAT    HW1 4040   4.254   2.085   2.061
 1347WAT    HW2 4041   4.159   2.199   1.992
 1348WAT     OW 4042   4.875   0.757   1.534
 1348WAT    HW1 4043   4.866   0.841   1.480
 1348WAT    HW2 4044   4.790   0.705   1.530
 1349WAT     OW 4045   1.312   0.502   1.532
 1349WAT    HW1 4046   1.386   0.569   1.524
 1349WAT    HW2 4047   1.286   0.470   1.441
 1350WAT     OW 4048   2.194   4.735   3.637
 1350WAT    HW1 4049   2.206   4.799   3.713
 1350WAT    HW2 4050   2.148   4.781   3.562
 1351WAT     OW 4051   5.836   2.093   4.530
 1351WAT    HW1 4052   5.799   2.142   4.451
 1351WAT    HW2 4053   5.849   2.156   4.606
 1352WAT     OW 4054   3.006   2.151   6.541
 1352WAT    HW1 4055   2.951   2.206   6.478
 1352WAT    HW2 4056   3.099   2.187   6.544
 1353WAT     OW 4057   0.568   1.944   3.870
 1353WAT    HW1 4058   0.553   1.992   3.783
 1353WAT    HW2 4059   0.655   1.896   3.867
 1354WAT     OW 4060   6.640   6.364   4.304
 1354WAT    HW1 4061   6.557   6.315   4.279
 1354WAT    HW2 4062   6.621   6.426   4.381
 1355WAT     OW 4063   5.270   5.905   1.954
 1355WAT    HW1 4064   5.241   5.818   1.992
 1355WAT    HW2 4065   5.359   5.894   1.908
 1356WAT     OW 4066   2.099   1.432   1.145
 1356WAT    HW1 4067   2.007   1.459   1.173
 1356WAT    HW2 4068   2.116   1.338   1.175
 1357WAT     OW 4069   4.273   6.389   1.635
 1357WAT    HW1 4070   4.350   6.365   1.576
 1357WAT    HW2 4071   4.227   6.305   1.665
 1358WAT     OW 4072   4.163   3.947   2.447
 1358WAT    HW1 4073   4.203   3.864   2.408
 1358WAT    HW2 4074   4.189   3.953   2.543
 1359WAT     OW 4075   5.020   1.526   3.567
 1359WAT    HW1 4076   5.117   1.503   3.561
 1359WAT    HW2 4077   5.007   1.622   3.540
 1360WAT     OW 4078   5.883   1.284   1.883
 1360WAT    HW1 4079   5.859   1.215   1.952
 1360WAT    HW2 4080   5.983   1.283   1.870
 1361WAT     OW 4081   3.202   3.706   3.276
 1361WAT    HW1 4082   3.155   3.787   3.241
 1361WAT    HW2 4083   3.138   3.629   3.277
 1362WAT     OW 4084   5.923   0.835   4.234
 1362WAT    HW1 4085   5.986   0.766   4.200
 1362WAT    HW2 4086   5.918   0.911   4.168
 1363WAT     OW 4087   0.233   1.964   6.171
 1363WAT    HW1 4088   0.157   1.942   6.109
 1363WAT    HW2 4089   0.211   1.933   6.263
 1364WAT     OW 4090   1.542   1.659   1.651
 1364WAT    HW1 4091   1.536   1.692   1.746
 1364WAT    HW2 4092   1.559   1.737   1.590
 1365WAT     OW 4093   3.873   3.584   1.288
 1365WAT    HW1 4094   3.842   3.507   1.232
 1365WAT    HW2 4095   3.888   3.664   1.230
 1366WAT     OW 4096   0.140   1.684   3.146
 1366WAT    HW1 4097   0.213   1.624   3.179
 1366WAT    HW2 4098   0.168   1.727   3.060
 1367WAT     OW 4099   6.584   3.091   5.226
 1367WAT    HW1 4100   6.667   3.089   5.169
 1367WAT    HW2 4101   6.580   3.177   5.276
 1368WAT     OW 4102   6.365   0.130   4.687
 1368WAT    HW1 4103   6.453   0.165   4.719
 1368WAT    HW2 4104   6.364   0.129   4.587
 1369WAT     OW 4105   6.139   0.052   1.399
 1369WAT    HW1 4106   6.227   0.050   1.447
 1369WAT    HW2 4107   6.090  -0.033   1.416
 1370WAT     OW 4108   4.621   2.263   4.925
 1370WAT    HW1 4109   4.525   2.282   4.908
 1370WAT    HW2 4110   4.673   2.273   4.840
 1371WAT     OW 4111   3.245   5.137   3.749
 1371WAT    HW1 4112   3.269   5.102   3.839
 1371WAT    HW2 4113   3.328   5.169   3.703
 1372WAT     OW 4114   2.735   6.044   0.233
 1372WAT    HW1 4115   2.774   5.968   0.181
 1372WAT    HW2 4116   2.807   6.107   0.259
 1373WAT     OW 4117   3.402   1.861   3.839
 1373WAT    HW1 4118   3.350   1.849   3.755
 1373WAT    HW2 4119   3.349   1.827   3.916
 1374WAT     OW 4120   4.746   0.589   2.519
 1374WAT    HW1 4121   4.679   0.577   2.593
 1374WAT    HW2 4122   4.740   0.682   2.484
 1375WAT     OW 4123   0.199   6.193   1.717
 1375WAT    HW1 4124   0.115   6.139   1.713
 1375WAT    HW2 4125   0.255   6.174   1.636
 1376WAT     OW 4126   0.190   2.188   3.486
 1376WAT    HW1 4127   0.091   2.182   3.473
 1376WAT    HW2 4128   0.212   2.165   3.581
 1377WAT     OW 4129   5.571   6.132   5.556
 1377WAT    HW1 4130   5.569   6.218   5.608
 1377WAT    HW2 4131   5.595   6.152   5.461
 1378WAT     OW 4132   4.603   4.411   5.958
 1378WAT    HW1 4133   4.669   4.429   6.032
 1378WAT    HW2 4134   4.645   4.431   5.870
 1379WAT     OW 4135   2.944   6.606   4.470
 1379WAT    HW1 4136   2.922   6.689   4.520
 1379WAT    HW2 4137   2.901   6.528   4.515
 1380WAT     OW 4138   4.354   3.872   3.883
 1380WAT    HW1 4139   4.355   3.928   3.800
 1380WAT    HW2 4140   4.374   3.777   3.858
 1381WAT     OW 4141   0.401   5.810   4.556
 1381WAT    HW1 4142   0.446   5.735   4.604
 1381WAT    HW2 4143   0.418   5.802   4.457
 1382WAT     OW 4144   6.565   3.964   3.981
 1382WAT    HW1 4145   6.529   4.003   3.896
 1382WAT    HW2 4146   6.662   3.986   3.990
 1383WAT     OW 4147   2.380   5.578   4.265
 1383WAT    HW1 4148   2.431   5.644   4.211
 1383WAT    HW2 4149   2.432   5.553   4.346
 1384WAT     OW 4150   4.736   3.431   6.033
 1384WAT    HW1 4151   4.650   3.381   6.024
 1384WAT    HW2 4152   4.810   3.379   5.990
 1385WAT     OW 4153   2.284   3.103   6.481
 1385WAT    HW1 4154   2.247   3.079   6.391
 1385WAT    HW2 4155   2.339   3.026   6.516
 1386WAT     OW 4156   2.345   6.264   5.784
 1386WAT    HW1 4157   2.434   6.241   5.824
 1386WAT    HW2 4158   2.277   6.273   5.857
 1387WAT     OW 4159   3.766   4.389   0.330
 1387WAT    HW1 4160   3.837   4.324   0.358
 1387WAT    HW2 4161   3.683   4.374   0.383
 1388WAT     OW 4162   1.414   4.283   4.954
 1388WAT    HW1 4163   1.360   4.356   4.912
 1388WAT    HW2 4164   1.489   4.257   4.893
 1389WAT     OW 4165   0.255   3.192   2.318
 1389WAT    HW1 4166   0.327   3.123   2.317
 1389WAT    HW2 4167   0.229   3.214   2.224
 1390WAT     OW 4168   3.152   0.256   1.951
 1390WAT    HW1 4169   3.171   0.184   1.884
 1390WAT    HW2 4170   3.061   0.295   1.933
 1391WAT     OW 4171   3.430   1.479   2.587
 1391WAT    HW1 4172   3.436   1.561   2.530
 1391WAT    HW2 4173   3.493   1.410   2.551
 1392WAT     OW 4174   0.312   4.192   1.963
 1392WAT    HW1 4175   0.412   4.188   1.971
 1392WAT    HW2 4176   0.274   4.100   1.971
 1393WAT     OW 4177   1.534   3.865   4.388
 1393WAT    HW1 4178   1.567   3.776   4.355
 1393WAT    HW2 4179   1.466   3.901   4.324
 1394WAT     OW 4180   2.837   4.423   4.790
 1394WAT    HW1 4181   2.807   4.469   4.874
 1394WAT    HW2 4182   2.764   4.363   4.757
 1395WAT     OW 4183   2.147   4.899   5.748
 1395WAT    HW1 4184   2.186   4.809   5.732
 1395WAT    HW2 4185   2.220   4.968   5.741
 1396WAT     OW 4186   3.728   4.443   2.136
 1396WAT    HW1 4187   3.790   4.411   2.207
 1396WAT    HW2 4188   3.716   4.371   2.067
 1397WAT     OW 4189   4.910   2.023   1.081
 1397WAT    HW1 4190   4.988   2.017   1.144
 1397WAT    HW2 4191   4.886   2.118   1.066
 1398WAT     OW 4192   3.410   1.870   2.981
 1398WAT    HW1 4193   3.400   1.774   3.006
 1398WAT    HW2 4194   3.321   1.915   2.987
 1399WAT     OW 4195   6.578   3.722   1.154
 1399WAT    HW1 4196   6.594   3.709   1.252
 1399WAT    HW2 4197   6.629   3.803   1.123
 1400WAT     OW 4198   3.119   3.396   1.766
 1400WAT    HW1 4199   3.026   3.363   1.781
 1400WAT    HW2 4200   3.146   3.456   1.842
 1401WAT     OW 4201   2.902   5.843   5.297
 1401WAT    HW1 4202   2.826   5.807   5.243
 1401WAT    HW2 4203   2.895   5.943   5.303
 1402WAT     OW 4204   6.237   1.015   0.124
 1402WAT    HW1 4205   6.326   1.042   0.089
 1402WAT    HW2 4206   6.187   0.965   0.053
 1403WAT     OW 4207   2.003   5.653   2.512
 1403WAT    HW1 4208   2.084   5.623   2.562
 1403WAT    HW2 4209   1.925   5.656   2.575
 1404WAT     OW 4210   4.406   2.964   3.655
 1404WAT    HW1 4211   4.336   3.034   3.660
 1404WAT    HW2 4212   4.485   2.998   3.604
 1405WAT     OW 4213   0.701   1.894   6.210
 1405WAT    HW1 4214   0.767   1.852   6.149
 1405WAT    HW2 4215   0.739   1.977   6.251
 1406WAT     OW 4216   3.672   4.453   5.958
 1406WAT    HW1 4217   3.585   4.405   5.946
 1406WAT    HW2 4218   3.747   4.391   5.935
 1407WAT     OW 4219   0.232   1.641   2.038
 1407WAT    HW1 4220   0.199   1.729   2.072
 1407WAT    HW2 4221   0.277   1.590   2.111
 1408WAT     OW 4222   0.365   4.808   5.520
 1408WAT    HW1 4223   0.355   4.886   5.581
 1408WAT    HW2 4224   0.306   4.733   5.551
 1409WAT     OW 4225   5.637   1.808   3.592
 1409WAT    HW1 4226   5.728   1.839   3.563
 1409WAT    HW2 4227   5.569   1.879   3.570
 1410WAT     OW 4228   4.849   4.516   3.461
 1410WAT    HW1 4229   4.760   4.551   3.432
 1410WAT    HW2 4230   4.912   4.592   3.473
 1411WAT     OW 4231   1.056   3.089   2.015
 1411WAT    HW1 4232   1.091   3.174   2.053
 1411WAT    HW2 4233   0.994   3.109   1.940
 1412WAT     OW 4234   1.874   1.601   4.960
 1412WAT    HW1 4235   1.818   1.519   4.952
 1412WAT    HW2 4236   1.815   1.681   4.973
 1413WAT     OW 4237   1.129   2.044   3.538
 1413WAT    HW1 4238   1.178   2.102   3.602
 1413WAT    HW2 4239   1.123   2.090   3.449
 1414WAT     OW 4240   2.056   6.308   3.230
 1414WAT    HW1 4241   1.972   6.349   3.194
 1414WAT    HW2 4242   2.134   6.362   3.200
 1415WAT     OW 4243   2.737   0.353   2.133
 1415WAT    HW1 4244   2.646   0.385   2.106
 1415WAT    HW2 4245   2.787   0.428   2.177
 1416WAT     OW 4246   5.610   0.046   4.459
 1416WAT    HW1 4247   5.665  -0.005   4.392
 1416WAT    HW2 4248   5.624   0.007   4.550
 1417WAT     OW 4249   2.822   5.532   5.673
 1417WAT    HW1 4250   2.840   5.524   5.771
 1417WAT    HW2 4251   2.796   5.443   5.636
 1418WAT     OW 4252   0.787   3.154   3.196
 1418WAT    HW1 4253   0.692   3.165   3.167
 1418WAT    HW2 4254   0.830   3.081   3.143
 1419WAT     OW 4255   6.294   5.430   2.537
 1419WAT    HW1 4256   6.342   5.472   2.614
 1419WAT    HW2 4257   6.280   5.333   2.556
 1420WAT     OW 4258   0.140   0.335   2.615
 1420WAT    HW1 4259   0.076   0.341   2.538
 1420WAT    HW2 4260   0.130   0.247   2.660
 1421WAT     OW 4261   2.685   3.688   3.082
 1421WAT    HW1 4262   2.661   3.592   3.066
 1421WAT    HW2 4263   2.606   3.746   3.065
 1422WAT     OW 4264   1.840   0.206   1.646
 1422WAT    HW1 4265   1.773   0.263   1.693
 1422WAT    HW2 4266   1.851   0.120   1.696
 1423WAT     OW 4267   3.125   2.282   6.052
 1423WAT    HW1 4268   3.137   2.216   6.125
 1423WAT    HW2 4269   3.067   2.243   5.980
 1424WAT     OW 4270   5.697   2.594   3.524
 1424WAT    HW1 4271   5.601   2.568   3.515
 1424WAT    HW2 4272   5.733   2.620   3.434
 1425WAT     OW 4273   3.878   1.208   3.531
 1425WAT    HW1 4274   3.922   1.138   3.588
 1425WAT    HW2 4275   3.870   1.175   3.437
 1426WAT     OW 4276   3.194   0.398   5.331
 1426WAT    HW1 4277   3.242   0.432   5.251
 1426WAT    HW2 4278   3.216   0.454   5.411
 1427WAT     OW 4279   4.074   2.039   3.703
 1427WAT    HW1 4280   4.102   1.969   3.769
 1427WAT    HW2 4281   4.098   2.129   3.738
 1428WAT     OW 4282   6.671   5.549   3.813
 1428WAT    HW1 4283   6.626   5.546   3.724
 1428WAT    HW2 4284   6.725   5.633   3.820
 1429WAT     OW 4285   5.878   0.956   4.721
 1429WAT    HW1 4286   5.928   1.025   4.774
 1429WAT    HW2 4287   5.917   0.951   4.629
 1430WAT     OW 4288   2.102   6.055   3.155
 1430WAT    HW1 4289   2.081   6.149   3.181
 1430WAT    HW2 4290   2.023   5.997   3.176
 1431WAT     OW 4291   2.392   4.335   4.038
 1431WAT    HW1 4292   2.424   4.244   4.066
 1431WAT    HW2 4293   2.384   4.338   3.939
 1432WAT     OW 4294   3.866   1.889   3.602
 1432WAT    HW1 4295   3.931   1.949   3.649
 1432WAT    HW2 4296   3.773   1.912   3.631
 1433WAT     OW 4297   3.358   5.499   5.834
 1433WAT    HW1 4298   3.336   5.588   5.794
 1433WAT    HW2 4299   3.322   5.494   5.927
 1434WAT     OW 4300   5.496   2.201   1.275
 1434WAT    HW1 4301   5.462   2.164   1.361
 1434WAT    HW2 4302   5.430   2.183   1.202
 1435WAT     OW 4303   6.182   3.130   6.658
 1435WAT    HW1 4304   6.101   3.166   6.611
 1435WAT    HW2 4305   6.169   3.135   6.757
 1436WAT     OW 4306   5.531   4.522   5.865
 1436WAT    HW1 4307   5.459   4.591   5.873
 1436WAT    HW2 4308   5.544   4.499   5.769
 1437WAT     OW 4309   5.493   2.939   3.041
 1437WAT    HW1 4310   5.548   2.981   2.968
 1437WAT    HW2 4311   5.552   2.918   3.119
 1438WAT     OW 4312   4.257   1.696   2.799
 1438WAT    HW1 4313   4.329   1.745   2.848
 1438WAT    HW2 4314   4.168   1.729   2.830
 1439WAT     OW 4315   2.553   5.825   0.757
 1439WAT    HW1 4316   2.595   5.853   0.671
 1439WAT    HW2 4317   2.594   5.877   0.832
 1440WAT     OW 4318   5.804   5.420   0.115
 1440WAT    HW1 4319   5.889   5.448   0.160
 1440WAT    HW2 4320   5.823   5.396   0.019
 1441WAT     OW 4321   5.847   1.461   3.887
 1441WAT    HW1 4322   5.945   1.470   3.872
 1441WAT    HW2 4323   5.802   1.547   3.864
 1442WAT     OW 4324   5.733   0.972   5.726
 1442WAT    HW1 4325   5.679   0.934   5.801
 1442WAT    HW2 4326   5.817   1.011   5.762
 1443WAT     OW 4327   2.100   6.188   1.196
 1443WAT    HW1 4328   2.149   6.189   1.109
 1443WAT    HW2 4329   2.041   6.108   1.200
 1444WAT     OW 4330   3.487   6.081   2.042
 1444WAT    HW1 4331   3.404   6.105   1.993
 1444WAT    HW2 4332   3.505   5.983   2.031
 1445WAT     OW 4333   4.425   3.968   6.141
 1445WAT    HW1 4334   4.475   3.972   6.228
 1445WAT    HW2 4335   4.434   4.055   6.093
 1446WAT     OW 4336   3.193   0.053   1.777
 1446WAT    HW1 4337   3.222  -0.032   1.822
 1446WAT    HW2 4338   3.125   0.032   1.707
 1447WAT     OW 4339   4.397   0.371   0.378
 1447WAT    HW1 4340   4.298   0.369   0.365
 1447WAT    HW2 4341   4.418   0.375   0.475
 1448WAT     OW 4342   6.633   4.524   3.362
 1448WAT    HW1 4343   6.582   4.565   3.287
 1448WAT    HW2 4344   6.579   4.450   3.402
 1449WAT     OW 4345   2.068   6.268   4.057
 1449WAT    HW1 4346   2.126   6.341   4.092
 1449WAT    HW2 4347   2.123   6.205   4.003
 1450WAT     OW 4348   2.387   0.434   6.552
 1450WAT    HW1 4349   2.353   0.364   6.490
 1450WAT    HW2 4350   2.357   0.414   6.645
 1451WAT     OW 4351   6.538   5.901   1.083
 1451WAT    HW1 4352   6.505   5.934   1.172
 1451WAT    HW2 4353   6.626   5.856   1.094
 1452WAT     OW 4354   2.445   4.183   2.984
 1452WAT    HW1 4355   2.481   4.110   2.926
 1452WAT    HW2 4356   2.425   4.263   2.927
 1453WAT     OW 4357   5.718   4.248   3.437
 1453WAT    HW1 4358   5.805   4.291   3.463
 1453WAT    HW2 4359   5.705   4.257   3.338
 1454WAT     OW 4360   2.442   4.932   1.634
 1454WAT    HW1 4361   2.452   4.986   1.718
 1454WAT    HW2 4362   2.471   4.987   1.556
 1455WAT     OW 4363   1.300   3.703   0.698
 1455WAT    HW1 4364   1.334   3.779   0.754
 1455WAT    HW2 4365   1.256   3.635   0.756
 1456WAT     OW 4366   2.425   3.969   5.585
 1456WAT    HW1 4367   2.512   4.011   5.558
 1456WAT    HW2 4368   2.360   4.041   5.609
 1457WAT     OW 4369   3.849   6.518   1.583
 1457WAT    HW1 4370   3.828   6.572   1.502
 1457WAT    HW2 4371   3.845   6.421   1.561
 1458WAT     OW 4372   0.583   2.107   5.769
 1458WAT    HW1 4373   0.579   2.186   5.707
 1458WAT    HW2 4374   0.607   2.138   5.861
 1459WAT     OW 4375   1.959   1.533   0.100
 1459WAT    HW1 4376   2.008   1.469   0.041
 1459WAT    HW2 4377   1.947   1.620   0.052
 1460WAT     OW 4378   1.554   2.560   0.651
 1460WAT    HW1 4379   1.574   2.551   0.554
 1460WAT    HW2 4380   1.494   2.638   0.666
 1461WAT     OW 4381   1.904   1.519   4.133
 1461WAT    HW1 4382   1.851   1.495   4.052
 1461WAT    HW2 4383   2.001   1.525   4.109
 1462WAT     OW 4384   4.980   6.088   5.479
 1462WAT    HW1 4385   4.984   5.988   5.480
 1462WAT    HW2 4386   4.891   6.118   5.513
 1463WAT     OW 4387   1.327   6.561   4.026
 1463WAT    HW1 4388   1.345   6.657   4.046
 1463WAT    HW2 4389   1.253   6.528   4.085
 1464WAT     OW 4390   3.554   1.712   0.064
 1464WAT    HW1 4391   3.603   1.646   0.008
 1464WAT    HW2 4392   3.515   1.784   0.005
 1465WAT     OW 4393   5.572   4.851   0.722
 1465WAT    HW1 4394   5.665   4.815   0.729
 1465WAT    HW2 4395   5.550   4.903   0.804
 1466WAT     OW 4396   5.858   6.424   5.729
 1466WAT    HW1 4397   5.909   6.501   5.690
 1466WAT    HW2 4398   5.880   6.415   5.826
 1467WAT     OW 4399   1.209   4.317   1.484
 1467WAT    HW1 4400   1.298   4.358   1.470
 1467WAT    HW2 4401   1.217   4.217   1.480
 1468WAT     OW 4402   3.389   1.394   5.804
 1468WAT    HW1 4403   3.313   1.458   5.805
 1468WAT    HW2 4404   3.381   1.332   5.726
 1469WAT     OW 4405   3.906   4.020   4.373
 1469WAT    HW1 4406   3.950   3.932   4.355
 1469WAT    HW2 4407   3.807   4.010   4.360
 1470WAT     OW 4408   5.109   4.573   4.908
 1470WAT    HW1 4409   5.170   4.631   4.855
 1470WAT    HW2 4410   5.014   4.596   4.887
 1471WAT     OW 4411   2.495   1.796   1.553
 1471WAT    HW1 4412   2.489   1.752   1.643
 1471WAT    HW2 4413   2.590   1.817   1.532
 1472WAT     OW 4414   0.152   5.474   6.111
 1472WAT    HW1 4415   0.166   5.383   6.150
 1472WAT    HW2 4416   0.055   5.494   6.107
 1473WAT     OW 4417   1.474   5.793   2.496
 1473WAT    HW1 4418   1.413   5.872   2.495
 1473WAT    HW2 4419   1.477   5.752   2.404
 1474WAT     OW 4420   5.749   4.073   1.697
 1474WAT    HW1 4421   5.692   4.087   1.779
 1474WAT    HW2 4422   5.791   3.983   1.700
 1475WAT     OW 4423   3.365   0.767   0.468
 1475WAT    HW1 4424   3.392   0.734   0.378
 1475WAT    HW2 4425   3.273   0.735   0.489
 1476WAT     OW 4426   1.836   1.976   3.338
 1476WAT    HW1 4427   1.865   1.902   3.278
 1476WAT    HW2 4428   1.885   1.971   3.424
 1477WAT     OW 4429   4.127   3.848   4.037
 1477WAT    HW1 4430   4.204   3.876   3.979
 1477WAT    HW2 4431   4.140   3.884   4.129
 1478WAT     OW 4432   0.276   0.418   5.272
 1478WAT    HW1 4433   0.224   0.481   5.330
 1478WAT    HW2 4434   0.339   0.470   5.215
 1479WAT     OW 4435   2.139   0.619   4.979
 1479WAT    HW1 4436   2.199   0.699   4.975
 1479WAT    HW2 4437   2.083   0.615   4.897
 1480WAT     OW 4438   0.020   0.394   1.545
 1480WAT    HW1 4439   0.086   0.328   1.581
 1480WAT    HW2 4440   0.016   0.474   1.606
 1481WAT     OW 4441   1.725   4.868   1.444
 1481WAT    HW1 4442   1.654   4.926   1.403
 1481WAT    HW2 4443   1.683   4.802   1.506
 1482WAT     OW 4444   5.293   1.476   3.585
 1482WAT    HW1 4445   5.376   1.513   3.542
 1482WAT    HW2 4446   5.279   1.521   3.673
 1483WAT     OW 4447   5.685   4.602   4.159
 1483WAT    HW1 4448   5.723   4.557   4.079
 1483WAT    HW2 4449   5.633   4.683   4.132
 1484WAT     OW 4450   3.111   1.733   0.112
 1484WAT    HW1 4451   3.052   1.714   0.191
 1484WAT    HW2 4452   3.065   1.798   0.052
 1485WAT     OW 4453   4.297   3.375   1.634
 1485WAT    HW1 4454   4.300   3.300   1.700
 1485WAT    HW2 4455   4.239   3.350   1.557
 1486WAT     OW 4456   2.543   4.006   0.230
 1486WAT    HW1 4457   2.571   4.053   0.313
 1486WAT    HW2 4458   2.449   4.031   0.207
 1487WAT     OW 4459   5.059   3.376   5.111
 1487WAT    HW1 4460   5.069   3.324   5.026
 1487WAT    HW2 4461   5.121   3.453   5.111
 1488WAT     OW 4462   2.884   4.749   5.112
 1488WAT    HW1 4463   2.919   4.829   5.160
 1488WAT    HW2 4464   2.951   4.675   5.118
 1489WAT     OW 4465   2.099   2.376   3.417
 1489WAT    HW1 4466   2.160   2.413   3.487
 1489WAT    HW2 4467   2.120   2.279   3.403
 1490WAT     OW 4468   1.503   4.950   1.845
 1490WAT    HW1 4469   1.469   4.857   1.860
 1490WAT    HW2 4470   1.597   4.957   1.879
 1491WAT     OW 4471   3.748   1.443   2.887
 1491WAT    HW1 4472   3.819   1.504   2.921
 1491WAT    HW2 4473   3.790   1.360   2.849
 1492WAT     OW 4474   1.353   1.428   3.505
 1492WAT    HW1 4475   1.260   1.424   3.542
 1492WAT    HW2 4476   1.362   1.510   3.448
 1493WAT     OW 4477   2.136   4.324   2.755
 1493WAT    HW1 4478   2.232   4.347   2.775
 1493WAT    HW2 4479   2.101   4.386   2.685
 1494WAT     OW 4480   2.159   2.567   1.866
 1494WAT    HW1 4481   2.098   2.642   1.895
 1494WAT    HW2 4482   2.114   2.479   1.884
 1495WAT     OW 4483   2.908   5.408   5.243
 1495WAT    HW1 4484   2.932   5.477   5.311
 1495WAT    HW2 4485   2.819   5.431   5.202
 1496WAT     OW 4486   4.262   2.999   6.651
 1496WAT    HW1 4487   4.315   2.916   6.665
 1496WAT    HW2 4488   4.280   3.035   6.559
 1497WAT     OW 4489   3.852   2.224   3.841
 1497WAT    HW1 4490   3.862   2.136   3.887
 1497WAT    HW2 4491   3.776   2.219   3.776
 1498WAT     OW 4492   0.179   0.081   0.374
 1498WAT    HW1 4493   0.113   0.038   0.313
 1498WAT    HW2 4494   0.271   0.072   0.334
 1499WAT     OW 4495   1.314   5.212   5.740
 1499WAT    HW1 4496   1.263   5.223   5.655
 1499WAT    HW2 4497   1.273   5.137   5.793
 1500WAT     OW 4498   1.474   6.423   3.690
 1500WAT    HW1 4499   1.386   6.462   3.718
 1500WAT    HW2 4500   1.464   6.381   3.600
 1501WAT     OW 4501   0.953   3.339   6.380
 1501WAT    HW1 4502   1.046   3.352   6.411
 1501WAT    HW2 4503   0.897   3.302   6.454
 1502WAT     OW 4504   6.548   1.973   3.912
 1502WAT    HW1 4505   6.537   2.073   3.914
 1502WAT    HW2 4506   6.497   1.932   3.988
 1503WAT     OW 4507   4.678   0.295   4.033
 1503WAT    HW1 4508   4.691   0.374   4.094
 1503WAT    HW2 4509   4.592   0.250   4.055
 1504WAT     OW 4510   4.781   0.157   0.343
 1504WAT    HW1 4511   4.684   0.152   0.317
 1504WAT    HW2 4512   4.798   0.097   0.420
 1505WAT     OW 4513   0.138   1.039   0.443
 1505WAT    HW1 4514   0.232   1.068   0.428
 1505WAT    HW2 4515   0.118   0.960   0.384
 1506WAT     OW 4516   2.723   0.404   4.126
 1506WAT    HW1 4517   2.801   0.454   4.163
 1506WAT    HW2 4518   2.743   0.377   4.032
 1507WAT     OW 4519   6.227   6.374   6.533
 1507WAT    HW1 4520   6.140   6.411   6.500
 1507WAT    HW2 4521   6.232   6.385   6.632
 1508WAT     OW 4522   3.758   4.891   2.931
 1508WAT    HW1 4523   3.755   4.917   3.027
 1508WAT    HW2 4524   3.686   4.823   2.913
 1509WAT     OW 4525   4.801   0.712   5.621
 1509WAT    HW1 4526   4.864   0.643   5.658
 1509WAT    HW2 4527   4.718   0.715   5.676
 1510WAT     OW 4528   3.349   2.437   6.333
 1510WAT    HW1 4529   3.285   2.470   6.263
 1510WAT    HW2 4530   3.430   2.399   6.289
 1511WAT     OW 4531   5.753   3.484   3.867
 1511WAT    HW1 4532   5.819   3.525   3.930
 1511WAT    HW2 4533   5.695   3.419   3.916
 1512WAT     OW 4534   3.655   1.446   3.150
 1512WAT    HW1 4535   3.741   1.432   3.200
 1512WAT    HW2 4536   3.673   1.437   3.051
 1513WAT     OW 4537   2.710   5.967   0.506
 1513WAT    HW1 4538   2.672   6.047   0.552
 1513WAT    HW2 4539   2.707   5.981   0.407
 1514WAT     OW 4540   3.724   5.471   5.630
 1514WAT    HW1 4541   3.773   5.421   5.701
 1514WAT    HW2 4542   3.633   5.432   5.619
 1515WAT     OW 4543   0.286   0.516   0.673
 1515WAT    HW1 4544   0.345   0.435   0.664
 1515WAT    HW2 4545   0.267   0.533   0.770
 1516WAT     OW 4546   0.502   1.106   0.769
 1516WAT    HW1 4547   0.522   1.032   0.834
 1516WAT    HW2 4548   0.570   1.105   0.696
 1517WAT     OW 4549   0.485   0.256   0.405
 1517WAT    HW1 4550   0.517   0.323   0.337
 1517WAT    HW2 4551   0.466   0.169   0.359
 1518WAT     OW 4552   6.561   4.438   6.068
 1518WAT    HW1 4553   6.478   4.494   6.059
 1518WAT    HW2 4554   6.625   4.484   6.130
 1519WAT     OW 4555   5.449   4.641   1.237
 1519WAT    HW1 4556   5.420   4.563   1.181
 1519WAT    HW2 4557   5.373   4.671   1.294
 1520WAT     OW 4558   5.989   3.885   3.514
 1520WAT    HW1 4559   6.042   3.940   3.450
 1520WAT    HW2 4560   5.894   3.917   3.515
 1521WAT     OW 4561   0.052   0.614   4.187
 1521WAT    HW1 4562   0.063   0.523   4.227
 1521WAT    HW2 4563   0.047   0.606   4.087
 1522WAT     OW 4564   1.148   3.517   3.175
 1522WAT    HW1 4565   1.114   3.424   3.187
 1522WAT    HW2 4566   1.248   3.514   3.166
 1523WAT     OW 4567   0.358   6.224   4.435
 1523WAT    HW1 4568   0.374   6.175   4.520
 1523WAT    HW2 4569   0.267   6.202   4.400
 1524WAT     OW 4570   6.436   6.380   4.695
 1524WAT    HW1 4571   6.412   6.454   4.758
 1524WAT    HW2 4572   6.373   6.303   4.709
 1525WAT     OW 4573   1.174   3.481   2.673
 1525WAT    HW1 4574   1.260   3.438   2.646
 1525WAT    HW2 4575   1.193   3.569   2.715
 1526WAT     OW 4576   4.012   4.800   2.939
 1526WAT    HW1 4577   4.068   4.882   2.943
 1526WAT    HW2 4578   3.916   4.826   2.927
 1527WAT     OW 4579   2.986   3.142   4.057
 1527WAT    HW1 4580   2.930   3.098   4.128
 1527WAT    HW2 4581   2.957   3.237   4.046
 1528WAT     OW 4582   2.486   6.189   4.648
 1528WAT    HW1 4583   2.461   6.151   4.559
 1528WAT    HW2 4584   2.403   6.201   4.703
 1529WAT     OW 4585   5.365   5.340   2.031
 1529WAT    HW1 4586   5.364   5.245   2.001
 1529WAT    HW2 4587   5.357   5.344   2.131
 1530WAT     OW 4588   2.486   2.213   3.387
 1530WAT    HW1 4589   2.572   2.162   3.379
 1530WAT    HW2 4590   2.493   2.298   3.335
 1531WAT     OW 4591   2.832   6.293   2.835
 1531WAT    HW1 4592   2.761   6.262   2.771
 1531WAT    HW2 4593   2.853   6.219   2.899
 1532WAT     OW 4594   2.540   2.476   2.997
 1532WAT    HW1 4595   2.635   2.471   2.966
 1532WAT    HW2 4596   2.498   2.385   2.994
 1533WAT     OW 4597   5.243   4.020   2.007
 1533WAT    HW1 4598   5.307   4.086   2.045
 1533WAT    HW2 4599   5.158   4.066   1.984
 1534WAT     OW 4600   4.628   2.964   6.628
 1534WAT    HW1 4601   4.552   2.900   6.633
 1534WAT    HW2 4602   4.597   3.056   6.652
 1535WAT     OW 4603   5.915   4.167   6.616
 1535WAT    HW1 4604   5.850   4.094   6.596
 1535WAT    HW2 4605   5.955   4.153   6.706
 1536WAT     OW 4606   3.816   2.114   0.266
 1536WAT    HW1 4607   3.737   2.155   0.220
 1536WAT    HW2 4608   3.846   2.033   0.216
 1537WAT     OW 4609   5.057   0.943   1.911
 1537WAT    HW1 4610   5.033   1.025   1.962
 1537WAT    HW2 4611   4.975   0.908   1.864
 1538WAT     OW 4612   5.683   3.454   1.171
 1538WAT    HW1 4613   5.630   3.376   1.202
 1538WAT    HW2 4614   5.678   3.527   1.238
 1539WAT     OW 4615   0.081   6.372   2.564
 1539WAT    HW1 4616   0.069   6.470   2.547
 1539WAT    HW2 4617   0.110   6.327   2.480
 1540WAT     OW 4618   5.298   3.354   1.339
 1540WAT    HW1 4619   5.225   3.290   1.363
 1540WAT    HW2 4620   5.377   3.304   1.304
 1541WAT     OW 4621   0.070   2.172   0.553
 1541WAT    HW1 4622   0.035   2.099   0.612
 1541WAT    HW2 4623   0.012   2.179   0.472
 1542WAT     OW 4624   4.310   5.111   1.695
 1542WAT    HW1 4625   4.352   5.038   1.640
 1542WAT    HW2 4626   4.230   5.146   1.648
 1543WAT     OW 4627   5.856   1.363   0.644
 1543WAT    HW1 4628   5.813   1.346   0.555
 1543WAT    HW2 4629   5.920   1.439   0.636
 1544WAT     OW 4630   1.084   1.132   1.473
 1544WAT    HW1 4631   1.144   1.081   1.534
 1544WAT    HW2 4632   1.036   1.068   1.412
 1545WAT     OW 4633   2.395   2.614   6.355
 1545WAT    HW1 4634   2.463   2.672   6.400
 1545WAT    HW2 4635   2.328   2.672   6.308
 1546WAT     OW 4636   1.144   5.504   6.153
 1546WAT    HW1 4637   1.167   5.472   6.245
 1546WAT    HW2 4638   1.079   5.441   6.111
 1547WAT     OW 4639   5.598   3.268   1.853
 1547WAT    HW1 4640   5.657   3.238   1.928
 1547WAT    HW2 4641   5.525   3.327   1.890
 1548WAT     OW 4642   3.942   5.094   2.098
 1548WAT    HW1 4643   3.886   5.152   2.157
 1548WAT    HW2 4644   4.036   5.126   2.098
 1549WAT     OW 4645   5.612   4.552   3.258
 1549WAT    HW1 4646   5.609   4.609   3.175
 1549WAT    HW2 4647   5.643   4.460   3.234
 1550WAT     OW 4648   1.748   1.716   2.298
 1550WAT    HW1 4649   1.693   1.794   2.328
 1550WAT    HW2 4650   1.794   1.738   2.212
 1551WAT     OW 4651   4.767   3.618   4.915
 1551WAT    HW1 4652   4.798   3.559   4.989
 1551WAT    HW2 4653   4.819   3.598   4.832
 1552WAT     OW 4654   2.084   3.636   4.798
 1552WAT    HW1 4655   2.135   3.641   4.884
 1552WAT    HW2 4656   2.130   3.573   4.735
 1553WAT     OW 4657   5.806   2.106   6.255
 1553WAT    HW1 4658   5.780   2.022   6.207
 1553WAT    HW2 4659   5.779   2.100   6.351
 1554WAT     OW 4660   1.308   2.976   5.032
 1554WAT    HW1 4661   1.292   3.047   4.963
 1554WAT    HW2 4662   1.259   3.000   5.116
 1555WAT     OW 4663   4.095   6.597   1.685
 1555WAT    HW1 4664   4.162   6.525   1.669
 1555WAT    HW2 4665   4.007   6.571   1.644
 1556WAT     OW 4666   2.381   5.925   1.209
 1556WAT    HW1 4667   2.330   5.886   1.132
 1556WAT    HW2 4668   2.417   6.015   1.183
 1557WAT     OW 4669   3.667   0.108   0.588
 1557WAT    HW1 4670   3.757   0.146   0.570
 1557WAT    HW2 4671   3.671   0.051   0.671
 1558WAT     OW 4672   2.645   4.913   3.685
 1558WAT    HW1 4673   2.610   4.848   3.752
 1558WAT    HW2 4674   2.584   4.915   3.605
 1559WAT     OW 4675   5.812   4.718   0.757
 1559WAT    HW1 4676   5.824   4.657   0.679
 1559WAT    HW2 4677   5.811   4.664   0.841
 1560WAT     OW 4678   0.761   1.598   5.325
 1560WAT    HW1 4679   0.729   1.535   5.253
 1560WAT    HW2 4680   0.851   1.634   5.301
 1561WAT     OW 4681   4.717   3.099   2.911
 1561WAT    HW1 4682   4.808   3.074   2.946
 1561WAT    HW2 4683   4.648   3.072   2.977
 1562WAT     OW 4684   6.667   4.834   1.436
 1562WAT    HW1 4685   6.719   4.767   1.382
 1562WAT    HW2 4686   6.581   4.793   1.465
 1563WAT     OW 4687   0.661   6.142   3.821
 1563WAT    HW1 4688   0.696   6.048   3.824
 1563WAT    HW2 4689   0.561   6.139   3.821
 1564WAT     OW 4690   5.273   6.425   6.229
 1564WAT    HW1 4691   5.365   6.389   6.212
 1564WAT    HW2 4692   5.225   6.366   6.293
 1565WAT     OW 4693   0.351   2.825   1.839
 1565WAT    HW1 4694   0.441   2.789   1.863
 1565WAT    HW2 4695   0.286   2.803   1.912
 1566WAT     OW 4696   4.259   3.763   5.263
 1566WAT    HW1 4697   4.348   3.723   5.285
 1566WAT    HW2 4698   4.188   3.720   5.320
 1567WAT     OW 4699   5.750   5.890   2.779
 1567WAT    HW1 4700   5.705   5.929   2.699
 1567WAT    HW2 4701   5.818   5.955   2.814
 1568WAT     OW 4702   0.084   6.469   4.088
 1568WAT    HW1 4703   0.165   6.516   4.123
 1568WAT    HW2 4704   0.035   6.427   4.165
 1569WAT     OW 4705   4.016   1.939   2.640
 1569WAT    HW1 4706   4.061   1.870   2.583
 1569WAT    HW2 4707   4.001   1.902   2.732
 1570WAT     OW 4708   3.886   3.332   6.455
 1570WAT    HW1 4709   3.898   3.381   6.542
 1570WAT    HW2 4710   3.950   3.256   6.450
 1571WAT     OW 4711   4.584   3.530   1.803
 1571WAT    HW1 4712   4.650   3.564   1.870
 1571WAT    HW2 4713   4.530   3.606   1.766
 1572WAT     OW 4714   3.271   5.902   0.387
 1572WAT    HW1 4715   3.266   5.951   0.474
 1572WAT    HW2 4716   3.212   5.948   0.320
 1573WAT     OW 4717   1.426   4.729   4.930
 1573WAT    HW1 4718   1.515   4.685   4.944
 1573WAT    HW2 4719   1.419   4.809   4.988
 1574WAT     OW 4720   3.697   6.593   0.194
 1574WAT    HW1 4721   3.761   6.668   0.205
 1574WAT    HW2 4722   3.615   6.625   0.146
 1575WAT     OW 4723   0.633   0.107   1.919
 1575WAT    HW1 4724   0.669   0.074   2.006
 1575WAT    HW2 4725   0.707   0.109   1.851
 1576WAT     OW 4726   0.842   2.441   4.408
 1576WAT    HW1 4727   0.803   2.528   4.379
 1576WAT    HW2 4728   0.937   2.455   4.436
 1577WAT     OW 4729   3.326   1.326   5.373
 1577WAT    HW1 4730   3.368   1.316   5.282
 1577WAT    HW2 4731   3.307   1.423   5.390
 1578WAT     OW 4732   0.648   2.527   6.680
 1578WAT    HW1 4733   0.731   2.526   6.623
 1578WAT    HW2 4734   0.587   2.598   6.647
 1579WAT     OW 4735   1.053   3.550   2.443
 1579WAT    HW1 4736   0.974   3.492   2.419
 1579WAT    HW2 4737   1.092   3.518   2.529
 1580WAT     OW 4738   1.562   5.819   3.881
 1580WAT    HW1 4739   1.614   5.900   3.908
 1580WAT    HW2 4740   1.469   5.827   3.915
 1581WAT     OW 4741   4.652   6.490   1.610
 1581WAT    HW1 4742   4.690   6.571   1.565
 1581WAT    HW2 4743   4.665   6.498   1.709
 1582WAT     OW 4744   3.298   2.378   1.120
 1582WAT    HW1 4745   3.200   2.392   1.134
 1582WAT    HW2 4746   3.315   2.282   1.095
 1583WAT     OW 4747   2.061   5.699   4.940
 1583WAT    HW1 4748   2.004   5.693   4.859
 1583WAT    HW2 4749   2.101   5.790   4.946
 1584WAT     OW 4750   6.457   5.086   4.404
 1584WAT    HW1 4751   6.374   5.128   4.442
 1584WAT    HW2 4752   6.483   5.007   4.460
 1585WAT     OW 4753   5.763   3.400   3.607
 1585WAT    HW1 4754   5.765   3.300   3.619
 1585WAT    HW2 4755   5.765   3.444   3.696
 1586WAT     OW 4756   2.059   2.130   1.528
 1586WAT    HW1 4757   2.149   2.093   1.502
 1586WAT    HW2 4758   2.062   2.230   1.524
 1587WAT     OW 4759   0.923   6.325   1.212
 1587WAT    HW1 4760   0.891   6.279   1.295
 1587WAT    HW2 4761   0.998   6.273   1.172
 1588WAT     OW 4762   2.223   3.284   1.709
 1588WAT    HW1 4763   2.218   3.370   1.759
 1588WAT    HW2 4764   2.188   3.209   1.766
 1589WAT     OW 4765   4.953   0.498   2.686
 1589WAT    HW1 4766   4.886   0.538   2.623
 1589WAT    HW2 4767   4.989   0.413   2.647
 1590WAT     OW 4768   1.153   1.664   2.251
 1590WAT    HW1 4769   1.064   1.647   2.208
 1590WAT    HW2 4770   1.159   1.612   2.336
 1591WAT     OW 4771   2.155   6.002   4.578
 1591WAT    HW1 4772   2.110   6.031   4.663
 1591WAT    HW2 4773   2.171   6.081   4.520
 1592WAT     OW 4774   3.003   4.908   5.687
 1592WAT    HW1 4775   2.948   4.898   5.604
 1592WAT    HW2 4776   3.049   4.822   5.708
 1593WAT     OW 4777   4.314   2.272   3.607
 1593WAT    HW1 4778   4.270   2.314   3.527
 1593WAT    HW2 4779   4.253   2.280   3.686
 1594WAT     OW 4780   4.788   4.376   1.498
 1594WAT    HW1 4781   4.766   4.467   1.535
 1594WAT    HW2 4782   4.884   4.356   1.515
 1595WAT     OW 4783   1.775   5.658   2.674
 1595WAT    HW1 4784   1.738   5.750   2.663
 1595WAT    HW2 4785   1.772   5.633   2.771
 1596WAT     OW 4786   5.117   6.542   1.430
 1596WAT    HW1 4787   5.205   6.530   1.477
 1596WAT    HW2 4788   5.054   6.593   1.489
 1597WAT     OW 4789   5.483   0.921   2.213
 1597WAT    HW1 4790   5.525   0.857   2.148
 1597WAT    HW2 4791   5.404   0.964   2.170
 1598WAT     OW 4792   2.429   6.376   3.818
 1598WAT    HW1 4793   2.454   6.368   3.915
 1598WAT    HW2 4794   2.342   6.425   3.811
 1599WAT     OW 4795   4.711   6.634   4.483
 1599WAT    HW1 4796   4.722   6.585   4.570
 1599WAT    HW2 4797   4.795   6.628   4.430
 1600WAT     OW 4798   0.327   4.430   4.547
 1600WAT    HW1 4799   0.303   4.365   4.476
 1600WAT    HW2 4800   0.296   4.396   4.636
 1601WAT     OW 4801   6.010   0.692   6.331
 1601WAT    HW1 4802   6.049   0.734   6.413
 1601WAT    HW2 4803   5.912   0.712   6.326
 1602WAT     OW 4804   3.010   0.179   0.101
 1602WAT    HW1 4805   3.045   0.267   0.071
 1602WAT    HW2 4806   2.922   0.192   0.148
 1603WAT     OW 4807   2.801   1.622   0.690
 1603WAT    HW1 4808   2.884   1.575   0.719
 1603WAT    HW2 4809   2.743   1.640   0.769
 1604WAT     OW 4810   1.839   1.199   4.765
 1604WAT    HW1 4811   1.937   1.183   4.752
 1604WAT    HW2 4812   1.801   1.126   4.821
 1605WAT     OW 4813   5.408   0.062   6.015
 1605WAT    HW1 4814   5.357   0.039   6.098
 1605WAT    HW2 4815   5.471   0.137   6.034
 1606WAT     OW 4816   3.526   3.456   1.638
 1606WAT    HW1 4817   3.590   3.514   1.587
 1606WAT    HW2 4818   3.472   3.512   1.701
 1607WAT     OW 4819   2.703   1.255   5.714
 1607WAT    HW1 4820   2.615   1.293   5.742
 1607WAT    HW2 4821   2.710   1.161   5.748
 1608WAT     OW 4822   0.550   6.102   1.661
 1608WAT    HW1 4823   0.564   6.186   1.712
 1608WAT    HW2 4824   0.476   6.115   1.595
 1609WAT     OW 4825   1.938   4.130   2.711
 1609WAT    HW1 4826   1.965   4.039   2.679
 1609WAT    HW2 4827   2.020   4.182   2.735
 1610WAT     OW 4828   0.085   5.813   3.786
 1610WAT    HW1 4829  -0.005   5.819   3.744
 1610WAT    HW2 4830   0.105   5.897   3.835
 1611WAT     OW 4831   4.395   5.355   0.219
 1611WAT    HW1 4832   4.354   5.433   0.171
 1611WAT    HW2 4833   4.391   5.372   0.318
 1612WAT     OW 4834   5.305   0.440   3.982
 1612WAT    HW1 4835   5.275   0.448   3.887
 1612WAT    HW2 4836   5.375   0.370   3.990
 1613WAT     OW 4837   2.996   1.162   4.028
 1613WAT    HW1 4838   3.080   1.210   4.003
 1613WAT    HW2 4839   3.018   1.084   4.087
 1614WAT     OW 4840   1.846   4.135   5.369
 1614WAT    HW1 4841   1.942   4.109   5.353
 1614WAT    HW2 4842   1.800   4.146   5.281
 1615WAT     OW 4843   3.267   4.489   5.999
 1615WAT    HW1 4844   3.293   4.441   5.915
 1615WAT    HW2 4845   3.302   4.438   6.078
 1616WAT     OW 4846   5.614   5.898   5.691
 1616WAT    HW1 4847   5.619   5.979   5.633
 1616WAT    HW2 4848   5.537   5.907   5.755
 1617WAT     OW 4849   1.102   2.387   0.174
 1617WAT    HW1 4850   1.081   2.387   0.272
 1617WAT    HW2 4851   1.200   2.395   0.160
 1618WAT     OW 4852   2.685   0.507   3.066
 1618WAT    HW1 4853   2.741   0.544   3.141
 1618WAT    HW2 4854   2.660   0.581   3.004
 1619WAT     OW 4855   5.861   1.189   3.836
 1619WAT    HW1 4856   5.845   1.283   3.868
 1619WAT    HW2 4857   5.816   1.177   3.747
 1620WAT     OW 4858   1.728   0.665   4.150
 1620WAT    HW1 4859   1.645   0.655   4.095
 1620WAT    HW2 4860   1.777   0.578   4.154
 1621WAT     OW 4861   0.844   4.704   2.677
 1621WAT    HW1 4862   0.851   4.631   2.746
 1621WAT    HW2 4863   0.886   4.787   2.713
 1622WAT     OW 4864   5.165   2.051   4.613
 1622WAT    HW1 4865   5.157   2.135   4.559
 1622WAT    HW2 4866   5.108   2.060   4.695
 1623WAT     OW 4867   3.112   2.496   1.503
 1623WAT    HW1 4868   3.117   2.497   1.603
 1623WAT    HW2 4869   3.201   2.521   1.464
 1624WAT     OW 4870   3.544   2.264   5.526
 1624WAT    HW1 4871   3.629   2.212   5.522
 1624WAT    HW2 4872   3.542   2.319   5.610
 1625WAT     OW 4873   2.737   0.045   2.891
 1625WAT    HW1 4874   2.637   0.046   2.894
 1625WAT    HW2 4875   2.772   0.133   2.923
 1626WAT     OW 4876   4.540   1.256   4.002
 1626WAT    HW1 4877   4.480   1.269   4.080
 1626WAT    HW2 4878   4.500   1.189   3.939
 1627WAT     OW 4879   0.091   1.002   1.501
 1627WAT    HW1 4880   0.121   0.909   1.520
 1627WAT    HW2 4881   0.007   1.021   1.552
 1628WAT     OW 4882   0.180   2.750   2.037
 1628WAT    HW1 4883   0.182   2.775   2.133
 1628WAT    HW2 4884   0.098   2.788   1.994
 1629WAT     OW 4885   5.994   4.177   1.622
 1629WAT    HW1 4886   5.904   4.148   1.654
 1629WAT    HW2 4887   6.052   4.201   1.700
 1630WAT     OW 4888   4.200   5.981   0.578
 1630WAT    HW1 4889   4.279   5.935   0.618
 1630WAT    HW2 4890   4.167   6.051   0.640
 1631WAT     OW 4891   1.278   4.420   5.553
 1631WAT    HW1 4892   1.333   4.499   5.583
 1631WAT    HW2 4893   1.339   4.347   5.522
 1632WAT     OW 4894   1.533   6.218   2.425
 1632WAT    HW1 4895   1.490   6.295   2.470
 1632WAT    HW2 4896   1.618   6.194   2.473
 1633WAT     OW 4897   5.396   0.058   5.726
 1633WAT    HW1 4898   5.494   0.059   5.705
 1633WAT    HW2 4899   5.384   0.063   5.825
 1634WAT     OW 4900   0.812   3.818   1.813
 1634WAT    HW1 4901   0.875   3.768   1.873
 1634WAT    HW2 4902   0.771   3.754   1.748
 1635WAT     OW 4903   3.628   2.507   4.648
 1635WAT    HW1 4904   3.661   2.460   4.730
 1635WAT    HW2 4905   3.656   2.456   4.567
 1636WAT     OW 4906   4.739   5.148   2.323
 1636WAT    HW1 4907   4.645   5.113   2.331
 1636WAT    HW2 4908   4.739   5.232   2.269
 1637WAT     OW 4909   1.440   2.729   1.290
 1637WAT    HW1 4910   1.382   2.762   1.215
 1637WAT    HW2 4911   1.417   2.634   1.309
 1638WAT     OW 4912   4.421   1.783   2.185
 1638WAT    HW1 4913   4.333   1.744   2.212
 1638WAT    HW2 4914   4.406   1.868   2.134
 1639WAT     OW 4915   1.382   3.925   0.304
 1639WAT    HW1 4916   1.311   3.883   0.359
 1639WAT    HW2 4917   1.374   3.893   0.209
 1640WAT     OW 4918   4.871   2.737   5.625
 1640WAT    HW1 4919   4.888   2.643   5.654
 1640WAT    HW2 4920   4.848   2.793   5.705
 1641WAT     OW 4921   1.193   5.914   4.860
 1641WAT    HW1 4922   1.223   5.824   4.829
 1641WAT    HW2 4923   1.266   5.980   4.848
 1642WAT     OW 4924   3.228   4.892   6.472
 1642WAT    HW1 4925   3.303   4.928   6.528
 1642WAT    HW2 4926   3.243   4.917   6.376
 1643WAT     OW 4927   6.589   5.599   5.065
 1643WAT    HW1 4928   6.597   5.693   5.032
 1643WAT    HW2 4929   6.496   5.567   5.049
 1644WAT     OW 4930   2.964   4.503   4.351
 1644WAT    HW1 4931   2.957   4.536   4.257
 1644WAT    HW2 4932   3.055   4.527   4.388
 1645WAT     OW 4933   4.920   4.914   5.699
 1645WAT    HW1 4934   4.903   4.892   5.795
 1645WAT    HW2 4935   4.872   4.849   5.641
 1646WAT     OW 4936   4.693   0.787   2.012
 1646WAT    HW1 4937   4.600   0.757   1.993
 1646WAT    HW2 4938   4.739   0.809   1.925
 1647WAT     OW 4939   4.918   4.513   0.390
 1647WAT    HW1 4940   4.821   4.513   0.366
 1647WAT    HW2 4941   4.936   4.441   0.457
 1648WAT     OW 4942   4.439   5.848   5.164
 1648WAT    HW1 4943   4.455   5.752   5.187
 1648WAT    HW2 4944   4.395   5.894   5.241
 1649WAT     OW 4945   0.151   3.999   3.997
 1649WAT    HW1 4946   0.171   3.907   3.960
 1649WAT    HW2 4947   0.222   4.024   4.063
 1650WAT     OW 4948   5.428   0.530   5.030
 1650WAT    HW1 4949   5.437   0.489   4.939
 1650WAT    HW2 4950   5.517   0.528   5.077
 1651WAT     OW 4951   1.100   3.422   1.297
 1651WAT    HW1 4952   1.121   3.383   1.387
 1651WAT    HW2 4953   1.161   3.500   1.280
 1652WAT     OW 4954   4.726   5.425   6.646
 1652WAT    HW1 4955   4.804   5.403   6.586
 1652WAT    HW2 4956   4.703   5.344   6.700
 1653WAT     OW 4957   6.415   4.529   5.207
 1653WAT    HW1 4958   6.362   4.588   5.268
 1653WAT    HW2 4959   6.390   4.433   5.223
 1654WAT     OW 4960   4.280   5.891   2.068
 1654WAT    HW1 4961   4.193   5.885   2.117
 1654WAT    HW2 4962   4.344   5.947   2.121
 1655WAT     OW 4963   4.626   5.611   2.265
 1655WAT    HW1 4964   4.630   5.711   2.259
 1655WAT    HW2 4965   4.578   5.574   2.185
 1656WAT     OW 4966   6.687   4.463   2.596
 1656WAT    HW1 4967   6.605   4.520   2.596
 1656WAT    HW2 4968   6.714   4.443   2.502
 1657WAT     OW 4969   5.739   0.631   0.991
 1657WAT    HW1 4970   5.827   0.624   1.037
 1657WAT    HW2 4971   5.747   0.600   0.897
 1658WAT     OW 4972   0.180   3.944   1.957
 1658WAT    HW1 4973   0.160   3.958   1.860
 1658WAT    HW2 4974   0.094   3.930   2.007
 1659WAT     OW 4975   5.455   3.524   5.494
 1659WAT    HW1 4976   5.549   3.555   5.508
 1659WAT    HW2 4977   5.443   3.495   5.399
 1660WAT     OW 4978   6.370   6.002   0.067
 1660WAT    HW1 4979   6.287   5.977   0.118
 1660WAT    HW2 4980   6.440   6.034   0.131
 1661WAT     OW 4981   4.486   6.607   5.983
 1661WAT    HW1 4982   4.566   6.555   5.953
 1661WAT    HW2 4983   4.423   6.548   6.032
 1662WAT     OW 4984   0.138   6.336   5.039
 1662WAT    HW1 4985   0.095   6.292   5.118
 1662WAT    HW2 4986   0.165   6.266   4.973
 1663WAT     OW 4987   3.840   0.862   6.603
 1663WAT    HW1 4988   3.864   0.943   6.655
 1663WAT    HW2 4989   3.904   0.851   6.527
 1664WAT     OW 4990   1.724   6.175   1.181
 1664WAT    HW1 4991   1.636   6.181   1.230
 1664WAT    HW2 4992   1.781   6.253   1.208
 1665WAT     OW 4993   6.287   1.511   0.270
 1665WAT    HW1 4994   6.376   1.472   0.294
 1665WAT    HW2 4995   6.227   1.439   0.235
 1666WAT     OW 4996   0.543   1.293   3.997
 1666WAT    HW1 4997   0.487   1.374   3.978
 1666WAT    HW2 4998   0.636   1.309   3.963
 1667WAT     OW 4999   3.225   3.786   0.513
 1667WAT    HW1 5000   3.148   3.823   0.566
 1667WAT    HW2 5001   3.310   3.798   0.564
 1668WAT     OW 5002   2.244   0.138   3.009
 1668WAT    HW1 5003   2.168   0.073   3.012
 1668WAT    HW2 5004   2.282   0.150   3.100
 1669WAT     OW 5005   2.400   3.969   4.336
 1669WAT    HW1 5006   2.370   3.919   4.254
 1669WAT    HW2 5007   2.320   4.005   4.384
 1670WAT     OW 5008   5.629   2.246   5.154
 1670WAT    HW1 5009   5.570   2.269   5.231
 1670WAT    HW2 5010   5.698   2.181   5.183
 1671WAT     OW 5011   4.319   5.991   5.360
 1671WAT    HW1 5012   4.247   6.053   5.327
 1671WAT    HW2 5013   4.384   6.041   5.416
 1672WAT     OW 5014   3.879   1.536   1.802
 1672WAT    HW1 5015   3.882   1.635   1.816
 1672WAT    HW2 5016   3.937   1.490   1.869
 1673WAT     OW 5017   0.669   1.852   5.732
 1673WAT    HW1 5018   0.649   1.818   5.640
 1673WAT    HW2 5019   0.633   1.945   5.742
 1674WAT     OW 5020   1.629   3.363   5.921
 1674WAT    HW1 5021   1.614   3.403   5.831
 1674WAT    HW2 5022   1.613   3.264   5.916
 1675WAT     OW 5023   1.465   0.404   0.143
 1675WAT    HW1 5024   1.489   0.359   0.057
 1675WAT    HW2 5025   1.397   0.475   0.126
 1676WAT     OW 5026   5.188   4.862   5.710
 1676WAT    HW1 5027   5.241   4.943   5.685
 1676WAT    HW2 5028   5.090   4.885   5.709
 1677WAT     OW 5029   0.979   4.862   1.160
 1677WAT    HW1 5030   0.983   4.790   1.230
 1677WAT    HW2 5031   1.018   4.827   1.075
 1678WAT     OW 5032   3.843   1.753   5.403
 1678WAT    HW1 5033   3.796   1.833   5.366
 1678WAT    HW2 5034   3.845   1.680   5.335
 1679WAT     OW 5035   4.230   3.700   2.846
 1679WAT    HW1 5036   4.205   3.606   2.823
 1679WAT    HW2 5037   4.178   3.730   2.926
 1680WAT     OW 5038   4.529   5.599   0.028
 1680WAT    HW1 5039   4.523   5.663  -0.048
 1680WAT    HW2 5040   4.599   5.530   0.009
 1681WAT     OW 5041   5.317   6.426   1.060
 1681WAT    HW1 5042   5.366   6.374   1.129
 1681WAT    HW2 5043   5.242   6.370   1.023
 1682WAT     OW 5044   3.520   3.511   2.356
 1682WAT    HW1 5045   3.503   3.414   2.345
 1682WAT    HW2 5046   3.444   3.553   2.407
 1683WAT     OW 5047   0.534   1.668   2.334
 1683WAT    HW1 5048   0.514   1.740   2.401
 1683WAT    HW2 5049   0.536   1.708   2.243
 1684WAT     OW 5050   4.619   1.566   4.434
 1684WAT    HW1 5051   4.650   1.592   4.526
 1684WAT    HW2 5052   4.675   1.491   4.400
 1685WAT     OW 5053   6.321   3.438   2.760
 1685WAT    HW1 5054   6.365   3.350   2.739
 1685WAT    HW2 5055   6.258   3.425   2.836
 1686WAT     OW 5056   6.462   2.729   4.468
 1686WAT    HW1 5057   6.547   2.678   4.455
 1686WAT    HW2 5058   6.427   2.713   4.560
 1687WAT     OW 5059   3.834   2.836   1.713
 1687WAT    HW1 5060   3.807   2.742   1.730
 1687WAT    HW2 5061   3.756   2.887   1.677
 1688WAT     OW 5062   1.937   4.793   0.496
 1688WAT    HW1 5063   2.036   4.781   0.506
 1688WAT    HW2 5064   1.899   4.713   0.449
 1689WAT     OW 5065   4.373   0.069   2.774
 1689WAT    HW1 5066   4.294   0.122   2.745
 1689WAT    HW2 5067   4.378   0.069   2.874
 1690WAT     OW 5068   1.060   0.326   0.730
 1690WAT    HW1 5069   1.088   0.335   0.826
 1690WAT    HW2 5070   1.100   0.243   0.691
 1691WAT     OW 5071   2.358   2.453   5.884
 1691WAT    HW1 5072   2.406   2.414   5.963
 1691WAT    HW2 5073   2.300   2.528   5.915
 1692WAT     OW 5074   4.101   6.156   5.321
 1692WAT    HW1 5075   4.031   6.095   5.358
 1692WAT    HW2 5076   4.124   6.226   5.389
 1693WAT     OW 5077   3.834   5.663   6.140
 1693WAT    HW1 5078   3.807   5.708   6.055
 1693WAT    HW2 5079   3.763   5.676   6.209
 1694WAT     OW 5080   3.685   3.626   1.485
 1694WAT    HW1 5081   3.759   3.606   1.422
 1694WAT    HW2 5082   3.721   3.674   1.565
 1695WAT     OW 5083   1.967   6.166   4.300
 1695WAT    HW1 5084   1.980   6.197   4.206
 1695WAT    HW2 5085   2.051   6.183   4.352
 1696WAT     OW 5086   5.987   1.525   6.572
 1696WAT    HW1 5087   5.964   1.586   6.649
 1696WAT    HW2 5088   5.992   1.579   6.488
 1697WAT     OW 5089   5.096   5.800   3.448
 1697WAT    HW1 5090   5.025   5.835   3.510
 1697WAT    HW2 5091   5.053   5.771   3.362
 1698WAT     OW 5092   3.821   0.771   4.842
 1698WAT    HW1 5093   3.799   0.679   4.808
 1698WAT    HW2 5094   3.824   0.835   4.766
 1699WAT     OW 5095   1.549   3.088   0.790
 1699WAT    HW1 5096   1.510   3.152   0.856
 1699WAT    HW2 5097   1.550   2.996   0.829
 1700WAT     OW 5098   3.732   3.312   2.948
 1700WAT    HW1 5099   3.795   3.373   2.901
 1700WAT    HW2 5100   3.679   3.364   3.015
 1701WAT     OW 5101   5.742   2.662   1.328
 1701WAT    HW1 5102   5.674   2.589   1.331
 1701WAT    HW2 5103   5.750   2.697   1.235
 1702WAT     OW 5104   2.639   6.402   1.691
 1702WAT    HW1 5105   2.698   6.456   1.750
 1702WAT    HW2 5106   2.664   6.306   1.697
 1703WAT     OW 5107   3.080   2.845   3.745
 1703WAT    HW1 5108   3.171   2.870   3.779
 1703WAT    HW2 5109   3.015   2.917   3.769
 1704WAT     OW 5110   2.958   6.147   3.379
 1704WAT    HW1 5111   2.955   6.076   3.308
 1704WAT    HW2 5112   3.025   6.121   3.448
 1705WAT     OW 5113   4.427   5.161   6.254
 1705WAT    HW1 5114   4.461   5.238   6.308
 1705WAT    HW2 5115   4.403   5.193   6.162
 1706WAT     OW 5116   5.755   0.008   2.187
 1706WAT    HW1 5117   5.746   0.072   2.264
 1706WAT    HW2 5118   5.677   0.020   2.125
 1707WAT     OW 5119   2.060   2.571   1.299
 1707WAT    HW1 5120   2.013   2.650   1.340
 1707WAT    HW2 5121   2.024   2.554   1.207
 1708WAT     OW 5122   2.322   0.991   6.124
 1708WAT    HW1 5123   2.264   1.030   6.195
 1708WAT    HW2 5124   2.283   1.010   6.034
 1709WAT     OW 5125   2.456   2.690   1.491
 1709WAT    HW1 5126   2.549   2.652   1.492
 1709WAT    HW2 5127   2.411   2.666   1.405
 1710WAT     OW 5128   3.603   5.217   2.100
 1710WAT    HW1 5129   3.684   5.230   2.158
 1710WAT    HW2 5130   3.620   5.142   2.036
 1711WAT     OW 5131   4.078   2.627   5.974
 1711WAT    HW1 5132   4.054   2.718   6.005
 1711WAT    HW2 5133   4.070   2.562   6.050
 1712WAT     OW 5134   4.132   2.589   0.543
 1712WAT    HW1 5135   4.144   2.496   0.578
 1712WAT    HW2 5136   4.040   2.599   0.506
 1713WAT     OW 5137   6.294   6.576   4.441
 1713WAT    HW1 5138   6.290   6.673   4.421
 1713WAT    HW2 5139   6.389   6.549   4.458
 1714WAT     OW 5140   5.286   2.027   6.611
 1714WAT    HW1 5141   5.284   2.083   6.528
 1714WAT    HW2 5142   5.209   2.052   6.670
 1715WAT     OW 5143   6.375   4.875   4.007
 1715WAT    HW1 5144   6.359   4.805   4.077
 1715WAT    HW2 5145   6.366   4.966   4.048
 1716WAT     OW 5146   0.216   2.049   4.125
 1716WAT    HW1 5147   0.181   1.998   4.046
 1716WAT    HW2 5148   0.310   2.077   4.107
 1717WAT     OW 5149   4.290   4.332   6.203
 1717WAT    HW1 5150   4.254   4.280   6.280
 1717WAT    HW2 5151   4.366   4.389   6.234
 1718WAT     OW 5152   4.154   5.553   4.024
 1718WAT    HW1 5153   4.095   5.614   3.972
 1718WAT    HW2 5154   4.232   5.605   4.060
 1719WAT     OW 5155   5.357   5.509   5.456
 1719WAT    HW1 5156   5.407   5.560   5.526
 1719WAT    HW2 5157   5.410   5.509   5.371
 1720WAT     OW 5158   0.255   4.314   4.786
 1720WAT    HW1 5159   0.333   4.281   4.838
 1720WAT    HW2 5160   0.217   4.240   4.730
 1721WAT     OW 5161   4.984   6.549   3.476
 1721WAT    HW1 5162   5.030   6.583   3.394
 1721WAT    HW2 5163   5.052   6.515   3.541
 1722WAT     OW 5164   5.631   4.875   4.587
 1722WAT    HW1 5165   5.665   4.785   4.614
 1722WAT    HW2 5166   5.703   4.943   4.600
 1723WAT     OW 5167   2.656   0.403   6.585
 1723WAT    HW1 5168   2.559   0.417   6.568
 1723WAT    HW2 5169   2.675   0.410   6.683
 1724WAT     OW 5170   3.998   4.639   3.384
 1724WAT    HW1 5171   3.947   4.683   3.457
 1724WAT    HW2 5172   4.044   4.557   3.419
 1725WAT     OW 5173   4.139   5.922   3.793
 1725WAT    HW1 5174   4.131   5.992   3.864
 1725WAT    HW2 5175   4.084   5.842   3.819
 1726WAT     OW 5176   0.380   0.838   5.161
 1726WAT    HW1 5177   0.433   0.916   5.195
 1726WAT    HW2 5178   0.295   0.830   5.213
 1727WAT     OW 5179   1.806   5.199   2.563
 1727WAT    HW1 5180   1.774   5.292   2.543
 1727WAT    HW2 5181   1.733   5.134   2.541
 1728WAT     OW 5182   6.625   2.568   1.424
 1728WAT    HW1 5183   6.578   2.608   1.345
 1728WAT    HW2 5184   6.591   2.612   1.508
 1729WAT     OW 5185   3.141   1.178   6.119
 1729WAT    HW1 5186   3.162   1.109   6.188
 1729WAT    HW2 5187   3.071   1.143   6.057
 1730WAT     OW 5188   3.046   0.241   4.900
 1730WAT    HW1 5189   3.031   0.314   4.968
 1730WAT    HW2 5190   2.976   0.171   4.910
 1731WAT     OW 5191   0.864   5.690   4.534
 1731WAT    HW1 5192   0.830   5.601   4.564
 1731WAT    HW2 5193   0.897   5.741   4.614
 1732WAT     OW 5194   0.541   6.626   3.298
 1732WAT    HW1 5195   0.501   6.546   3.344
 1732WAT    HW2 5196   0.610   6.667   3.358
 1733WAT     OW 5197   2.488   6.049   5.490
 1733WAT    HW1 5198   2.416   6.118   5.495
 1733WAT    HW2 5199   2.569   6.081   5.540
 1734WAT     OW 5200   1.317   5.980   1.244
 1734WAT    HW1 5201   1.382   6.055   1.255
 1734WAT    HW2 5202   1.298   5.939   1.333
 1735WAT     OW 5203   2.064   4.794   5.271
 1735WAT    HW1 5204   2.129   4.776   5.345
 1735WAT    HW2 5205   2.037   4.708   5.229
 1736WAT     OW 5206   3.515   0.177   2.868
 1736WAT    HW1 5207   3.557   0.181   2.958
 1736WAT    HW2 5208   3.417   0.158   2.878
 1737WAT     OW 5209   2.278   4.061   0.179
 1737WAT    HW1 5210   2.268   4.023   0.087
 1737WAT    HW2 5211   2.209   4.132   0.193
 1738WAT     OW 5212   1.395   0.400   4.926
 1738WAT    HW1 5213   1.359   0.390   4.834
 1738WAT    HW2 5214   1.359   0.484   4.968
 1739WAT     OW 5215   3.670   4.723   2.604
 1739WAT    HW1 5216   3.710   4.812   2.583
 1739WAT    HW2 5217   3.646   4.719   2.702
 1740WAT     OW 5218   0.925   2.631   3.936
 1740WAT    HW1 5219   0.876   2.620   3.849
 1740WAT    HW2 5220   0.956   2.541   3.968
 1741WAT     OW 5221   3.355   1.131   2.588
 1741WAT    HW1 5222   3.433   1.189   2.566
 1741WAT    HW2 5223   3.352   1.113   2.686
 1742WAT     OW 5224   5.977   0.116   2.070
 1742WAT    HW1 5225   5.895   0.075   2.108
 1742WAT    HW2 5226   5.973   0.114   1.970
 1743WAT     OW 5227   4.256   0.315   3.919
 1743WAT    HW1 5228   4.186   0.384   3.938
 1743WAT    HW2 5229   4.316   0.348   3.846
 1744WAT     OW 5230   0.145   3.275   5.683
 1744WAT    HW1 5231   0.110   3.345   5.621
 1744WAT    HW2 5232   0.078   3.202   5.692
 1745WAT     OW 5233   6.100   5.192   0.155
 1745WAT    HW1 5234   6.042   5.172   0.234
 1745WAT    HW2 5235   6.195   5.171   0.178
 1746WAT     OW 5236   1.417   1.475   2.731
 1746WAT    HW1 5237   1.502   1.435   2.766
 1746WAT    HW2 5238   1.394   1.432   2.643
 1747WAT     OW 5239   5.898   1.632   0.882
 1747WAT    HW1 5240   5.929   1.583   0.800
 1747WAT    HW2 5241   5.808   1.598   0.908
 1748WAT     OW 5242   5.668   4.292   2.491
 1748WAT    HW1 5243   5.731   4.218   2.517
 1748WAT    HW2 5244   5.696   4.377   2.536
 1749WAT     OW 5245   6.032   1.775   4.278
 1749WAT    HW1 5246   6.066   1.813   4.191
 1749WAT    HW2 5247   5.937   1.747   4.267
 1750WAT     OW 5248   2.969   0.539   0.678
 1750WAT    HW1 5249   2.986   0.444   0.650
 1750WAT    HW2 5250   2.872   0.551   0.699
 1751WAT     OW 5251   4.971   5.803   5.456
 1751WAT    HW1 5252   4.991   5.788   5.359
 1751WAT    HW2 5253   5.022   5.736   5.511
 1752WAT     OW 5254   0.397   3.797   6.264
 1752WAT    HW1 5255   0.430   3.704   6.247
 1752WAT    HW2 5256   0.410   3.853   6.182
 1753WAT     OW 5257   4.106   0.352   0.386
 1753WAT    HW1 5258   4.104   0.448   0.414
 1753WAT    HW2 5259   4.039   0.301   0.440
 1754WAT     OW 5260   0.761   2.768   1.695
 1754WAT    HW1 5261   0.744   2.733   1.603
 1754WAT    HW2 5262   0.847   2.730   1.729
 1755WAT     OW 5263   1.724   6.637   6.364
 1755WAT    HW1 5264   1.680   6.700   6.300
 1755WAT    HW2 5265   1.824   6.648   6.357
 1756WAT     OW 5266   6.121   0.668   5.273
 1756WAT    HW1 5267   6.031   0.658   5.317
 1756WAT    HW2 5268   6.151   0.579   5.239
 1757WAT     OW 5269   4.433   5.969   4.061
 1757WAT    HW1 5270   4.389   6.056   4.082
 1757WAT    HW2 5271   4.435   5.957   3.961
 1758WAT     OW 5272   3.414   1.939   2.285
 1758WAT    HW1 5273   3.511   1.915   2.279
 1758WAT    HW2 5274   3.401   2.033   2.254
 1759WAT     OW 5275   3.897   3.374   2.283
 1759WAT    HW1 5276   3.867   3.460   2.324
 1759WAT    HW2 5277   3.858   3.364   2.192
 1760WAT     OW 5278   6.377   0.245   6.294
 1760WAT    HW1 5279   6.442   0.175   6.325
 1760WAT    HW2 5280   6.290   0.234   6.342
 1761WAT     OW 5281   3.100   6.043   0.210
 1761WAT    HW1 5282   3.043   6.113   0.252
 1761WAT    HW2 5283   3.178   6.087   0.164
 1762WAT     OW 5284   5.679   1.447   1.955
 1762WAT    HW1 5285   5.759   1.395   1.925
 1762WAT    HW2 5286   5.659   1.518   1.888
 1763WAT     OW 5287   2.238   4.945   2.836
 1763WAT    HW1 5288   2.210   4.963   2.742
 1763WAT    HW2 5289   2.210   5.022   2.894
 1764WAT     OW 5290   3.469   5.745   1.509
 1764WAT    HW1 5291   3.526   5.788   1.440
 1764WAT    HW2 5292   3.489   5.784   1.599
 1765WAT     OW 5293   0.751   0.682   3.532
 1765WAT    HW1 5294   0.713   0.613   3.470
 1765WAT    HW2 5295   0.684   0.755   3.544
 1766WAT     OW 5296   1.638   3.807   5.343
 1766WAT    HW1 5297   1.592   3.888   5.305
 1766WAT    HW2 5298   1.684   3.832   5.428
 1767WAT     OW 5299   3.628   0.884   2.430
 1767WAT    HW1 5300   3.528   0.881   2.439
 1767WAT    HW2 5301   3.658   0.809   2.371
 1768WAT     OW 5302   4.792   1.143   4.016
 1768WAT    HW1 5303   4.852   1.188   3.950
 1768WAT    HW2 5304   4.702   1.187   4.015
 1769WAT     OW 5305   5.261   6.512   5.160
 1769WAT    HW1 5306   5.167   6.504   5.125
 1769WAT    HW2 5307   5.295   6.604   5.142
 1770WAT     OW 5308   0.536   5.456   1.921
 1770WAT    HW1 5309   0.461   5.513   1.953
 1770WAT    HW2 5310   0.623   5.503   1.937
 1771WAT     OW 5311   4.475   0.886   5.294
 1771WAT    HW1 5312   4.464   0.893   5.393
 1771WAT    HW2 5313   4.572   0.889   5.272
 1772WAT     OW 5314   3.838   5.498   6.610
 1772WAT    HW1 5315   3.904   5.533   6.544
 1772WAT    HW2 5316   3.834   5.398   6.604
 1773WAT     OW 5317   6.304   0.365   3.482
 1773WAT    HW1 5318   6.372   0.293   3.487
 1773WAT    HW2 5319   6.291   0.392   3.386
 1774WAT     OW 5320   4.952   2.826   6.392
 1774WAT    HW1 5321   5.016   2.883   6.443
 1774WAT    HW2 5322   4.864   2.873   6.384
 1775WAT     OW 5323   2.483   5.180   2.293
 1775WAT    HW1 5324   2.491   5.259   2.353
 1775WAT    HW2 5325   2.573   5.155   2.257
 1776WAT     OW 5326   5.239   0.943   0.124
 1776WAT    HW1 5327   5.318   0.972   0.177
 1776WAT    HW2 5328   5.177   0.891   0.182
 1777WAT     OW 5329   4.221   4.116   4.516
 1777WAT    HW1 5330   4.177   4.060   4.446
 1777WAT    HW2 5331   4.209   4.073   4.605
 1778WAT     OW 5332   1.855   4.952   5.352
 1778WAT    HW1 5333   1.877   4.987   5.443
 1778WAT    HW2 5334   1.930   4.892   5.321
 1779WAT     OW 5335   4.192   6.491   6.502
 1779WAT    HW1 5336   4.276   6.508   6.450
 1779WAT    HW2 5337   4.198   6.537   6.590
 1780WAT     OW 5338   2.364   0.750   2.941
 1780WAT    HW1 5339   2.277   0.700   2.934
 1780WAT    HW2 5340   2.378   0.778   3.036
 1781WAT     OW 5341   2.901   0.166   2.520
 1781WAT    HW1 5342   2.874   0.159   2.424
 1781WAT    HW2 5343   2.866   0.088   2.571
 1782WAT     OW 5344   2.702   2.870   0.933
 1782WAT    HW1 5345   2.737   2.791   0.984
 1782WAT    HW2 5346   2.746   2.953   0.966
 1783WAT     OW 5347   1.986   2.592   4.015
 1783WAT    HW1 5348   1.946   2.641   4.093
 1783WAT    HW2 5349   1.978   2.494   4.029
 1784WAT     OW 5350   1.006   5.052   1.363
 1784WAT    HW1 5351   1.017   4.985   1.289
 1784WAT    HW2 5352   0.918   5.037   1.408
 1785WAT     OW 5353   3.238   4.139   4.161
 1785WAT    HW1 5354   3.146   4.159   4.126
 1785WAT    HW2 5355   3.269   4.215   4.218
 1786WAT     OW 5356   1.488   3.692   0.980
 1786WAT    HW1 5357   1.400   3.647   0.993
 1786WAT    HW2 5358   1.474   3.779   0.934
 1787WAT     OW 5359   2.104   2.020   4.008
 1787WAT    HW1 5360   2.006   2.038   4.000
 1787WAT    HW2 5361   2.142   2.075   4.083
 1788WAT     OW 5362   2.632   6.155   3.966
 1788WAT    HW1 5363   2.690   6.228   3.930
 1788WAT    HW2 5364   2.690   6.077   3.991
 1789WAT     OW 5365   3.752   4.979   3.187
 1789WAT    HW1 5366   3.705   5.067   3.179
 1789WAT    HW2 5367   3.704   4.921   3.254
 1790WAT     OW 5368   1.310   1.007   6.442
 1790WAT    HW1 5369   1.376   1.073   6.477
 1790WAT    HW2 5370   1.342   0.970   6.355
 1791WAT     OW 5371   6.326   2.569   1.223
 1791WAT    HW1 5372   6.393   2.643   1.224
 1791WAT    HW2 5373   6.265   2.581   1.145
 1792WAT     OW 5374   5.907   5.660   1.065
 1792WAT    HW1 5375   5.966   5.702   0.997
 1792WAT    HW2 5376   5.949   5.577   1.100
 1793WAT     OW 5377   0.063   4.458   0.598
 1793WAT    HW1 5378  -0.021   4.408   0.579
 1793WAT    HW2 5379   0.130   4.441   0.526
 1794WAT     OW 5380   4.757   3.597   3.301
 1794WAT    HW1 5381   4.805   3.677   3.265
 1794WAT    HW2 5382   4.690   3.626   3.370
 1795WAT     OW 5383   2.014   0.245   6.372
 1795WAT    HW1 5384   1.998   0.147   6.361
 1795WAT    HW2 5385   2.107   0.268   6.343
 1796WAT     OW 5386   6.393   0.045   1.500
 1796WAT    HW1 5387   6.410   0.143   1.508
 1796WAT    HW2 5388   6.474  -0.000   1.462
 1797WAT     OW 5389   3.848   5.913   3.260
 1797WAT    HW1 5390   3.863   5.892   3.163
 1797WAT    HW2 5391   3.796   5.998   3.268
 1798WAT     OW 5392   3.608   2.970   1.639
 1798WAT    HW1 5393   3.527   2.940   1.589
 1798WAT    HW2 5394   3.589   3.058   1.683
 1799WAT     OW 5395   2.612   4.604   0.214
 1799WAT    HW1 5396   2.643   4.698   0.233
 1799WAT    HW2 5397   2.592   4.558   0.300
 1800WAT     OW 5398   4.922   2.064   2.585
 1800WAT    HW1 5399   4.934   1.965   2.576
 1800WAT    HW2 5400   4.993   2.101   2.645
 1801WAT     OW 5401   3.711   4.113   2.596
 1801WAT    HW1 5402   3.661   4.158   2.522
 1801WAT    HW2 5403   3.647   4.073   2.661
 1802WAT     OW 5404   0.662   5.164   0.501
 1802WAT    HW1 5405   0.592   5.199   0.562
 1802WAT    HW2 5406   0.702   5.239   0.449
 1803WAT     OW 5407   6.118   2.800   6.102
 1803WAT    HW1 5408   6.038   2.751   6.136
 1803WAT    HW2 5409   6.192   2.794   6.169
 1804WAT     OW 5410   2.280   4.751   5.436
 1804WAT    HW1 5411   2.314   4.845   5.436
 1804WAT    HW2 5412   2.319   4.702   5.358
 1805WAT     OW 5413   1.351   0.567   1.887
 1805WAT    HW1 5414   1.254   0.547   1.901
 1805WAT    HW2 5415   1.361   0.658   1.847
 1806WAT     OW 5416   4.684   6.529   2.889
 1806WAT    HW1 5417   4.600   6.484   2.861
 1806WAT    HW2 5418   4.691   6.528   2.989
 1807WAT     OW 5419   6.362   2.427   2.194
 1807WAT    HW1 5420   6.280   2.412   2.138
 1807WAT    HW2 5421   6.371   2.354   2.261
 1808WAT     OW 5422   5.505   5.537   0.408
 1808WAT    HW1 5423   5.503   5.637   0.414
 1808WAT    HW2 5424   5.512   5.509   0.313
 1809WAT     OW 5425   2.022   3.362   3.964
 1809WAT    HW1 5426   1.991   3.267   3.953
 1809WAT    HW2 5427   2.007   3.391   4.059
 1810WAT     OW 5428   6.645   5.984   4.558
 1810WAT    HW1 5429   6.648   6.062   4.619
 1810WAT    HW2 5430   6.717   5.919   4.583
 1811WAT     OW 5431   0.259   6.218   1.979
 1811WAT    HW1 5432   0.340   6.165   2.006
 1811WAT    HW2 5433   0.242   6.204   1.881
 1812WAT     OW 5434   3.780   6.418   6.222
 1812WAT    HW1 5435   3.840   6.460   6.290
 1812WAT    HW2 5436   3.685   6.422   6.253
 1813WAT     OW 5437   0.307   2.246   2.025
 1813WAT    HW1 5438   0.333   2.209   2.114
 1813WAT    HW2 5439   0.289   2.345   2.034
 1814WAT     OW 5440   4.299   5.655   4.799
 1814WAT    HW1 5441   4.391   5.616   4.801
 1814WAT    HW2 5442   4.292   5.728   4.866
 1815WAT     OW 5443   4.237   5.550   3.459
 1815WAT    HW1 5444   4.277   5.635   3.423
 1815WAT    HW2 5445   4.275   5.532   3.549
 1816WAT     OW 5446   2.760   4.779   6.514
 1816WAT    HW1 5447   2.712   4.706   6.561
 1816WAT    HW2 5448   2.732   4.867   6.551
 1817WAT     OW 5449   4.699   3.485   3.058
 1817WAT    HW1 5450   4.636   3.410   3.076
 1817WAT    HW2 5451   4.707   3.542   3.140
 1818WAT     OW 5452   4.853   1.551   6.177
 1818WAT    HW1 5453   4.940   1.567   6.223
 1818WAT    HW2 5454   4.796   1.634   6.182
 1819WAT     OW 5455   1.229   6.183   3.093
 1819WAT    HW1 5456   1.253   6.269   3.137
 1819WAT    HW2 5457   1.284   6.109   3.131
 1820WAT     OW 5458   3.760   5.949   6.664
 1820WAT    HW1 5459   3.804   5.993   6.586
 1820WAT    HW2 5460   3.725   5.859   6.636
 1821WAT     OW 5461   0.352   3.426   4.321
 1821WAT    HW1 5462   0.388   3.422   4.228
 1821WAT    HW2 5463   0.262   3.469   4.321
 1822WAT     OW 5464   3.470   4.641   5.280
 1822WAT    HW1 5465   3.386   4.693   5.298
 1822WAT    HW2 5466   3.499   4.594   5.363
 1823WAT     OW 5467   4.036   3.838   2.055
 1823WAT    HW1 5468   4.039   3.876   1.963
 1823WAT    HW2 5469   4.029   3.738   2.049
 1824WAT     OW 5470   4.440   5.075   1.355
 1824WAT    HW1 5471   4.490   5.146   1.305
 1824WAT    HW2 5472   4.359   5.047   1.303
 1825WAT     OW 5473   1.320   1.246   0.167
 1825WAT    HW1 5474   1.338   1.250   0.266
 1825WAT    HW2 5475   1.258   1.170   0.148
 1826WAT     OW 5476   0.733   3.881   3.715
 1826WAT    HW1 5477   0.682   3.796   3.729
 1826WAT    HW2 5478   0.715   3.943   3.791
 1827WAT     OW 5479   5.831   4.069   0.623
 1827WAT    HW1 5480   5.833   4.015   0.708
 1827WAT    HW2 5481   5.825   4.007   0.545
 1828WAT     OW 5482   0.496   2.132   0.580
 1828WAT    HW1 5483   0.522   2.226   0.557
 1828WAT    HW2 5484   0.529   2.071   0.509
 1829WAT     OW 5485   4.349   0.149   0.072
 1829WAT    HW1 5486   4.285   0.225   0.087
 1829WAT    HW2 5487   4.297   0.064   0.061
 1830WAT     OW 5488   4.433   0.174   4.071
 1830WAT    HW1 5489   4.373   0.228   4.013
 1830WAT    HW2 5490   4.393   0.083   4.086
 1831WAT     OW 5491   3.000   1.989   0.300
 1831WAT    HW1 5492   2.906   1.975   0.269
 1831WAT    HW2 5493   3.025   1.916   0.364
 1832WAT     OW 5494   3.659   4.205   3.920
 1832WAT    HW1 5495   3.623   4.298   3.911
 1832WAT    HW2 5496   3.584   4.141   3.935
 1833WAT     OW 5497   5.637   5.565   1.463
 1833WAT    HW1 5498   5.551   5.575   1.413
 1833WAT    HW2 5499   5.712   5.606   1.411
 1834WAT     OW 5500   5.739   1.793   1.588
 1834WAT    HW1 5501   5.807   1.866   1.599
 1834WAT    HW2 5502   5.672   1.821   1.520
 1835WAT     OW 5503   5.742   4.360   0.045
 1835WAT    HW1 5504   5.808   4.298   0.001
 1835WAT    HW2 5505   5.655   4.312   0.057
 1836WAT     OW 5506   5.152   0.170   6.642
 1836WAT    HW1 5507   5.078   0.174   6.574
 1836WAT    HW2 5508   5.219   0.102   6.614
 1837WAT     OW 5509   4.100   0.686   3.654
 1837WAT    HW1 5510   4.108   0.586   3.651
 1837WAT    HW2 5511   4.101   0.716   3.750
 1838WAT     OW 5512   4.289   0.203   5.446
 1838WAT    HW1 5513   4.198   0.162   5.439
 1838WAT    HW2 5514   4.336   0.165   5.526
 1839WAT     OW 5515   5.742   1.346   5.189
 1839WAT    HW1 5516   5.816   1.318   5.129
 1839WAT    HW2 5517   5.674   1.397   5.137
 1840WAT     OW 5518   5.967   0.927   1.591
 1840WAT    HW1 5519   5.965   1.013   1.541
 1840WAT    HW2 5520   5.874   0.902   1.617
 1841WAT     OW 5521   1.495   1.053   4.861
 1841WAT    HW1 5522   1.482   1.151   4.877
 1841WAT    HW2 5523   1.416   1.003   4.898
 1842WAT     OW 5524   0.859   3.269   5.985
 1842WAT    HW1 5525   0.820   3.213   6.057
 1842WAT    HW2 5526   0.788   3.292   5.918
 1843WAT     OW 5527   4.062   4.390   3.529
 1843WAT    HW1 5528   4.117   4.308   3.511
 1843WAT    HW2 5529   3.966   4.372   3.505
 1844WAT     OW 5530   6.148   5.914   1.937
 1844WAT    HW1 5531   6.203   5.986   1.895
 1844WAT    HW2 5532   6.193   5.826   1.924
 1845WAT     OW 5533   0.453   1.797   6.137
 1845WAT    HW1 5534   0.538   1.840   6.168
 1845WAT    HW2 5535   0.379   1.864   6.140
 1846WAT     OW 5536   0.109   2.868   4.861
 1846WAT    HW1 5537   0.074   2.777   4.884
 1846WAT    HW2 5538   0.067   2.899   4.775
 1847WAT     OW 5539   6.540   3.091   4.420
 1847WAT    HW1 5540   6.552   3.091   4.321
 1847WAT    HW2 5541   6.442   3.092   4.442
 1848WAT     OW 5542   0.504   2.546   2.582
 1848WAT    HW1 5543   0.509   2.578   2.676
 1848WAT    HW2 5544   0.584   2.580   2.531
 1849WAT     OW 5545   3.934   4.658   5.324
 1849WAT    HW1 5546   3.904   4.608   5.243
 1849WAT    HW2 5547   4.028   4.630   5.347
 1850WAT     OW 5548   5.152   0.996   4.550
 1850WAT    HW1 5549   5.083   0.938   4.507
 1850WAT    HW2 5550   5.242   0.952   4.544
 1851WAT     OW 5551   5.511   0.845   0.743
 1851WAT    HW1 5552   5.455   0.766   0.718
 1851WAT    HW2 5553   5.535   0.840   0.840
 1852WAT     OW 5554   0.981   4.326   0.444
 1852WAT    HW1 5555   0.938   4.393   0.383
 1852WAT    HW2 5556   1.063   4.365   0.484
 1853WAT     OW 5557   1.144   5.623   1.759
 1853WAT    HW1 5558   1.142   5.555   1.685
 1853WAT    HW2 5559   1.120   5.713   1.723
 1854WAT     OW 5560   6.017   5.238   1.346
 1854WAT    HW1 5561   5.994   5.318   1.290
 1854WAT    HW2 5562   6.092   5.262   1.408
 1855WAT     OW 5563   2.613   2.614   6.062
 1855WAT    HW1 5564   2.531   2.577   6.106
 1855WAT    HW2 5565   2.663   2.541   6.016
 1856WAT     OW 5566   1.756   1.901   2.785
 1856WAT    HW1 5567   1.688   1.922   2.716
 1856WAT    HW2 5568   1.711   1.871   2.869
 1857WAT     OW 5569   5.911   4.550   5.393
 1857WAT    HW1 5570   5.825   4.576   5.349
 1857WAT    HW2 5571   5.937   4.620   5.459
 1858WAT     OW 5572   1.230   2.252   2.329
 1858WAT    HW1 5573   1.140   2.288   2.303
 1858WAT    HW2 5574   1.218   2.170   2.385
 1859WAT     OW 5575   5.600   3.736   0.783
 1859WAT    HW1 5576   5.513   3.785   0.779
 1859WAT    HW2 5577   5.588   3.652   0.835
 1860WAT     OW 5578   6.472   4.134   2.185
 1860WAT    HW1 5579   6.549   4.115   2.247
 1860WAT    HW2 5580   6.408   4.056   2.187
 1861WAT     OW 5581   5.050   6.320   1.268
 1861WAT    HW1 5582   4.986   6.337   1.193
 1861WAT    HW2 5583   5.062   6.405   1.321
 1862WAT     OW 5584   4.270   6.232   2.763
 1862WAT    HW1 5585   4.311   6.213   2.852
 1862WAT    HW2 5586   4.280   6.329   2.742
 1863WAT     OW 5587   0.878   2.298   1.622
 1863WAT    HW1 5588   0.796   2.240   1.626
 1863WAT    HW2 5589   0.870   2.362   1.545
 1864WAT     OW 5590   2.184   5.350   6.443
 1864WAT    HW1 5591   2.130   5.391   6.369
 1864WAT    HW2 5592   2.259   5.412   6.468
 1865WAT     OW 5593   1.377   0.948   2.140
 1865WAT    HW1 5594   1.409   0.854   2.141
 1865WAT    HW2 5595   1.285   0.953   2.100
 1866WAT     OW 5596   0.716   6.573   5.028
 1866WAT    HW1 5597   0.757   6.550   5.116
 1866WAT    HW2 5598   0.696   6.671   5.024
 1867WAT     OW 5599   4.974   1.856   0.002
 1867WAT    HW1 5600   5.012   1.942   0.036
 1867WAT    HW2 5601   4.917   1.874  -0.078
 1868WAT     OW 5602   5.899   1.694   0.082
 1868WAT    HW1 5603   5.850   1.752   0.017
 1868WAT    HW2 5604   5.941   1.751   0.152
 1869WAT     OW 5605   0.842   1.472   3.307
 1869WAT    HW1 5606   0.913   1.532   3.271
 1869WAT    HW2 5607   0.883   1.391   3.349
 1870WAT     OW 5608   2.448   0.883   0.677
 1870WAT    HW1 5609   2.540   0.897   0.642
 1870WAT    HW2 5610   2.437   0.933   0.764
 1871WAT     OW 5611   0.642   0.814   5.889
 1871WAT    HW1 5612   0.701   0.881   5.932
 1871WAT    HW2 5613   0.686   0.778   5.807
 1872WAT     OW 5614   1.772   4.444   5.156
 1872WAT    HW1 5615   1.748   4.427   5.252
 1872WAT    HW2 5616   1.863   4.485   5.152
 1873WAT     OW 5617   3.824   0.176   3.318
 1873WAT    HW1 5618   3.823   0.089   3.367
 1873WAT    HW2 5619   3.918   0.198   3.291
 1874WAT     OW 5620   1.440   3.538   4.640
 1874WAT    HW1 5621   1.379   3.474   4.595
 1874WAT    HW2 5622   1.534   3.522   4.610
 1875WAT     OW 5623   5.700   3.290   0.785
 1875WAT    HW1 5624   5.793   3.328   0.777
 1875WAT    HW2 5625   5.683   3.229   0.707
 1876WAT     OW 5626   5.920   6.337   5.990
 1876WAT    HW1 5627   5.865   6.254   5.989
 1876WAT    HW2 5628   6.017   6.313   5.988
 1877WAT     OW 5629   5.451   5.059   3.151
 1877WAT    HW1 5630   5.467   5.151   3.186
 1877WAT    HW2 5631   5.529   5.001   3.174
 1878WAT     OW 5632   2.941   0.621   1.035
 1878WAT    HW1 5633   2.881   0.687   0.991
 1878WAT    HW2 5634   3.027   0.614   0.984
 1879WAT     OW 5635   3.302   2.993   5.443
 1879WAT    HW1 5636   3.344   3.081   5.467
 1879WAT    HW2 5637   3.341   2.960   5.357
 1880WAT     OW 5638   3.926   1.599   3.059
 1880WAT    HW1 5639   3.921   1.522   3.124
 1880WAT    HW2 5640   3.897   1.683   3.105
 1881WAT     OW 5641   3.536   5.941   6.249
 1881WAT    HW1 5642   3.600   6.018   6.246
 1881WAT    HW2 5643   3.529   5.900   6.158
 1882WAT     OW 5644   2.074   3.247   5.388
 1882WAT    HW1 5645   2.103   3.160   5.349
 1882WAT    HW2 5646   2.026   3.231   5.474
 1883WAT     OW 5647   5.867   2.933   0.666
 1883WAT    HW1 5648   5.902   2.893   0.581
 1883WAT    HW2 5649   5.796   3.001   0.644
 1884WAT     OW 5650   4.513   2.502   6.235
 1884WAT    HW1 5651   4.499   2.577   6.171
 1884WAT    HW2 5652   4.505   2.415   6.186
 1885WAT     OW 5653   6.258   3.438   4.975
 1885WAT    HW1 5654   6.332   3.442   5.041
 1885WAT    HW2 5655   6.170   3.444   5.022
 1886WAT     OW 5656   1.979   4.378   4.608
 1886WAT    HW1 5657   1.942   4.305   4.666
 1886WAT    HW2 5658   1.937   4.465   4.632
 1887WAT     OW 5659   5.020   0.553   0.164
 1887WAT    HW1 5660   4.957   0.505   0.225
 1887WAT    HW2 5661   4.968   0.611   0.101
 1888WAT     OW 5662   3.755   6.161   2.048
 1888WAT    HW1 5663   3.655   6.158   2.047
 1888WAT    HW2 5664   3.791   6.068   2.036
 1889WAT     OW 5665   5.763   3.296   5.913
 1889WAT    HW1 5666   5.775   3.394   5.931
 1889WAT    HW2 5667   5.666   3.274   5.913
 1890WAT     OW 5668   0.914   3.523   4.470
 1890WAT    HW1 5669   0.843   3.477   4.416
 1890WAT    HW2 5670   0.871   3.577   4.542
 1891WAT     OW 5671   3.037   6.430   1.513
 1891WAT    HW1 5672   2.994   6.420   1.424
 1891WAT    HW2 5673   3.034   6.526   1.541
 1892WAT     OW 5674   4.965   4.190   6.161
 1892WAT    HW1 5675   4.961   4.269   6.222
 1892WAT    HW2 5676   4.903   4.119   6.195
 1893WAT     OW 5677   0.606   4.686   0.846
 1893WAT    HW1 5678   0.665   4.765   0.858
 1893WAT    HW2 5679   0.603   4.634   0.932
 1894WAT     OW 5680   3.290   5.027   3.464
 1894WAT    HW1 5681   3.303   4.947   3.523
 1894WAT    HW2 5682   3.209   5.078   3.494
 1895WAT     OW 5683   6.447   3.474   4.107
 1895WAT    HW1 5684   6.471   3.465   4.204
 1895WAT    HW2 5685   6.486   3.559   4.071
 1896WAT     OW 5686   0.159   2.175   2.805
 1896WAT    HW1 5687   0.135   2.271   2.797
 1896WAT    HW2 5688   0.257   2.166   2.825
 1897WAT     OW 5689   4.646   2.850   0.207
 1897WAT    HW1 5690   4.633   2.902   0.123
 1897WAT    HW2 5691   4.694   2.765   0.187
 1898WAT     OW 5692   1.942   0.801   0.200
 1898WAT    HW1 5693   1.893   0.886   0.181
 1898WAT    HW2 5694   1.970   0.759   0.114
 1899WAT     OW 5695   4.705   0.854   0.606
 1899WAT    HW1 5696   4.620   0.834   0.557
 1899WAT    HW2 5697   4.779   0.865   0.540
 1900WAT     OW 5698   3.159   2.550   5.757
 1900WAT    HW1 5699   3.077   2.564   5.813
 1900WAT    HW2 5700   3.194   2.638   5.726
 1901WAT     OW 5701   0.528   1.055   5.235
 1901WAT    HW1 5702   0.620   1.041   5.199
 1901WAT    HW2 5703   0.493   1.144   5.204
 1902WAT     OW 5704   6.283   0.322   6.037
 1902WAT    HW1 5705   6.320   0.412   6.059
 1902WAT    HW2 5706   6.309   0.257   6.108
 1903WAT     OW 5707   4.437   3.738   1.692
 1903WAT    HW1 5708   4.383   3.743   1.608
 1903WAT    HW2 5709   4.513   3.803   1.687
 1904WAT     OW 5710   5.131   0.930   5.485
 1904WAT    HW1 5711   5.190   0.985   5.544
 1904WAT    HW2 5712   5.183   0.852   5.450
 1905WAT     OW 5713   0.819   0.734   6.278
 1905WAT    HW1 5714   0.793   0.661   6.215
 1905WAT    HW2 5715   0.754   0.809   6.272
 1906WAT     OW 5716   2.024   3.090   2.226
 1906WAT    HW1 5717   2.091   3.162   2.212
 1906WAT    HW2 5718   2.068   3.001   2.213
 1907WAT     OW 5719   2.237   3.015   1.130
 1907WAT    HW1 5720   2.223   2.920   1.102
 1907WAT    HW2 5721   2.169   3.073   1.086
 1908WAT     OW 5722   2.180   2.809   0.656
 1908WAT    HW1 5723   2.103   2.870   0.672
 1908WAT    HW2 5724   2.265   2.862   0.657
 1909WAT     OW 5725   5.055   3.910   1.391
 1909WAT    HW1 5726   5.027   4.003   1.367
 1909WAT    HW2 5727   5.032   3.893   1.487
 1910WAT     OW 5728   1.841   4.379   0.963
 1910WAT    HW1 5729   1.889   4.445   0.906
 1910WAT    HW2 5730   1.824   4.296   0.910
 1911WAT     OW 5731   5.650   1.782   4.079
 1911WAT    HW1 5732   5.554   1.790   4.106
 1911WAT    HW2 5733   5.702   1.743   4.156
 1912WAT     OW 5734   3.124   0.750   3.188
 1912WAT    HW1 5735   3.039   0.803   3.189
 1912WAT    HW2 5736   3.125   0.691   3.107
 1913WAT     OW 5737   3.454   2.551   0.988
 1913WAT    HW1 5738   3.400   2.477   1.027
 1913WAT    HW2 5739   3.437   2.636   1.038
 1914WAT     OW 5740   1.428   5.545   4.093
 1914WAT    HW1 5741   1.421   5.580   4.186
 1914WAT    HW2 5742   1.522   5.512   4.078
 1915WAT     OW 5743   3.482   5.184   6.255
 1915WAT    HW1 5744   3.556   5.119   6.273
 1915WAT    HW2 5745   3.521   5.275   6.241
 1916WAT     OW 5746   5.556   1.666   6.152
 1916WAT    HW1 5747   5.609   1.605   6.212
 1916WAT    HW2 5748   5.504   1.612   6.087
 1917WAT     OW 5749   5.024   3.504   2.393
 1917WAT    HW1 5750   4.928   3.479   2.393
 1917WAT    HW2 5751   5.055   3.519   2.487
 1918WAT     OW 5752   0.579   5.884   5.880
 1918WAT    HW1 5753   0.482   5.883   5.903
 1918WAT    HW2 5754   0.610   5.978   5.866
 1919WAT     OW 5755   4.673   4.764   3.696
 1919WAT    HW1 5756   4.653   4.837   3.762
 1919WAT    HW2 5757   4.587   4.728   3.661
 1920WAT     OW 5758   0.158   1.165   2.917
 1920WAT    HW1 5759   0.139   1.070   2.945
 1920WAT    HW2 5760   0.236   1.200   2.968
 1921WAT     OW 5761   6.067   1.163   3.261
 1921WAT    HW1 5762   6.139   1.093   3.267
 1921WAT    HW2 5763   6.016   1.151   3.175
 1922WAT     OW 5764   3.573   4.343   0.518
 1922WAT    HW1 5765   3.585   4.398   0.600
 1922WAT    HW2 5766   3.564   4.246   0.543
 1923WAT     OW 5767   3.572   3.555   6.257
 1923WAT    HW1 5768   3.629   3.633   6.285
 1923WAT    HW2 5769   3.582   3.481   6.323
 1924WAT     OW 5770   2.941   2.765   4.240
 1924WAT    HW1 5771   3.032   2.750   4.202
 1924WAT    HW2 5772   2.873   2.720   4.182
 1925WAT     OW 5773   2.966   6.574   3.936
 1925WAT    HW1 5774   3.057   6.534   3.922
 1925WAT    HW2 5775   2.958   6.606   4.031
 1926WAT     OW 5776   5.849   2.029   5.690
 1926WAT    HW1 5777   5.813   1.973   5.616
 1926WAT    HW2 5778   5.899   1.970   5.754
 1927WAT     OW 5779   1.972   1.089   3.697
 1927WAT    HW1 5780   1.932   1.012   3.747
 1927WAT    HW2 5781   2.038   1.135   3.756
 1928WAT     OW 5782   3.626   5.913   2.674
 1928WAT    HW1 5783   3.636   5.914   2.574
 1928WAT    HW2 5784   3.552   5.850   2.699
 1929WAT     OW 5785   3.423   0.106   2.507
 1929WAT    HW1 5786   3.329   0.139   2.511
 1929WAT    HW2 5787   3.429   0.015   2.548
 1930WAT     OW 5788   3.572   6.345   4.111
 1930WAT    HW1 5789   3.561   6.442   4.130
 1930WAT    HW2 5790   3.539   6.292   4.190
 1931WAT     OW 5791   0.197   4.430   1.377
 1931WAT    HW1 5792   0.214   4.427   1.476
 1931WAT    HW2 5793   0.107   4.391   1.358
 1932WAT     OW 5794   3.885   2.510   2.983
 1932WAT    HW1 5795   3.879   2.609   2.984
 1932WAT    HW2 5796   3.876   2.477   2.889
 1933WAT     OW 5797   0.054   1.609   0.325
 1933WAT    HW1 5798   0.017   1.571   0.410
 1933WAT    HW2 5799   0.121   1.680   0.347
 1934WAT     OW 5800   0.671   6.389   5.455
 1934WAT    HW1 5801   0.607   6.448   5.504
 1934WAT    HW2 5802   0.735   6.348   5.521
 1935WAT     OW 5803   1.147   2.778   3.925
 1935WAT    HW1 5804   1.207   2.723   3.867
 1935WAT    HW2 5805   1.058   2.733   3.934
 1936WAT     OW 5806   1.618   3.544   3.533
 1936WAT    HW1 5807   1.680   3.613   3.496
 1936WAT    HW2 5808   1.616   3.551   3.633
 1937WAT     OW 5809   1.396   3.769   4.934
 1937WAT    HW1 5810   1.398   3.862   4.971
 1937WAT    HW2 5811   1.319   3.758   4.872
 1938WAT     OW 5812   2.096   1.867   5.798
 1938WAT    HW1 5813   2.126   1.948   5.746
 1938WAT    HW2 5814   1.997   1.871   5.809
 1939WAT     OW 5815   6.682   2.564   4.449
 1939WAT    HW1 5816   6.705   2.528   4.540
 1939WAT    HW2 5817   6.648   2.489   4.392
 1940WAT     OW 5818   1.798   2.516   0.769
 1940WAT    HW1 5819   1.876   2.551   0.717
 1940WAT    HW2 5820   1.714   2.529   0.717
 1941WAT     OW 5821   1.268   1.585   6.509
 1941WAT    HW1 5822   1.209   1.665   6.522
 1941WAT    HW2 5823   1.288   1.574   6.412
 1942WAT     OW 5824   6.164   5.049   0.582
 1942WAT    HW1 5825   6.233   4.980   0.560
 1942WAT    HW2 5826   6.097   5.010   0.646
 1943WAT     OW 5827   5.333   0.138   0.897
 1943WAT    HW1 5828   5.367   0.148   0.991
 1943WAT    HW2 5829   5.234   0.156   0.896
 1944WAT     OW 5830   1.795   4.925   4.422
 1944WAT    HW1 5831   1.699   4.900   4.437
 1944WAT    HW2 5832   1.852   4.843   4.430
 1945WAT     OW 5833   6.637   2.993   0.426
 1945WAT    HW1 5834   6.578   2.944   0.490
 1945WAT    HW2 5835   6.705   2.931   0.389
 1946WAT     OW 5836   1.593   3.420   2.057
 1946WAT    HW1 5837   1.659   3.390   1.989
 1946WAT    HW2 5838   1.500   3.397   2.026
 1947WAT     OW 5839   4.361   2.457   1.206
 1947WAT    HW1 5840   4.343   2.435   1.111
 1947WAT    HW2 5841   4.275   2.459   1.257
 1948WAT     OW 5842   2.727   2.119   5.166
 1948WAT    HW1 5843   2.649   2.058   5.175
 1948WAT    HW2 5844   2.799   2.092   5.231
 1949WAT     OW 5845   3.046   1.223   4.359
 1949WAT    HW1 5846   2.983   1.155   4.320
 1949WAT    HW2 5847   3.040   1.220   4.459
 1950WAT     OW 5848   3.395   0.048   5.542
 1950WAT    HW1 5849   3.349  -0.038   5.566
 1950WAT    HW2 5850   3.348   0.091   5.465
 1951WAT     OW 5851   4.557   4.549   5.184
 1951WAT    HW1 5852   4.605   4.490   5.119
 1951WAT    HW2 5853   4.460   4.554   5.160
 1952WAT     OW 5854   4.691   2.197   2.665
 1952WAT    HW1 5855   4.775   2.159   2.626
 1952WAT    HW2 5856   4.651   2.131   2.729
 1953WAT     OW 5857   0.567   5.334   2.635
 1953WAT    HW1 5858   0.657   5.293   2.647
 1953WAT    HW2 5859   0.541   5.331   2.538
 1954WAT     OW 5860   5.956   1.416   5.911
 1954WAT    HW1 5861   5.860   1.391   5.898
 1954WAT    HW2 5862   6.015   1.354   5.860
 1955WAT     OW 5863   1.851   2.694   3.504
 1955WAT    HW1 5864   1.840   2.603   3.466
 1955WAT    HW2 5865   1.894   2.688   3.594
 1956WAT     OW 5866   5.816   4.888   3.441
 1956WAT    HW1 5867   5.757   4.920   3.515
 1956WAT    HW2 5868   5.899   4.944   3.438
 1957WAT     OW 5869   2.551   5.803   6.124
 1957WAT    HW1 5870   2.569   5.763   6.034
 1957WAT    HW2 5871   2.492   5.884   6.113
 1958WAT     OW 5872   4.398   5.137   1.950
 1958WAT    HW1 5873   4.364   5.136   1.856
 1958WAT    HW2 5874   4.483   5.190   1.954
 1959WAT     OW 5875   4.203   4.632   5.705
 1959WAT    HW1 5876   4.284   4.573   5.704
 1959WAT    HW2 5877   4.187   4.664   5.799
 1960WAT     OW 5878   2.135   0.226   1.201
 1960WAT    HW1 5879   2.077   0.295   1.157
 1960WAT    HW2 5880   2.095   0.200   1.289
 1961WAT     OW 5881   0.607   4.776   4.509
 1961WAT    HW1 5882   0.627   4.836   4.432
 1961WAT    HW2 5883   0.522   4.727   4.492
 1962WAT     OW 5884   5.483   3.497   4.462
 1962WAT    HW1 5885   5.386   3.482   4.443
 1962WAT    HW2 5886   5.539   3.438   4.403
 1963WAT     OW 5887   5.330   4.874   0.316
 1963WAT    HW1 5888   5.385   4.853   0.236
 1963WAT    HW2 5889   5.234   4.855   0.297
 1964WAT     OW 5890   2.926   5.089   1.555
 1964WAT    HW1 5891   2.949   5.149   1.632
 1964WAT    HW2 5892   2.863   5.137   1.493
 1965WAT     OW 5893   3.718   5.977   4.581
 1965WAT    HW1 5894   3.663   5.900   4.549
 1965WAT    HW2 5895   3.684   6.009   4.669
 1966WAT     OW 5896   4.712   6.514   3.160
 1966WAT    HW1 5897   4.669   6.593   3.204
 1966WAT    HW2 5898   4.668   6.430   3.193
 1967WAT     OW 5899   3.543   0.343   6.648
 1967WAT    HW1 5900   3.590   0.363   6.562
 1967WAT    HW2 5901   3.563   0.414   6.715
 1968WAT     OW 5902   0.595   1.741   1.378
 1968WAT    HW1 5903   0.683   1.758   1.334
 1968WAT    HW2 5904   0.566   1.824   1.425
 1969WAT     OW 5905   5.799   3.915   0.859
 1969WAT    HW1 5906   5.850   3.860   0.924
 1969WAT    HW2 5907   5.721   3.862   0.824
 1970WAT     OW 5908   5.834   3.013   6.610
 1970WAT    HW1 5909   5.876   2.938   6.558
 1970WAT    HW2 5910   5.878   3.099   6.586
 1971WAT     OW 5911   4.982   2.941   3.416
 1971WAT    HW1 5912   5.071   2.971   3.450
 1971WAT    HW2 5913   4.992   2.854   3.368
 1972WAT     OW 5914   4.831   4.739   0.115
 1972WAT    HW1 5915   4.782   4.757   0.200
 1972WAT    HW2 5916   4.778   4.674   0.060
 1973WAT     OW 5917   1.852   0.424   4.182
 1973WAT    HW1 5918   1.951   0.432   4.200
 1973WAT    HW2 5919   1.809   0.376   4.258
 1974WAT     OW 5920   0.800   4.593   3.455
 1974WAT    HW1 5921   0.858   4.674   3.444
 1974WAT    HW2 5922   0.741   4.584   3.375
 1975WAT     OW 5923   1.851   1.458   2.257
 1975WAT    HW1 5924   1.805   1.545   2.278
 1975WAT    HW2 5925   1.810   1.385   2.311
 1976WAT     OW 5926   1.324   1.562   5.125
 1976WAT    HW1 5927   1.340   1.642   5.183
 1976WAT    HW2 5928   1.236   1.570   5.079
 1977WAT     OW 5929   2.556   1.990   5.576
 1977WAT    HW1 5930   2.588   1.899   5.552
 1977WAT    HW2 5931   2.479   2.014   5.516
 1978WAT     OW 5932   3.888   3.425   5.965
 1978WAT    HW1 5933   3.789   3.439   5.972
 1978WAT    HW2 5934   3.926   3.407   6.055
 1979WAT     OW 5935   4.918   1.902   4.990
 1979WAT    HW1 5936   5.008   1.861   4.977
 1979WAT    HW2 5937   4.890   1.890   5.085
 1980WAT     OW 5938   5.637   6.090   1.230
 1980WAT    HW1 5939   5.614   5.995   1.210
 1980WAT    HW2 5940   5.723   6.114   1.184
 1981WAT     OW 5941   3.276   4.190   2.485
 1981WAT    HW1 5942   3.269   4.126   2.562
 1981WAT    HW2 5943   3.199   4.175   2.422
 1982WAT     OW 5944   3.922   5.084   1.820
 1982WAT    HW1 5945   3.914   5.086   1.920
 1982WAT    HW2 5946   3.995   5.020   1.795
 1983WAT     OW 5947   2.040   3.912   3.817
 1983WAT    HW1 5948   2.100   3.965   3.878
 1983WAT    HW2 5949   1.988   3.975   3.760
 1984WAT     OW 5950   6.247   5.417   0.813
 1984WAT    HW1 5951   6.181   5.356   0.859
 1984WAT    HW2 5952   6.198   5.478   0.750
 1985WAT     OW 5953   2.060   4.076   0.517
 1985WAT    HW1 5954   2.125   4.010   0.479
 1985WAT    HW2 5955   1.968   4.056   0.483
 1986WAT     OW 5956   2.689   0.375   1.585
 1986WAT    HW1 5957   2.625   0.368   1.508
 1986WAT    HW2 5958   2.638   0.378   1.670
 1987WAT     OW 5959   2.638   5.229   3.092
 1987WAT    HW1 5960   2.732   5.264   3.086
 1987WAT    HW2 5961   2.610   5.194   3.003
 1988WAT     OW 5962   1.009   3.268   2.660
 1988WAT    HW1 5963   0.918   3.293   2.695
 1988WAT    HW2 5964   1.071   3.346   2.672
 1989WAT     OW 5965   2.814   5.153   4.480
 1989WAT    HW1 5966   2.887   5.098   4.439
 1989WAT    HW2 5967   2.826   5.156   4.579
 1990WAT     OW 5968   5.487   4.121   3.133
 1990WAT    HW1 5969   5.418   4.152   3.067
 1990WAT    HW2 5970   5.508   4.025   3.117
 1991WAT     OW 5971   5.523   0.096   0.056
 1991WAT    HW1 5972   5.561   0.153   0.129
 1991WAT    HW2 5973   5.544   0.136  -0.033
 1992WAT     OW 5974   0.146   0.565   3.085
 1992WAT    HW1 5975   0.195   0.479   3.099
 1992WAT    HW2 5976   0.097   0.590   3.168
 1993WAT     OW 5977   4.503   5.599   0.908
 1993WAT    HW1 5978   4.518   5.594   0.809
 1993WAT    HW2 5979   4.573   5.545   0.954
 1994WAT     OW 5980   4.048   5.866   2.203
 1994WAT    HW1 5981   3.974   5.895   2.142
 1994WAT    HW2 5982   4.030   5.774   2.237
 1995WAT     OW 5983   5.135   0.394   1.325
 1995WAT    HW1 5984   5.121   0.491   1.343
 1995WAT    HW2 5985   5.124   0.343   1.411
 1996WAT     OW 5986   5.700   6.189   3.202
 1996WAT    HW1 5987   5.695   6.277   3.249
 1996WAT    HW2 5988   5.626   6.181   3.136
 1997WAT     OW 5989   0.192   4.404   3.302
 1997WAT    HW1 5990   0.164   4.318   3.260
 1997WAT    HW2 5991   0.110   4.458   3.325
 1998WAT     OW 5992   4.172   3.436   2.796
 1998WAT    HW1 5993   4.148   3.374   2.722
 1998WAT    HW2 5994   4.251   3.400   2.846
 1999WAT     OW 5995   6.209   3.963   1.777
 1999WAT    HW1 5996   6.254   3.904   1.844
 1999WAT    HW2 5997   6.118   3.925   1.755
 2000WAT     OW 5998   2.081   4.765   6.194
 2000WAT    HW1 5999   2.057   4.839   6.257
 2000WAT    HW2 6000   2.044   4.679   6.228
 2001WAT     OW 6001   0.400   0.949   4.604
 2001WAT    HW1 6002   0.331   0.994   4.547
 2001WAT    HW2 6003   0.383   0.850   4.605
 2002WAT     OW 6004   0.727   3.119   2.163
 2002WAT    HW1 6005   0.749   3.121   2.261
 2002WAT    HW2 6006   0.695   3.028   2.138
 2003WAT     OW 6007   3.476   5.902   5.594
 2003WAT    HW1 6008   3.500   5.937   5.503
 2003WAT    HW2 6009   3.548   5.841   5.626
 2004WAT     OW 6010   1.426   3.919   6.400
 2004WAT    HW1 6011   1.373   3.946   6.319
 2004WAT    HW2 6012   1.514   3.965   6.399
 2005WAT     OW 6013   3.706   1.540   3.622
 2005WAT    HW1 6014   3.741   1.595   3.545
 2005WAT    HW2 6015   3.781   1.485   3.659
 2006WAT     OW 6016   3.050   1.848   2.597
 2006WAT    HW1 6017   3.077   1.795   2.517
 2006WAT    HW2 6018   3.111   1.927   2.606
 2007WAT     OW 6019   2.221   0.534   3.916
 2007WAT    HW1 6020   2.240   0.563   4.010
 2007WAT    HW2 6021   2.178   0.444   3.917
 2008WAT     OW 6022   1.806   3.593   2.677
 2008WAT    HW1 6023   1.784   3.575   2.773
 2008WAT    HW2 6024   1.766   3.681   2.650
 2009WAT     OW 6025   3.441   3.122   4.947
 2009WAT    HW1 6026   3.451   3.222   4.945
 2009WAT    HW2 6027   3.516   3.082   5.000
 2010WAT     OW 6028   2.177   2.339   0.867
 2010WAT    HW1 6029   2.078   2.329   0.864
 2010WAT    HW2 6030   2.215   2.278   0.936
 2011WAT     OW 6031   6.678   2.628   4.932
 2011WAT    HW1 6032   6.586   2.664   4.946
 2011WAT    HW2 6033   6.706   2.574   5.011
 2012WAT     OW 6034   1.059   0.867   0.576
 2012WAT    HW1 6035   1.073   0.959   0.538
 2012WAT    HW2 6036   1.069   0.870   0.675
 2013WAT     OW 6037   2.483   5.419   2.430
 2013WAT    HW1 6038   2.384   5.421   2.414
 2013WAT    HW2 6039   2.503   5.459   2.519
 2014WAT     OW 6040   2.490   2.987   4.390
 2014WAT    HW1 6041   2.510   2.899   4.347
 2014WAT    HW2 6042   2.575   3.029   4.421
 2015WAT     OW 6043   5.558   4.827   4.070
 2015WAT    HW1 6044   5.474   4.851   4.021
 2015WAT    HW2 6045   5.566   4.883   4.152
 2016WAT     OW 6046   1.898   5.575   5.122
 2016WAT    HW1 6047   1.920   5.478   5.111
 2016WAT    HW2 6048   1.956   5.630   5.061
 2017WAT     OW 6049   5.972   2.818   6.470
 2017WAT    HW1 6050   5.990   2.885   6.398
 2017WAT    HW2 6051   6.058   2.779   6.503
 2018WAT     OW 6052   1.132   5.503   0.718
 2018WAT    HW1 6053   1.178   5.480   0.804
 2018WAT    HW2 6054   1.146   5.430   0.652
 2019WAT     OW 6055   5.553   0.833   4.104
 2019WAT    HW1 6056   5.561   0.761   4.035
 2019WAT    HW2 6057   5.597   0.917   4.070
 2020WAT     OW 6058   0.343   3.152   1.247
 2020WAT    HW1 6059   0.428   3.204   1.240
 2020WAT    HW2 6060   0.356   3.063   1.204
 2021WAT     OW 6061   4.765   3.322   1.227
 2021WAT    HW1 6062   4.672   3.349   1.205
 2021WAT    HW2 6063   4.771   3.222   1.229
 2022WAT     OW 6064   4.183   4.627   6.417
 2022WAT    HW1 6065   4.108   4.691   6.429
 2022WAT    HW2 6066   4.156   4.537   6.452
 2023WAT     OW 6067   0.223   1.816   2.926
 2023WAT    HW1 6068   0.240   1.807   2.828
 2023WAT    HW2 6069   0.297   1.869   2.968
 2024WAT     OW 6070   0.909   5.142   5.504
 2024WAT    HW1 6071   0.917   5.097   5.593
 2024WAT    HW2 6072   0.815   5.136   5.472
 2025WAT     OW 6073   2.628   1.138   0.256
 2025WAT    HW1 6074   2.640   1.166   0.160
 2025WAT    HW2 6075   2.530   1.135   0.277
 2026WAT     OW 6076   4.302   2.665   5.836
 2026WAT    HW1 6077   4.334   2.755   5.867
 2026WAT    HW2 6078   4.221   2.639   5.889
 2027WAT     OW 6079   1.067   5.118   2.639
 2027WAT    HW1 6080   1.035   5.050   2.705
 2027WAT    HW2 6081   1.057   5.082   2.546
 2028WAT     OW 6082   0.026   3.437   6.285
 2028WAT    HW1 6083   0.123   3.425   6.263
 2028WAT    HW2 6084   0.018   3.474   6.378
 2029WAT     OW 6085   3.414   1.361   4.555
 2029WAT    HW1 6086   3.357   1.442   4.540
 2029WAT    HW2 6087   3.424   1.311   4.470
 2030WAT     OW 6088   4.796   4.782   1.802
 2030WAT    HW1 6089   4.879   4.737   1.835
 2030WAT    HW2 6090   4.809   4.881   1.802
 2031WAT     OW 6091   1.239   1.158   2.991
 2031WAT    HW1 6092   1.182   1.117   2.919
 2031WAT    HW2 6093   1.243   1.257   2.978
 2032WAT     OW 6094   1.452   5.704   2.225
 2032WAT    HW1 6095   1.492   5.794   2.208
 2032WAT    HW2 6096   1.390   5.680   2.151
 2033WAT     OW 6097   1.568   6.669   1.976
 2033WAT    HW1 6098   1.482   6.622   1.953
 2033WAT    HW2 6099   1.607   6.629   2.059
 2034WAT     OW 6100   3.809   5.957   0.401
 2034WAT    HW1 6101   3.721   5.912   0.384
 2034WAT    HW2 6102   3.874   5.929   0.331
 2035WAT     OW 6103   2.270   3.415   0.140
 2035WAT    HW1 6104   2.317   3.457   0.218
 2035WAT    HW2 6105   2.225   3.486   0.086
 2036WAT     OW 6106   2.789   4.620   2.087
 2036WAT    HW1 6107   2.841   4.690   2.038
 2036WAT    HW2 6108   2.691   4.634   2.072
 2037WAT     OW 6109   4.894   0.156   0.080
 2037WAT    HW1 6110   4.867   0.173   0.175
 2037WAT    HW2 6111   4.993   0.169   0.072
 2038WAT     OW 6112   3.041   0.962   1.163
 2038WAT    HW1 6113   2.943   0.949   1.169
 2038WAT    HW2 6114   3.068   1.043   1.216
 2039WAT     OW 6115   4.562   5.302   4.645
 2039WAT    HW1 6116   4.597   5.208   4.644
 2039WAT    HW2 6117   4.527   5.326   4.555
 2040WAT     OW 6118   3.750   6.543   4.931
 2040WAT    HW1 6119   3.836   6.493   4.935
 2040WAT    HW2 6120   3.736   6.592   5.018
 2041WAT     OW 6121   3.846   4.266   2.802
 2041WAT    HW1 6122   3.800   4.241   2.717
 2041WAT    HW2 6123   3.850   4.366   2.810
 2042WAT     OW 6124   2.083   4.061   5.253
 2042WAT    HW1 6125   2.161   4.006   5.284
 2042WAT    HW2 6126   2.053   4.028   5.164
 2043WAT     OW 6127   1.168   3.415   0.740
 2043WAT    HW1 6128   1.070   3.432   0.726
 2043WAT    HW2 6129   1.179   3.339   0.804
 2044WAT     OW 6130   0.356   3.061   3.371
 2044WAT    HW1 6131   0.373   2.999   3.295
 2044WAT    HW2 6132   0.261   3.091   3.369
 2045WAT     OW 6133   3.456   1.857   5.712
 2045WAT    HW1 6134   3.528   1.809   5.762
 2045WAT    HW2 6135   3.474   1.852   5.614
 2046WAT     OW 6136   1.186   2.032   2.506
 2046WAT    HW1 6137   1.171   2.098   2.580
 2046WAT    HW2 6138   1.161   1.941   2.536
 2047WAT     OW 6139   0.309   1.471   5.355
 2047WAT    HW1 6140   0.216   1.440   5.332
 2047WAT    HW2 6141   0.304   1.554   5.410
 2048WAT     OW 6142   1.733   0.029   4.940
 2048WAT    HW1 6143   1.706   0.052   5.033
 2048WAT    HW2 6144   1.683   0.088   4.876
 2049WAT     OW 6145   0.065   4.972   4.266
 2049WAT    HW1 6146   0.065   5.059   4.315
 2049WAT    HW2 6147  -0.016   4.919   4.292
 2050WAT     OW 6148   5.127   4.422   5.575
 2050WAT    HW1 6149   5.204   4.360   5.592
 2050WAT    HW2 6150   5.091   4.405   5.483
 2051WAT     OW 6151   2.222   0.186   6.599
 2051WAT    HW1 6152   2.220   0.202   6.501
 2051WAT    HW2 6153   2.128   0.180   6.634
 2052WAT     OW 6154   5.085   6.573   2.662
 2052WAT    HW1 6155   5.051   6.574   2.568
 2052WAT    HW2 6156   5.025   6.516   2.718
 2053WAT     OW 6157   4.553   6.574   5.544
 2053WAT    HW1 6158   4.510   6.653   5.588
 2053WAT    HW2 6159   4.521   6.566   5.450
 2054WAT     OW 6160   1.085   3.613   6.138
 2054WAT    HW1 6161   1.104   3.633   6.234
 2054WAT    HW2 6162   1.091   3.515   6.122
 2055WAT     OW 6163   4.089   2.890   4.960
 2055WAT    HW1 6164   3.991   2.896   4.941
 2055WAT    HW2 6165   4.113   2.797   4.988
 2056WAT     OW 6166   1.797   4.160   2.461
 2056WAT    HW1 6167   1.849   4.140   2.543
 2056WAT    HW2 6168   1.847   4.129   2.381
 2057WAT     OW 6169   3.161   2.652   1.965
 2057WAT    HW1 6170   3.119   2.664   2.055
 2057WAT    HW2 6171   3.260   2.643   1.976
 2058WAT     OW 6172   3.920   3.439   0.849
 2058WAT    HW1 6173   3.992   3.407   0.788
 2058WAT    HW2 6174   3.832   3.435   0.803
 2059WAT     OW 6175   0.510   4.265   0.150
 2059WAT    HW1 6176   0.448   4.207   0.097
 2059WAT    HW2 6177   0.597   4.273   0.101
 2060WAT     OW 6178   0.497   3.704   2.050
 2060WAT    HW1 6179   0.399   3.685   2.044
 2060WAT    HW2 6180   0.520   3.724   2.145
 2061WAT     OW 6181   4.349   4.242   3.839
 2061WAT    HW1 6182   4.366   4.159   3.787
 2061WAT    HW2 6183   4.252   4.247   3.864
 2062WAT     OW 6184   6.549   1.163   4.302
 2062WAT    HW1 6185   6.531   1.249   4.350
 2062WAT    HW2 6186   6.582   1.095   4.367
 2063WAT     OW 6187   2.934   4.920   4.766
 2063WAT    HW1 6188   2.852   4.867   4.746
 2063WAT    HW2 6189   2.915   5.017   4.756
 2064WAT     OW 6190   2.833   3.373   3.988
 2064WAT    HW1 6191   2.759   3.313   4.017
 2064WAT    HW2 6192   2.805   3.468   3.996
 2065WAT     OW 6193   0.946   1.518   1.259
 2065WAT    HW1 6194   0.997   1.509   1.345
 2065WAT    HW2 6195   0.986   1.457   1.191
 2066WAT     OW 6196   6.616   3.530   0.298
 2066WAT    HW1 6197   6.558   3.594   0.248
 2066WAT    HW2 6198   6.674   3.480   0.234
 2067WAT     OW 6199   6.136   0.051   3.847
 2067WAT    HW1 6200   6.135   0.062   3.946
 2067WAT    HW2 6201   6.114   0.139   3.804
 2068WAT     OW 6202   5.086   5.373   0.370
 2068WAT    HW1 6203   5.092   5.472   0.359
 2068WAT    HW2 6204   5.176   5.335   0.389
 2069WAT     OW 6205   6.598   6.590   1.394
 2069WAT    HW1 6206   6.531   6.563   1.325
 2069WAT    HW2 6207   6.634   6.508   1.439
 2070WAT     OW 6208   6.663   4.622   5.472
 2070WAT    HW1 6209   6.600   4.555   5.512
 2070WAT    HW2 6210   6.686   4.594   5.379
 2071WAT     OW 6211   3.480   2.039   4.878
 2071WAT    HW1 6212   3.381   2.027   4.873
 2071WAT    HW2 6213   3.500   2.134   4.903
 2072WAT     OW 6214   0.797   6.527   3.667
 2072WAT    HW1 6215   0.857   6.546   3.745
 2072WAT    HW2 6216   0.852   6.502   3.588
 2073WAT     OW 6217   2.487   5.347   3.675
 2073WAT    HW1 6218   2.404   5.402   3.664
 2073WAT    HW2 6219   2.564   5.407   3.697
 2074WAT     OW 6220   0.358   3.828   3.695
 2074WAT    HW1 6221   0.292   3.800   3.765
 2074WAT    HW2 6222   0.440   3.772   3.703
 2075WAT     OW 6223   1.057   2.792   2.759
 2075WAT    HW1 6224   1.139   2.739   2.782
 2075WAT    HW2 6225   1.071   2.888   2.784
 2076WAT     OW 6226   5.129   2.172   2.725
 2076WAT    HW1 6227   5.104   2.265   2.750
 2076WAT    HW2 6228   5.200   2.174   2.654
 2077WAT     OW 6229   6.454   3.792   6.072
 2077WAT    HW1 6230   6.499   3.857   6.133
 2077WAT    HW2 6231   6.475   3.699   6.102
 2078WAT     OW 6232   5.502   4.215   0.083
 2078WAT    HW1 6233   5.507   4.185   0.178
 2078WAT    HW2 6234   5.435   4.289   0.075
 2079WAT     OW 6235   2.204   3.680   6.205
 2079WAT    HW1 6236   2.290   3.705   6.250
 2079WAT    HW2 6237   2.164   3.600   6.251
 2080WAT     OW 6238   4.205   2.549   2.333
 2080WAT    HW1 6239   4.204   2.634   2.386
 2080WAT    HW2 6240   4.298   2.514   2.328
 2081WAT     OW 6241   5.478   1.739   2.590
 2081WAT    HW1 6242   5.425   1.655   2.601
 2081WAT    HW2 6243   5.531   1.757   2.673
 2082WAT     OW 6244   6.451   2.963   2.568
 2082WAT    HW1 6245   6.531   2.921   2.526
 2082WAT    HW2 6246   6.405   2.895   2.626
 2083WAT     OW 6247   0.062   4.421   2.987
 2083WAT    HW1 6248   0.015   4.509   2.976
 2083WAT    HW2 6249   0.123   4.407   2.909
 2084WAT     OW 6250   6.642   1.723   5.317
 2084WAT    HW1 6251   6.703   1.797   5.347
 2084WAT    HW2 6252   6.683   1.676   5.239
 2085WAT     OW 6253   5.640   1.648   1.257
 2085WAT    HW1 6254   5.608   1.732   1.300
 2085WAT    HW2 6255   5.740   1.648   1.256
 2086WAT     OW 6256   0.074   5.794   0.762
 2086WAT    HW1 6257  -0.001   5.758   0.817
 2086WAT    HW2 6258   0.146   5.725   0.755
 2087WAT     OW 6259   6.363   2.668   4.719
 2087WAT    HW1 6260   6.395   2.692   4.811
 2087WAT    HW2 6261   6.271   2.706   4.705
 2088WAT     OW 6262   1.882   1.501   5.643
 2088WAT    HW1 6263   1.937   1.455   5.713
 2088WAT    HW2 6264   1.886   1.451   5.557
 2089WAT     OW 6265   5.583   2.120   5.728
 2089WAT    HW1 6266   5.677   2.094   5.706
 2089WAT    HW2 6267   5.562   2.089   5.821
 2090WAT     OW 6268   4.758   3.604   1.998
 2090WAT    HW1 6269   4.691   3.610   2.071
 2090WAT    HW2 6270   4.831   3.542   2.024
 2091WAT     OW 6271   4.395   3.799   5.704
 2091WAT    HW1 6272   4.377   3.879   5.647
 2091WAT    HW2 6273   4.430   3.828   5.793
 2092WAT     OW 6274   3.904   5.601   4.874
 2092WAT    HW1 6275   3.807   5.604   4.849
 2092WAT    HW2 6276   3.929   5.686   4.921
 2093WAT     OW 6277   1.929   5.977   0.574
 2093WAT    HW1 6278   1.843   5.933   0.548
 2093WAT    HW2 6279   1.968   6.024   0.495
 2094WAT     OW 6280   3.777   1.070   2.295
 2094WAT    HW1 6281   3.861   1.025   2.326
 2094WAT    HW2 6282   3.698   1.024   2.334
 2095WAT     OW 6283   4.882   0.737   0.010
 2095WAT    HW1 6284   4.837   0.807   0.065
 2095WAT    HW2 6285   4.915   0.777  -0.075
 2096WAT     OW 6286   5.114   3.244   6.169
 2096WAT    HW1 6287   5.131   3.157   6.121
 2096WAT    HW2 6288   5.130   3.232   6.267
 2097WAT     OW 6289   0.206   2.447   6.300
 2097WAT    HW1 6290   0.250   2.361   6.276
 2097WAT    HW2 6291   0.121   2.457   6.246
 2098WAT     OW 6292   2.707   0.566   0.740
 2098WAT    HW1 6293   2.694   0.489   0.802
 2098WAT    HW2 6294   2.622   0.585   0.691
 2099WAT     OW 6295   4.735   3.959   3.380
 2099WAT    HW1 6296   4.785   3.906   3.312
 2099WAT    HW2 6297   4.679   4.028   3.334
 2100WAT     OW 6298   5.434   1.075   4.860
 2100WAT    HW1 6299   5.458   1.037   4.949
 2100WAT    HW2 6300   5.454   1.173   4.859
 2101WAT     OW 6301   5.519   5.892   3.446
 2101WAT    HW1 6302   5.437   5.928   3.490
 2101WAT    HW2 6303   5.536   5.799   3.478
 2102WAT     OW 6304   1.277   5.883   1.499
 2102WAT    HW1 6305   1.353   5.884   1.564
 2102WAT    HW2 6306   1.191   5.866   1.546
 2103WAT     OW 6307   4.581   6.535   6.608
 2103WAT    HW1 6308   4.664   6.560   6.659
 2103WAT    HW2 6309   4.516   6.492   6.670
 2104WAT     OW 6310   5.011   2.438   3.184
 2104WAT    HW1 6311   4.947   2.385   3.128
 2104WAT    HW2 6312   5.071   2.377   3.234
 2105WAT     OW 6313   1.538   3.043   5.162
 2105WAT    HW1 6314   1.461   3.010   5.107
 2105WAT    HW2 6315   1.521   3.138   5.189
 2106WAT     OW 6316   0.524   3.597   4.583
 2106WAT    HW1 6317   0.501   3.628   4.491
 2106WAT    HW2 6318   0.442   3.561   4.627
 2107WAT     OW 6319   1.172   0.835   2.669
 2107WAT    HW1 6320   1.149   0.924   2.708
 2107WAT    HW2 6321   1.095   0.802   2.614
 2108WAT     OW 6322   3.269   5.415   2.963
 2108WAT    HW1 6323   3.290   5.373   3.052
 2108WAT    HW2 6324   3.226   5.347   2.904
 2109WAT     OW 6325   0.145   4.726   2.742
 2109WAT    HW1 6326   0.240   4.701   2.760
 2109WAT    HW2 6327   0.128   4.722   2.644
 2110WAT     OW 6328   1.553   2.537   6.468
 2110WAT    HW1 6329   1.596   2.582   6.546
 2110WAT    HW2 6330   1.555   2.598   6.389
 2111WAT     OW 6331   0.625   2.155   3.198
 2111WAT    HW1 6332   0.687   2.209   3.254
 2111WAT    HW2 6333   0.551   2.214   3.165
 2112WAT     OW 6334   1.360   1.821   2.951
 2112WAT    HW1 6335   1.288   1.890   2.953
 2112WAT    HW2 6336   1.374   1.788   2.857
 2113WAT     OW 6337   2.792   0.971   5.474
 2113WAT    HW1 6338   2.779   0.876   5.447
 2113WAT    HW2 6339   2.708   1.022   5.456
 2114WAT     OW 6340   6.031   1.618   4.513
 2114WAT    HW1 6341   5.976   1.536   4.503
 2114WAT    HW2 6342   6.042   1.662   4.424
 2115WAT     OW 6343   3.657   6.492   5.356
 2115WAT    HW1 6344   3.723   6.528   5.422
 2115WAT    HW2 6345   3.579   6.453   5.405
 2116WAT     OW 6346   2.849   3.647   3.548
 2116WAT    HW1 6347   2.840   3.703   3.465
 2116WAT    HW2 6348   2.851   3.706   3.628
 2117WAT     OW 6349   2.901   3.426   4.929
 2117WAT    HW1 6350   2.879   3.485   4.851
 2117WAT    HW2 6351   2.996   3.395   4.920
 2118WAT     OW 6352   4.884   2.053   5.963
 2118WAT    HW1 6353   4.892   2.035   5.865
 2118WAT    HW2 6354   4.936   2.135   5.986
 2119WAT     OW 6355   0.039   3.263   3.759
 2119WAT    HW1 6356  -0.042   3.295   3.808
 2119WAT    HW2 6357   0.121   3.283   3.813
 2120WAT     OW 6358   4.303   3.198   3.951
 2120WAT    HW1 6359   4.338   3.121   4.005
 2120WAT    HW2 6360   4.380   3.251   3.914
 2121WAT     OW 6361   0.094   2.438   2.792
 2121WAT    HW1 6362  -0.002   2.437   2.764
 2121WAT    HW2 6363   0.142   2.512   2.747
 2122WAT     OW 6364   1.838   4.569   0.385
 2122WAT    HW1 6365   1.799   4.588   0.295
 2122WAT    HW2 6366   1.919   4.511   0.375
 2123WAT     OW 6367   4.146   1.278   2.272
 2123WAT    HW1 6368   4.185   1.231   2.351
 2123WAT    HW2 6369   4.138   1.214   2.196
 2124WAT     OW 6370   4.375   5.200   4.840
 2124WAT    HW1 6371   4.435   5.243   4.772
 2124WAT    HW2 6372   4.428   5.179   4.922
 2125WAT     OW 6373   6.106   0.732   1.703
 2125WAT    HW1 6374   6.056   0.802   1.654
 2125WAT    HW2 6375   6.085   0.642   1.664
 2126WAT     OW 6376   5.436   2.019   4.605
 2126WAT    HW1 6377   5.336   2.024   4.604
 2126WAT    HW2 6378   5.466   1.962   4.682
 2127WAT     OW 6379   0.223   1.937   1.509
 2127WAT    HW1 6380   0.224   1.845   1.471
 2127WAT    HW2 6381   0.159   1.941   1.585
 2128WAT     OW 6382   4.688   1.157   4.842
 2128WAT    HW1 6383   4.747   1.199   4.773
 2128WAT    HW2 6384   4.599   1.136   4.802
 2129WAT     OW 6385   5.936   6.260   0.350
 2129WAT    HW1 6386   5.913   6.201   0.427
 2129WAT    HW2 6387   5.855   6.277   0.295
 2130WAT     OW 6388   3.428   5.649   4.187
 2130WAT    HW1 6389   3.523   5.644   4.217
 2130WAT    HW2 6390   3.419   5.719   4.116
 2131WAT     OW 6391   1.030   5.208   6.505
 2131WAT    HW1 6392   0.961   5.258   6.453
 2131WAT    HW2 6393   1.039   5.116   6.468
 2132WAT     OW 6394   2.255   2.036   1.838
 2132WAT    HW1 6395   2.165   2.008   1.804
 2132WAT    HW2 6396   2.293   2.105   1.776
 2133WAT     OW 6397   2.977   3.812   0.282
 2133WAT    HW1 6398   2.970   3.894   0.225
 2133WAT    HW2 6399   3.053   3.823   0.346
 2134WAT     OW 6400   2.601   0.744   1.115
 2134WAT    HW1 6401   2.508   0.713   1.095
 2134WAT    HW2 6402   2.653   0.752   1.029
 2135WAT     OW 6403   3.334   5.907   4.564
 2135WAT    HW1 6404   3.338   6.005   4.545
 2135WAT    HW2 6405   3.239   5.875   4.555
 2136WAT     OW 6406   1.513   2.234   0.990
 2136WAT    HW1 6407   1.612   2.236   0.977
 2136WAT    HW2 6408   1.492   2.198   1.081
 2137WAT     OW 6409   0.148   5.967   0.133
 2137WAT    HW1 6410   0.191   6.021   0.060
 2137WAT    HW2 6411   0.149   5.870   0.108
 2138WAT     OW 6412   5.310   1.282   0.910
 2138WAT    HW1 6413   5.359   1.216   0.853
 2138WAT    HW2 6414   5.220   1.298   0.872
 2139WAT     OW 6415   1.197   4.492   0.499
 2139WAT    HW1 6416   1.205   4.506   0.400
 2139WAT    HW2 6417   1.288   4.495   0.541
 2140WAT     OW 6418   0.061   1.129   3.836
 2140WAT    HW1 6419   0.065   1.029   3.843
 2140WAT    HW2 6420   0.041   1.168   3.926
 2141WAT     OW 6421   0.319   6.475   3.713
 2141WAT    HW1 6422   0.275   6.564   3.724
 2141WAT    HW2 6423   0.411   6.479   3.753
 2142WAT     OW 6424   1.994   4.920   5.974
 2142WAT    HW1 6425   2.025   4.859   6.046
 2142WAT    HW2 6426   2.044   4.901   5.890
 2143WAT     OW 6427   5.827   2.086   2.704
 2143WAT    HW1 6428   5.735   2.068   2.740
 2143WAT    HW2 6429   5.895   2.046   2.764
 2144WAT     OW 6430   3.548   3.561   4.844
 2144WAT    HW1 6431   3.544   3.498   4.766
 2144WAT    HW2 6432   3.474   3.539   4.908
 2145WAT     OW 6433   0.041   2.631   5.394
 2145WAT    HW1 6434   0.066   2.582   5.311
 2145WAT    HW2 6435  -0.014   2.711   5.370
 2146WAT     OW 6436   2.481   3.293   6.172
 2146WAT    HW1 6437   2.573   3.331   6.179
 2146WAT    HW2 6438   2.430   3.313   6.256
 2147WAT     OW 6439   6.500   5.536   3.177
 2147WAT    HW1 6440   6.462   5.591   3.102
 2147WAT    HW2 6441   6.515   5.594   3.257
 2148WAT     OW 6442   3.883   4.685   4.699
 2148WAT    HW1 6443   3.897   4.622   4.623
 2148WAT    HW2 6444   3.793   4.728   4.691
 2149WAT     OW 6445   0.246   1.560   4.415
 2149WAT    HW1 6446   0.338   1.589   4.389
 2149WAT    HW2 6447   0.201   1.634   4.466
 2150WAT     OW 6448   3.628   3.894   4.089
 2150WAT    HW1 6449   3.717   3.889   4.044
 2150WAT    HW2 6450   3.640   3.928   4.183
 2151WAT     OW 6451   2.082   1.367   6.249
 2151WAT    HW1 6452   2.085   1.432   6.172
 2151WAT    HW2 6453   2.004   1.388   6.307
 2152WAT     OW 6454   3.295   4.876   1.141
 2152WAT    HW1 6455   3.266   4.972   1.144
 2152WAT    HW2 6456   3.291   4.844   1.047
 2153WAT     OW 6457   4.181   1.796   4.708
 2153WAT    HW1 6458   4.259   1.736   4.689
 2153WAT    HW2 6459   4.157   1.791   4.805
 2154WAT     OW 6460   2.281   2.694   0.011
 2154WAT    HW1 6461   2.192   2.661  -0.022
 2154WAT    HW2 6462   2.312   2.637   0.087
 2155WAT     OW 6463   3.309   3.604   2.515
 2155WAT    HW1 6464   3.287   3.522   2.568
 2155WAT    HW2 6465   3.264   3.683   2.556
 2156WAT     OW 6466   2.544   4.743   2.318
 2156WAT    HW1 6467   2.534   4.732   2.219
 2156WAT    HW2 6468   2.478   4.683   2.364
 2157WAT     OW 6469   3.206   0.635   6.160
 2157WAT    HW1 6470   3.305   0.646   6.165
 2157WAT    HW2 6471   3.163   0.676   6.240
 2158WAT     OW 6472   2.666   2.789   2.765
 2158WAT    HW1 6473   2.579   2.758   2.803
 2158WAT    HW2 6474   2.649   2.842   2.682
 2159WAT     OW 6475   5.408   5.927   5.848
 2159WAT    HW1 6476   5.397   6.001   5.914
 2159WAT    HW2 6477   5.322   5.911   5.801
 2160WAT     OW 6478   1.215   2.810   5.412
 2160WAT    HW1 6479   1.116   2.803   5.428
 2160WAT    HW2 6480   1.235   2.894   5.363
 2161WAT     OW 6481   2.921   0.678   1.629
 2161WAT    HW1 6482   2.888   0.754   1.572
 2161WAT    HW2 6483   2.928   0.595   1.574
 2162WAT     OW 6484   2.682   3.654   1.644
 2162WAT    HW1 6485   2.715   3.715   1.572
 2162WAT    HW2 6486   2.702   3.559   1.620
 2163WAT     OW 6487   6.068   6.549   0.640
 2163WAT    HW1 6488   6.015   6.623   0.681
 2163WAT    HW2 6489   6.075   6.472   0.705
 2164WAT     OW 6490   5.149   3.251   5.343
 2164WAT    HW1 6491   5.095   3.176   5.382
 2164WAT    HW2 6492   5.107   3.280   5.257
 2165WAT     OW 6493   4.327   5.788   3.346
 2165WAT    HW1 6494   4.250   5.850   3.329
 2165WAT    HW2 6495   4.403   5.840   3.384
 2166WAT     OW 6496   2.145   0.079   0.960
 2166WAT    HW1 6497   2.146   0.130   1.046
 2166WAT    HW2 6498   2.239   0.054   0.935
 2167WAT     OW 6499   4.457   6.241   5.923
 2167WAT    HW1 6500   4.363   6.217   5.898
 2167WAT    HW2 6501   4.472   6.219   6.020
 2168WAT     OW 6502   5.846   3.403   5.326
 2168WAT    HW1 6503   5.776   3.338   5.355
 2168WAT    HW2 6504   5.929   3.390   5.381
 2169WAT     OW 6505   4.990   0.475   2.318
 2169WAT    HW1 6506   4.929   0.509   2.247
 2169WAT    HW2 6507   4.976   0.377   2.330
 2170WAT     OW 6508   6.524   1.377   2.377
 2170WAT    HW1 6509   6.510   1.359   2.474
 2170WAT    HW2 6510   6.438   1.407   2.336
 2171WAT     OW 6511   0.016   3.766   2.679
 2171WAT    HW1 6512   0.061   3.855   2.687
 2171WAT    HW2 6513  -0.024   3.757   2.588
 2172WAT     OW 6514   5.459   2.924   3.399
 2172WAT    HW1 6515   5.483   2.997   3.464
 2172WAT    HW2 6516   5.537   2.906   3.339
 2173WAT     OW 6517   4.255   1.462   1.836
 2173WAT    HW1 6518   4.167   1.457   1.884
 2173WAT    HW2 6519   4.324   1.411   1.887
 2174WAT     OW 6520   1.216   3.387   6.428
 2174WAT    HW1 6521   1.197   3.484   6.420
 2174WAT    HW2 6522   1.281   3.360   6.356
 2175WAT     OW 6523   4.622   1.932   0.502
 2175WAT    HW1 6524   4.600   1.835   0.518
 2175WAT    HW2 6525   4.711   1.939   0.456
 2176WAT     OW 6526   2.342   3.705   6.587
 2176WAT    HW1 6527   2.427   3.688   6.637
 2176WAT    HW2 6528   2.362   3.710   6.489
 2177WAT     OW 6529   0.614   5.294   6.531
 2177WAT    HW1 6530   0.602   5.308   6.629
 2177WAT    HW2 6531   0.586   5.201   6.506
 2178WAT     OW 6532   2.076   3.462   0.892
 2178WAT    HW1 6533   2.013   3.539   0.901
 2178WAT    HW2 6534   2.043   3.401   0.821
 2179WAT     OW 6535   0.892   2.552   6.534
 2179WAT    HW1 6536   0.931   2.576   6.623
 2179WAT    HW2 6537   0.950   2.589   6.461
 2180WAT     OW 6538   0.913   3.068   3.690
 2180WAT    HW1 6539   0.867   3.128   3.625
 2180WAT    HW2 6540   0.855   3.057   3.771
 2181WAT     OW 6541   6.386   5.856   5.201
 2181WAT    HW1 6542   6.307   5.812   5.158
 2181WAT    HW2 6543   6.429   5.792   5.265
 2182WAT     OW 6544   2.536   5.287   1.669
 2182WAT    HW1 6545   2.533   5.237   1.582
 2182WAT    HW2 6546   2.522   5.224   1.745
 2183WAT     OW 6547   6.349   3.718   3.164
 2183WAT    HW1 6548   6.421   3.659   3.127
 2183WAT    HW2 6549   6.265   3.704   3.112
 2184WAT     OW 6550   4.971   2.629   1.285
 2184WAT    HW1 6551   4.903   2.626   1.212
 2184WAT    HW2 6552   4.926   2.615   1.373
 2185WAT     OW 6553   0.002   2.336   2.169
 2185WAT    HW1 6554  -0.019   2.426   2.132
 2185WAT    HW2 6555  -0.028   2.266   2.104
 2186WAT     OW 6556   1.929   4.345   4.328
 2186WAT    HW1 6557   1.947   4.350   4.426
 2186WAT    HW2 6558   1.862   4.416   4.303
 2187WAT     OW 6559   2.995   2.970   3.002
 2187WAT    HW1 6560   3.019   3.020   2.918
 2187WAT    HW2 6561   3.079   2.945   3.050
 2188WAT     OW 6562   5.829   6.434   2.054
 2188WAT    HW1 6563   5.793   6.512   2.104
 2188WAT    HW2 6564   5.806   6.350   2.103
 2189WAT     OW 6565   4.294   3.758   1.459
 2189WAT    HW1 6566   4.226   3.686   1.445
 2189WAT    HW2 6567   4.347   3.770   1.375
 2190WAT     OW 6568   1.131   0.651   4.205
 2190WAT    HW1 6569   1.108   0.676   4.111
 2190WAT    HW2 6570   1.230   0.660   4.219
 2191WAT     OW 6571   5.247   3.172   2.617
 2191WAT    HW1 6572   5.298   3.089   2.597
 2191WAT    HW2 6573   5.276   3.209   2.705
 2192WAT     OW 6574   0.198   2.820   1.392
 2192WAT    HW1 6575   0.108   2.862   1.381
 2192WAT    HW2 6576   0.200   2.767   1.477
 2193WAT     OW 6577   1.973   0.995   0.632
 2193WAT    HW1 6578   2.007   1.076   0.679
 2193WAT    HW2 6579   2.048   0.932   0.615
 2194WAT     OW 6580   3.306   0.873   5.857
 2194WAT    HW1 6581   3.340   0.907   5.944
 2194WAT    HW2 6582   3.240   0.800   5.872
 2195WAT     OW 6583   6.546   5.622   0.571
 2195WAT    HW1 6584   6.498   5.640   0.485
 2195WAT    HW2 6585   6.635   5.580   0.551
 2196WAT     OW 6586   5.312   4.133   4.684
 2196WAT    HW1 6587   5.265   4.208   4.729
 2196WAT    HW2 6588   5.403   4.163   4.655
 2197WAT     OW 6589   6.344   1.772   2.610
 2197WAT    HW1 6590   6.435   1.803   2.584
 2197WAT    HW2 6591   6.344   1.747   2.707
 2198WAT     OW 6592   0.512   2.093   1.085
 2198WAT    HW1 6593   0.540   2.005   1.046
 2198WAT    HW2 6594   0.548   2.102   1.178
 2199WAT     OW 6595   4.707   5.453   1.011
 2199WAT    HW1 6596   4.717   5.453   1.110
 2199WAT    HW2 6597   4.691   5.359   0.979
 2200WAT     OW 6598   0.804   4.532   6.662
 2200WAT    HW1 6599   0.798   4.522   6.563
 2200WAT    HW2 6600   0.805   4.630   6.685
 2201WAT     OW 6601   4.436   3.396   5.299
 2201WAT    HW1 6602   4.495   3.321   5.271
 2201WAT    HW2 6603   4.342   3.378   5.270
 2202WAT     OW 6604   3.161   5.664   2.980
 2202WAT    HW1 6605   3.067   5.661   2.945
 2202WAT    HW2 6606   3.202   5.573   2.976
 2203WAT     OW 6607   3.865   1.207   2.798
 2203WAT    HW1 6608   3.890   1.161   2.883
 2203WAT    HW2 6609   3.821   1.142   2.737
 2204WAT     OW 6610   4.651   3.150   6.184
 2204WAT    HW1 6611   4.578   3.200   6.135
 2204WAT    HW2 6612   4.719   3.119   6.118
 2205WAT     OW 6613   3.719   3.160   2.553
 2205WAT    HW1 6614   3.808   3.151   2.508
 2205WAT    HW2 6615   3.724   3.233   2.621
 2206WAT     OW 6616   5.610   1.025   2.687
 2206WAT    HW1 6617   5.662   1.083   2.625
 2206WAT    HW2 6618   5.572   0.948   2.636
 2207WAT     OW 6619   2.438   6.097   4.384
 2207WAT    HW1 6620   2.531   6.093   4.347
 2207WAT    HW2 6621   2.385   6.021   4.348
 2208WAT     OW 6622   1.470   2.384   5.779
 2208WAT    HW1 6623   1.477   2.291   5.743
 2208WAT    HW2 6624   1.376   2.417   5.770
 2209WAT     OW 6625   6.137   3.043   2.989
 2209WAT    HW1 6626   6.195   3.074   3.063
 2209WAT    HW2 6627   6.052   3.097   2.988
 2210WAT     OW 6628   4.601   4.945   3.880
 2210WAT    HW1 6629   4.519   4.923   3.933
 2210WAT    HW2 6630   4.676   4.968   3.943
 2211WAT     OW 6631   5.819   5.499   5.742
 2211WAT    HW1 6632   5.743   5.526   5.802
 2211WAT    HW2 6633   5.789   5.426   5.681
 2212WAT     OW 6634   3.162   3.002   3.413
 2212WAT    HW1 6635   3.225   3.018   3.489
 2212WAT    HW2 6636   3.116   3.088   3.390
 2213WAT     OW 6637   5.899   3.739   1.053
 2213WAT    HW1 6638   5.915   3.641   1.040
 2213WAT    HW2 6639   5.857   3.754   1.143
 2214WAT     OW 6640   2.591   3.446   6.546
 2214WAT    HW1 6641   2.681   3.417   6.514
 2214WAT    HW2 6642   2.598   3.538   6.585
 2215WAT     OW 6643   2.053   3.097   6.624
 2215WAT    HW1 6644   2.055   3.152   6.708
 2215WAT    HW2 6645   2.143   3.099   6.580
 2216WAT     OW 6646   2.583   2.636   4.538
 2216WAT    HW1 6647   2.505   2.615   4.598
 2216WAT    HW2 6648   2.645   2.698   4.586
 2217WAT     OW 6649   1.215   3.896   2.504
 2217WAT    HW1 6650   1.228   3.863   2.598
 2217WAT    HW2 6651   1.121   3.878   2.475
 2218WAT     OW 6652   1.705   1.297   1.230
 2218WAT    HW1 6653   1.766   1.376   1.233
 2218WAT    HW2 6654   1.742   1.224   1.287
 2219WAT     OW 6655   6.591   1.481   2.836
 2219WAT    HW1 6656   6.682   1.490   2.795
 2219WAT    HW2 6657   6.573   1.559   2.896
 2220WAT     OW 6658   4.857   1.242   4.649
 2220WAT    HW1 6659   4.811   1.186   4.580
 2220WAT    HW2 6660   4.951   1.260   4.619
 2221WAT     OW 6661   3.195   6.515   4.410
 2221WAT    HW1 6662   3.107   6.556   4.435
 2221WAT    HW2 6663   3.209   6.524   4.311
 2222WAT     OW 6664   2.673   3.174   2.191
 2222WAT    HW1 6665   2.684   3.180   2.290
 2222WAT    HW2 6666   2.746   3.117   2.153
 2223WAT     OW 6667   1.135   6.451   4.202
 2223WAT    HW1 6668   1.045   6.469   4.160
 2223WAT    HW2 6669   1.131   6.367   4.255
 2224WAT     OW 6670   0.247   2.124   3.744
 2224WAT    HW1 6671   0.253   2.201   3.807
 2224WAT    HW2 6672   0.199   2.048   3.788
 2225WAT     OW 6673   1.343   1.991   5.107
 2225WAT    HW1 6674   1.269   2.049   5.139
 2225WAT    HW2 6675   1.350   1.910   5.165
 2226WAT     OW 6676   5.423   5.797   2.708
 2226WAT    HW1 6677   5.377   5.709   2.712
 2226WAT    HW2 6678   5.521   5.785   2.722
 2227WAT     OW 6679   6.240   3.162   0.614
 2227WAT    HW1 6680   6.204   3.230   0.550
 2227WAT    HW2 6681   6.173   3.146   0.686
 2228WAT     OW 6682   4.532   5.941   3.449
 2228WAT    HW1 6683   4.600   5.981   3.387
 2228WAT    HW2 6684   4.490   6.014   3.503
 2229WAT     OW 6685   6.476   0.295   3.069
 2229WAT    HW1 6686   6.483   0.330   2.975
 2229WAT    HW2 6687   6.568   0.275   3.103
 2230WAT     OW 6688   2.699   3.414   5.862
 2230WAT    HW1 6689   2.631   3.347   5.892
 2230WAT    HW2 6690   2.782   3.403   5.917
 2231WAT     OW 6691   3.574   0.188   4.095
 2231WAT    HW1 6692   3.484   0.231   4.096
 2231WAT    HW2 6693   3.642   0.253   4.130
 2232WAT     OW 6694   1.974   4.219   3.262
 2232WAT    HW1 6695   2.011   4.247   3.173
 2232WAT    HW2 6696   1.915   4.291   3.298
 2233WAT     OW 6697   3.446   1.206   4.324
 2233WAT    HW1 6698   3.533   1.160   4.303
 2233WAT    HW2 6699   3.371   1.140   4.318
 2234WAT     OW 6700   5.387   1.542   0.912
 2234WAT    HW1 6701   5.371   1.444   0.903
 2234WAT    HW2 6702   5.313   1.584   0.965
 2235WAT     OW 6703   1.996   2.352   1.957
 2235WAT    HW1 6704   1.926   2.421   1.975
 2235WAT    HW2 6705   2.043   2.329   2.041
 2236WAT     OW 6706   3.374   2.952   1.457
 2236WAT    HW1 6707   3.297   3.006   1.423
 2236WAT    HW2 6708   3.455   2.974   1.403
 2237WAT     OW 6709   3.498   3.492   4.375
 2237WAT    HW1 6710   3.526   3.408   4.328
 2237WAT    HW2 6711   3.412   3.524   4.337
 2238WAT     OW 6712   6.416   3.106   1.746
 2238WAT    HW1 6713   6.352   3.147   1.682
 2238WAT    HW2 6714   6.427   3.166   1.826
 2239WAT     OW 6715   6.415   4.977   5.067
 2239WAT    HW1 6716   6.505   4.993   5.027
 2239WAT    HW2 6717   6.423   4.969   5.166
 2240WAT     OW 6718   6.345   5.115   0.220
 2240WAT    HW1 6719   6.433   5.146   0.256
 2240WAT    HW2 6720   6.339   5.016   0.229
 2241WAT     OW 6721   1.720   1.383   4.931
 2241WAT    HW1 6722   1.622   1.363   4.931
 2241WAT    HW2 6723   1.767   1.320   4.870
 2242WAT     OW 6724   0.496   6.302   3.023
 2242WAT    HW1 6725   0.429   6.262   3.086
 2242WAT    HW2 6726   0.487   6.401   3.023
 2243WAT     OW 6727   5.890   6.276   3.025
 2243WAT    HW1 6728   5.821   6.238   3.086
 2243WAT    HW2 6729   5.973   6.299   3.077
 2244WAT     OW 6730   3.046   3.931   4.679
 2244WAT    HW1 6731   3.108   4.009   4.675
 2244WAT    HW2 6732   2.962   3.952   4.629
 2245WAT     OW 6733   4.728   3.168   3.882
 2245WAT    HW1 6734   4.776   3.191   3.797
 2245WAT    HW2 6735   4.693   3.075   3.876
 2246WAT     OW 6736   4.947   0.171   6.466
 2246WAT    HW1 6737   4.915   0.094   6.411
 2246WAT    HW2 6738   4.879   0.190   6.538
 2247WAT     OW 6739   5.122   2.603   3.821
 2247WAT    HW1 6740   5.118   2.570   3.915
 2247WAT    HW2 6741   5.056   2.552   3.765
 2248WAT     OW 6742   5.181   2.090   5.856
 2248WAT    HW1 6743   5.147   2.155   5.923
 2248WAT    HW2 6744   5.169   2.128   5.764
 2249WAT     OW 6745   0.085   6.149   6.401
 2249WAT    HW1 6746   0.043   6.082   6.339
 2249WAT    HW2 6747   0.139   6.214   6.348
 2250WAT     OW 6748   1.788   0.431   0.862
 2250WAT    HW1 6749   1.824   0.472   0.778
 2250WAT    HW2 6750   1.745   0.343   0.841
 2251WAT     OW 6751   5.080   2.601   2.977
 2251WAT    HW1 6752   5.167   2.650   2.982
 2251WAT    HW2 6753   5.067   2.549   3.062
 2252WAT     OW 6754   0.550   0.501   0.937
 2252WAT    HW1 6755   0.474   0.536   0.882
 2252WAT    HW2 6756   0.613   0.450   0.879
 2253WAT     OW 6757   3.945   4.117   2.434
 2253WAT    HW1 6758   3.872   4.095   2.499
 2253WAT    HW2 6759   4.018   4.049   2.442
 2254WAT     OW 6760   6.231   4.658   4.717
 2254WAT    HW1 6761   6.236   4.709   4.802
 2254WAT    HW2 6762   6.185   4.713   4.647
 2255WAT     OW 6763   0.155   5.218   6.230
 2255WAT    HW1 6764   0.058   5.224   6.251
 2255WAT    HW2 6765   0.204   5.178   6.308
 2256WAT     OW 6766   0.242   3.886   4.669
 2256WAT    HW1 6767   0.218   3.823   4.595
 2256WAT    HW2 6768   0.171   3.884   4.740
 2257WAT     OW 6769   4.640   3.699   1.462
 2257WAT    HW1 6770   4.724   3.648   1.443
 2257WAT    HW2 6771   4.659   3.769   1.531
 2258WAT     OW 6772   3.592   3.135   4.531
 2258WAT    HW1 6773   3.660   3.062   4.535
 2258WAT    HW2 6774   3.586   3.170   4.437
 2259WAT     OW 6775   2.048   3.261   0.156
 2259WAT    HW1 6776   1.976   3.328   0.172
 2259WAT    HW2 6777   2.137   3.307   0.153
 2260WAT     OW 6778   0.380   3.654   6.642
 2260WAT    HW1 6779   0.367   3.557   6.661
 2260WAT    HW2 6780   0.326   3.680   6.562
 2261WAT     OW 6781   5.280   3.253   3.622
 2261WAT    HW1 6782   5.280   3.317   3.699
 2261WAT    HW2 6783   5.373   3.221   3.606
 2262WAT     OW 6784   6.188   4.221   6.162
 2262WAT    HW1 6785   6.128   4.282   6.109
 2262WAT    HW2 6786   6.153   4.212   6.255
 2263WAT     OW 6787   3.175   5.650   0.338
 2263WAT    HW1 6788   3.213   5.741   0.353
 2263WAT    HW2 6789   3.181   5.596   0.422
 2264WAT     OW 6790   6.271   5.094   4.859
 2264WAT    HW1 6791   6.311   5.052   4.940
 2264WAT    HW2 6792   6.344   5.127   4.799
 2265WAT     OW 6793   1.641   4.305   6.021
 2265WAT    HW1 6794   1.734   4.304   5.983
 2265WAT    HW2 6795   1.610   4.211   6.035
 2266WAT     OW 6796   1.884   5.527   1.746
 2266WAT    HW1 6797   1.963   5.525   1.808
 2266WAT    HW2 6798   1.876   5.440   1.698
 2267WAT     OW 6799   6.582   2.994   6.622
 2267WAT    HW1 6800   6.495   2.971   6.578
 2267WAT    HW2 6801   6.575   3.085   6.662
 2268WAT     OW 6802   6.103   1.643   1.058
 2268WAT    HW1 6803   6.021   1.638   1.000
 2268WAT    HW2 6804   6.167   1.710   1.019
 2269WAT     OW 6805   1.023   2.628   0.089
 2269WAT    HW1 6806   1.041   2.534   0.120
 2269WAT    HW2 6807   1.077   2.692   0.143
 2270WAT     OW 6808   6.199   0.641   3.054
 2270WAT    HW1 6809   6.205   0.582   2.974
 2270WAT    HW2 6810   6.228   0.734   3.029
 2271WAT     OW 6811   5.599   2.960   4.345
 2271WAT    HW1 6812   5.589   2.884   4.410
 2271WAT    HW2 6813   5.535   3.033   4.369
 2272WAT     OW 6814   4.949   4.333   0.588
 2272WAT    HW1 6815   5.033   4.300   0.632
 2272WAT    HW2 6816   4.885   4.365   0.658
 2273WAT     OW 6817   6.487   6.269   3.959
 2273WAT    HW1 6818   6.421   6.321   4.013
 2273WAT    HW2 6819   6.506   6.182   4.004
 2274WAT     OW 6820   5.022   1.290   2.293
 2274WAT    HW1 6821   5.065   1.251   2.374
 2274WAT    HW2 6822   4.939   1.338   2.319
 2275WAT     OW 6823   4.516   3.732   0.586
 2275WAT    HW1 6824   4.582   3.751   0.513
 2275WAT    HW2 6825   4.555   3.664   0.649
 2276WAT     OW 6826   4.102   1.202   1.083
 2276WAT    HW1 6827   4.048   1.118   1.084
 2276WAT    HW2 6828   4.077   1.260   1.160
 2277WAT     OW 6829   4.727   3.895   2.957
 2277WAT    HW1 6830   4.779   3.899   2.871
 2277WAT    HW2 6831   4.647   3.836   2.945
 2278WAT     OW 6832   0.320   3.438   3.637
 2278WAT    HW1 6833   0.264   3.414   3.557
 2278WAT    HW2 6834   0.414   3.456   3.607
 2279WAT     OW 6835   0.224   6.365   6.299
 2279WAT    HW1 6836   0.285   6.376   6.220
 2279WAT    HW2 6837   0.244   6.436   6.367
 2280WAT     OW 6838   1.832   2.847   5.488
 2280WAT    HW1 6839   1.806   2.818   5.580
 2280WAT    HW2 6840   1.892   2.778   5.447
 2281WAT     OW 6841   4.292   1.519   6.479
 2281WAT    HW1 6842   4.305   1.522   6.380
 2281WAT    HW2 6843   4.362   1.462   6.520
 2282WAT     OW 6844   1.223   5.002   5.887
 2282WAT    HW1 6845   1.132   5.029   5.919
 2282WAT    HW2 6846   1.281   4.980   5.965
 2283WAT     OW 6847   4.437   5.969   4.693
 2283WAT    HW1 6848   4.379   5.905   4.642
 2283WAT    HW2 6849   4.380   6.037   4.739
 2284WAT     OW 6850   2.706   4.016   4.786
 2284WAT    HW1 6851   2.641   3.940   4.781
 2284WAT    HW2 6852   2.756   4.022   4.699
 2285WAT     OW 6853   4.611   4.179   2.198
 2285WAT    HW1 6854   4.595   4.172   2.297
 2285WAT    HW2 6855   4.534   4.137   2.149
 2286WAT     OW 6856   5.943   2.129   3.379
 2286WAT    HW1 6857   5.880   2.159   3.451
 2286WAT    HW2 6858   5.991   2.047   3.409
 2287WAT     OW 6859   2.384   4.329   3.767
 2287WAT    HW1 6860   2.296   4.290   3.740
 2287WAT    HW2 6861   2.387   4.425   3.740
 2288WAT     OW 6862   4.470   4.925   0.791
 2288WAT    HW1 6863   4.382   4.972   0.781
 2288WAT    HW2 6864   4.506   4.941   0.883
 2289WAT     OW 6865   3.662   4.489   6.236
 2289WAT    HW1 6866   3.644   4.398   6.272
 2289WAT    HW2 6867   3.668   4.485   6.136
 2290WAT     OW 6868   5.193   4.570   5.182
 2290WAT    HW1 6869   5.234   4.661   5.193
 2290WAT    HW2 6870   5.168   4.556   5.086
 2291WAT     OW 6871   1.562   0.007   5.431
 2291WAT    HW1 6872   1.478   0.057   5.452
 2291WAT    HW2 6873   1.627   0.016   5.506
 2292WAT     OW 6874   0.044   1.566   5.110
 2292WAT    HW1 6875  -0.000   1.553   5.022
 2292WAT    HW2 6876   0.051   1.477   5.157
 2293WAT     OW 6877   4.056   5.570   1.064
 2293WAT    HW1 6878   4.009   5.495   1.111
 2293WAT    HW2 6879   3.988   5.629   1.019
 2294WAT     OW 6880   0.999   5.766   2.203
 2294WAT    HW1 6881   1.060   5.688   2.217
 2294WAT    HW2 6882   0.905   5.739   2.226
 2295WAT     OW 6883   3.719   0.328   0.322
 2295WAT    HW1 6884   3.629   0.284   0.312
 2295WAT    HW2 6885   3.726   0.368   0.413
 2296WAT     OW 6886   6.595   6.084   0.211
 2296WAT    HW1 6887   6.604   6.101   0.309
 2296WAT    HW2 6888   6.679   6.041   0.177
 2297WAT     OW 6889   2.547   4.526   1.322
 2297WAT    HW1 6890   2.607   4.446   1.330
 2297WAT    HW2 6891   2.568   4.591   1.396
 2298WAT     OW 6892   1.981   5.310   5.039
 2298WAT    HW1 6893   2.060   5.276   4.989
 2298WAT    HW2 6894   1.926   5.234   5.073
 2299WAT     OW 6895   1.953   5.938   0.007
 2299WAT    HW1 6896   2.004   5.877  -0.054
 2299WAT    HW2 6897   1.870   5.893   0.037
 2300WAT     OW 6898   4.846   2.403   5.332
 2300WAT    HW1 6899   4.790   2.429   5.253
 2300WAT    HW2 6900   4.794   2.415   5.416
 2301WAT     OW 6901   4.175   4.538   4.498
 2301WAT    HW1 6902   4.256   4.596   4.509
 2301WAT    HW2 6903   4.162   4.483   4.580
 2302WAT     OW 6904   6.255   1.582   5.549
 2302WAT    HW1 6905   6.318   1.659   5.561
 2302WAT    HW2 6906   6.180   1.590   5.614
 2303WAT     OW 6907   4.992   3.766   2.310
 2303WAT    HW1 6908   5.014   3.671   2.334
 2303WAT    HW2 6909   4.898   3.787   2.338
 2304WAT     OW 6910   5.690   5.692   1.700
 2304WAT    HW1 6911   5.662   5.643   1.618
 2304WAT    HW2 6912   5.742   5.630   1.760
 2305WAT     OW 6913   5.711   1.257   6.398
 2305WAT    HW1 6914   5.797   1.219   6.434
 2305WAT    HW2 6915   5.634   1.205   6.433
 2306WAT     OW 6916   4.438   4.811   2.971
 2306WAT    HW1 6917   4.386   4.816   3.056
 2306WAT    HW2 6918   4.536   4.816   2.992
 2307WAT     OW 6919   2.406   2.551   4.743
 2307WAT    HW1 6920   2.470   2.603   4.798
 2307WAT    HW2 6921   2.329   2.521   4.800
 2308WAT     OW 6922   1.858   5.306   3.263
 2308WAT    HW1 6923   1.764   5.340   3.269
 2308WAT    HW2 6924   1.894   5.323   3.172
 2309WAT     OW 6925   2.369   1.684   0.319
 2309WAT    HW1 6926   2.448   1.726   0.365
 2309WAT    HW2 6927   2.399   1.607   0.263
 2310WAT     OW 6928   4.371   4.956   3.434
 2310WAT    HW1 6929   4.406   4.974   3.526
 2310WAT    HW2 6930   4.282   5.001   3.423
 2311WAT     OW 6931   5.523   2.822   0.096
 2311WAT    HW1 6932   5.580   2.752   0.053
 2311WAT    HW2 6933   5.525   2.905   0.041
 2312WAT     OW 6934   5.593   0.210   6.511
 2312WAT    HW1 6935   5.629   0.127   6.469
 2312WAT    HW2 6936   5.665   0.280   6.515
 2313WAT     OW 6937   2.281   3.272   3.664
 2313WAT    HW1 6938   2.237   3.319   3.587
 2313WAT    HW2 6939   2.218   3.207   3.704
 2314WAT     OW 6940   5.853   3.421   0.325
 2314WAT    HW1 6941   5.778   3.359   0.348
 2314WAT    HW2 6942   5.892   3.458   0.408
 2315WAT     OW 6943   3.622   6.336   0.239
 2315WAT    HW1 6944   3.651   6.429   0.215
 2315WAT    HW2 6945   3.701   6.283   0.268
 2316WAT     OW 6946   1.295   5.748   3.136
 2316WAT    HW1 6947   1.201   5.742   3.101
 2316WAT    HW2 6948   1.359   5.720   3.064
 2317WAT     OW 6949   1.504   4.351   0.412
 2317WAT    HW1 6950   1.501   4.284   0.338
 2317WAT    HW2 6951   1.501   4.443   0.374
 2318WAT     OW 6952   2.208   5.406   2.410
 2318WAT    HW1 6953   2.204   5.460   2.494
 2318WAT    HW2 6954   2.157   5.321   2.423
 2319WAT     OW 6955   3.767   4.959   5.559
 2319WAT    HW1 6956   3.688   5.020   5.567
 2319WAT    HW2 6957   3.783   4.938   5.462
 2320WAT     OW 6958   3.647   0.149   5.524
 2320WAT    HW1 6959   3.662   0.220   5.592
 2320WAT    HW2 6960   3.554   0.112   5.534
 2321WAT     OW 6961   1.893   0.836   3.059
 2321WAT    HW1 6962   1.914   0.738   3.063
 2321WAT    HW2 6963   1.893   0.874   3.151
 2322WAT     OW 6964   4.464   1.970   6.417
 2322WAT    HW1 6965   4.496   2.047   6.472
 2322WAT    HW2 6966   4.514   1.887   6.444
 2323WAT     OW 6967   4.781   4.163   4.698
 2323WAT    HW1 6968   4.718   4.109   4.643
 2323WAT    HW2 6969   4.832   4.103   4.759
 2324WAT     OW 6970   4.482   1.045   6.398
 2324WAT    HW1 6971   4.501   0.955   6.359
 2324WAT    HW2 6972   4.401   1.040   6.456
 2325WAT     OW 6973   2.720   0.638   3.762
 2325WAT    HW1 6974   2.703   0.714   3.699
 2325WAT    HW2 6975   2.637   0.583   3.772
 2326WAT     OW 6976   1.803   1.761   3.916
 2326WAT    HW1 6977   1.802   1.663   3.893
 2326WAT    HW2 6978   1.811   1.771   4.015
 2327WAT     OW 6979   1.991   3.596   3.553
 2327WAT    HW1 6980   2.066   3.654   3.585
 2327WAT    HW2 6981   1.949   3.551   3.632
 2328WAT     OW 6982   0.815   3.242   6.598
 2328WAT    HW1 6983   0.718   3.216   6.594
 2328WAT    HW2 6984   0.869   3.163   6.627
 2329WAT     OW 6985   5.192   4.810   1.645
 2329WAT    HW1 6986   5.280   4.854   1.661
 2329WAT    HW2 6987   5.125   4.878   1.615
 2330WAT     OW 6988   0.293   0.337   3.071
 2330WAT    HW1 6989   0.348   0.384   3.003
 2330WAT    HW2 6990   0.353   0.283   3.131
 2331WAT     OW 6991   6.124   2.514   3.535
 2331WAT    HW1 6992   6.036   2.497   3.579
 2331WAT    HW2 6993   6.185   2.437   3.551
 2332WAT     OW 6994   5.569   0.847   1.014
 2332WAT    HW1 6995   5.625   0.765   1.006
 2332WAT    HW2 6996   5.608   0.909   1.082
 2333WAT     OW 6997   2.274   1.266   5.739
 2333WAT    HW1 6998   2.359   1.315   5.759
 2333WAT    HW2 6999   2.273   1.237   5.643
 2334WAT     OW 7000   0.147   6.163   2.723
 2334WAT    HW1 7001   0.119   6.242   2.667
 2334WAT    HW2 7002   0.243   6.173   2.749
 2335WAT     OW 7003   4.081   3.763   3.064
 2335WAT    HW1 7004   4.003   3.704   3.086
 2335WAT    HW2 7005   4.095   3.829   3.138
 2336WAT     OW 7006   5.385   0.853   4.526
 2336WAT    HW1 7007   5.467   0.880   4.578
 2336WAT    HW2 7008   5.357   0.761   4.555
 2337WAT     OW 7009   2.934   1.049   0.580
 2337WAT    HW1 7010   2.987   1.087   0.656
 2337WAT    HW2 7011   2.997   1.013   0.511
 2338WAT     OW 7012   5.313   6.249   5.102
 2338WAT    HW1 7013   5.297   6.346   5.123
 2338WAT    HW2 7014   5.266   6.193   5.170
 2339WAT     OW 7015   6.294   5.786   4.535
 2339WAT    HW1 7016   6.197   5.805   4.555
 2339WAT    HW2 7017   6.347   5.795   4.620
 2340WAT     OW 7018   5.897   2.285   2.082
 2340WAT    HW1 7019   5.924   2.195   2.117
 2340WAT    HW2 7020   5.825   2.274   2.014
 2341WAT     OW 7021   6.665   6.673   1.931
 2341WAT    HW1 7022   6.678   6.642   2.025
 2341WAT    HW2 7023   6.649   6.595   1.871
 2342WAT     OW 7024   1.450   3.999   1.620
 2342WAT    HW1 7025   1.453   3.902   1.645
 2342WAT    HW2 7026   1.369   4.016   1.564
 2343WAT     OW 7027   3.295   0.491   5.096
 2343WAT    HW1 7028   3.361   0.422   5.067
 2343WAT    HW2 7029   3.333   0.582   5.082
 2344WAT     OW 7030   3.629   0.876   4.438
 2344WAT    HW1 7031   3.638   0.778   4.419
 2344WAT    HW2 7032   3.548   0.893   4.493
 2345WAT     OW 7033   3.940   2.316   1.759
 2345WAT    HW1 7034   3.859   2.333   1.814
 2345WAT    HW2 7035   4.021   2.316   1.817
 2346WAT     OW 7036   4.729   0.328   1.246
 2346WAT    HW1 7037   4.759   0.347   1.340
 2346WAT    HW2 7038   4.776   0.391   1.183
 2347WAT     OW 7039   0.014   6.396   5.735
 2347WAT    HW1 7040   0.059   6.316   5.694
 2347WAT    HW2 7041  -0.058   6.366   5.797
 2348WAT     OW 7042   2.336   1.432   6.323
 2348WAT    HW1 7043   2.242   1.401   6.306
 2348WAT    HW2 7044   2.364   1.405   6.415
 2349WAT     OW 7045   6.189   2.193   4.031
 2349WAT    HW1 7046   6.258   2.267   4.031
 2349WAT    HW2 7047   6.148   2.187   3.941
 2350WAT     OW 7048   1.061   0.514   2.414
 2350WAT    HW1 7049   1.034   0.601   2.456
 2350WAT    HW2 7050   1.126   0.531   2.340
 2351WAT     OW 7051   0.010   0.186   5.820
 2351WAT    HW1 7052  -0.044   0.123   5.876
 2351WAT    HW2 7053  -0.052   0.247   5.769
 2352WAT     OW 7054   4.731   1.677   3.727
 2352WAT    HW1 7055   4.695   1.628   3.647
 2352WAT    HW2 7056   4.716   1.622   3.809
 2353WAT     OW 7057   5.568   0.473   1.137
 2353WAT    HW1 7058   5.623   0.539   1.085
 2353WAT    HW2 7059   5.588   0.381   1.106
 2354WAT     OW 7060   1.383   2.768   0.664
 2354WAT    HW1 7061   1.335   2.714   0.596
 2354WAT    HW2 7062   1.396   2.861   0.630
 2355WAT     OW 7063   4.122   4.115   1.336
 2355WAT    HW1 7064   4.050   4.138   1.271
 2355WAT    HW2 7065   4.208   4.158   1.308
 2356WAT     OW 7066   2.790   0.707   2.502
 2356WAT    HW1 7067   2.759   0.746   2.415
 2356WAT    HW2 7068   2.796   0.607   2.493
 2357WAT     OW 7069   2.446   0.197   2.301
 2357WAT    HW1 7070   2.447   0.197   2.201
 2357WAT    HW2 7071   2.491   0.115   2.335
 2358WAT     OW 7072   3.736   0.463   2.495
 2358WAT    HW1 7073   3.688   0.547   2.469
 2358WAT    HW2 7074   3.678   0.409   2.556
 2359WAT     OW 7075   3.235   1.630   4.775
 2359WAT    HW1 7076   3.311   1.671   4.825
 2359WAT    HW2 7077   3.260   1.618   4.679
 2360WAT     OW 7078   0.487   6.459   0.383
 2360WAT    HW1 7079   0.404   6.403   0.391
 2360WAT    HW2 7080   0.562   6.402   0.350
 2361WAT     OW 7081   1.384   1.745   2.694
 2361WAT    HW1 7082   1.404   1.648   2.702
 2361WAT    HW2 7083   1.295   1.758   2.650
 2362WAT     OW 7084   1.202   3.824   6.008
 2362WAT    HW1 7085   1.158   3.746   6.052
 2362WAT    HW2 7086   1.284   3.793   5.960
 2363WAT     OW 7087   6.639   1.501   0.555
 2363WAT    HW1 7088   6.580   1.569   0.599
 2363WAT    HW2 7089   6.701   1.462   0.622
 2364WAT     OW 7090   1.077   5.709   0.312
 2364WAT    HW1 7091   1.020   5.664   0.243
 2364WAT    HW2 7092   1.022   5.728   0.393
 2365WAT     OW 7093   2.435   1.389   5.077
 2365WAT    HW1 7094   2.386   1.474   5.095
 2365WAT    HW2 7095   2.399   1.316   5.135
 2366WAT     OW 7096   2.718   1.451   2.661
 2366WAT    HW1 7097   2.762   1.393   2.731
 2366WAT    HW2 7098   2.623   1.423   2.650
 2367WAT     OW 7099   2.580   4.484   3.507
 2367WAT    HW1 7100   2.523   4.515   3.583
 2367WAT    HW2 7101   2.568   4.386   3.493
 2368WAT     OW 7102   1.949   6.424   3.660
 2368WAT    HW1 7103   1.909   6.398   3.747
 2368WAT    HW2 7104   1.922   6.357   3.590
 2369WAT     OW 7105   0.215   4.921   0.900
 2369WAT    HW1 7106   0.288   4.879   0.846
 2369WAT    HW2 7107   0.126   4.892   0.865
 2370WAT     OW 7108   4.698   5.818   0.677
 2370WAT    HW1 7109   4.717   5.781   0.586
 2370WAT    HW2 7110   4.745   5.763   0.746
 2371WAT     OW 7111   0.887   6.313   0.021
 2371WAT    HW1 7112   0.860   6.234   0.075
 2371WAT    HW2 7113   0.980   6.301  -0.013
 2372WAT     OW 7114   3.682   1.577   6.541
 2372WAT    HW1 7115   3.617   1.509   6.509
 2372WAT    HW2 7116   3.704   1.640   6.466
 2373WAT     OW 7117   2.897   2.133   1.717
 2373WAT    HW1 7118   2.928   2.171   1.630
 2373WAT    HW2 7119   2.955   2.168   1.791
 2374WAT     OW 7120   4.110   4.186   2.815
 2374WAT    HW1 7121   4.016   4.214   2.796
 2374WAT    HW2 7122   4.172   4.262   2.796
 2375WAT     OW 7123   4.340   6.117   6.407
 2375WAT    HW1 7124   4.310   6.024   6.429
 2375WAT    HW2 7125   4.370   6.163   6.490
 2376WAT     OW 7126   4.269   3.006   2.152
 2376WAT    HW1 7127   4.200   3.062   2.107
 2376WAT    HW2 7128   4.263   2.912   2.119
 2377WAT     OW 7129   4.314   1.426   2.772
 2377WAT    HW1 7130   4.232   1.384   2.734
 2377WAT    HW2 7131   4.300   1.524   2.782
 2378WAT     OW 7132   3.779   3.929   0.728
 2378WAT    HW1 7133   3.788   3.843   0.779
 2378WAT    HW2 7134   3.716   3.990   0.776
 2379WAT     OW 7135   3.521   5.503   4.581
 2379WAT    HW1 7136   3.443   5.445   4.606
 2379WAT    HW2 7137   3.573   5.459   4.508
 2380WAT     OW 7138   1.993   6.663   6.330
 2380WAT    HW1 7139   2.036   6.589   6.383
 2380WAT    HW2 7140   2.020   6.653   6.234
 2381WAT     OW 7141   5.302   5.867   3.832
 2381WAT    HW1 7142   5.205   5.842   3.833
 2381WAT    HW2 7143   5.320   5.936   3.902
 2382WAT     OW 7144   2.898   1.864   3.458
 2382WAT    HW1 7145   2.871   1.768   3.472
 2382WAT    HW2 7146   2.946   1.873   3.371
 2383WAT     OW 7147   4.028   0.798   2.939
 2383WAT    HW1 7148   4.011   0.701   2.957
 2383WAT    HW2 7149   4.108   0.827   2.993
 2384WAT     OW 7150   0.897   5.144   4.044
 2384WAT    HW1 7151   0.839   5.205   3.990
 2384WAT    HW2 7152   0.912   5.184   4.134
 2385WAT     OW 7153   5.706   1.521   6.333
 2385WAT    HW1 7154   5.710   1.424   6.357
 2385WAT    HW2 7155   5.669   1.573   6.410
 2386WAT     OW 7156   3.814   6.482   5.746
 2386WAT    HW1 7157   3.901   6.435   5.734
 2386WAT    HW2 7158   3.811   6.523   5.837
 2387WAT     OW 7159   6.086   6.056   1.248
 2387WAT    HW1 7160   6.165   6.111   1.275
 2387WAT    HW2 7161   6.041   6.020   1.330
 2388WAT     OW 7162   0.880   6.615   1.249
 2388WAT    HW1 7163   0.892   6.517   1.236
 2388WAT    HW2 7164   0.957   6.664   1.208
 2389WAT     OW 7165   3.174   0.702   1.727
 2389WAT    HW1 7166   3.076   0.710   1.706
 2389WAT    HW2 7167   3.207   0.614   1.692
 2390WAT     OW 7168   6.247   4.493   0.680
 2390WAT    HW1 7169   6.240   4.541   0.768
 2390WAT    HW2 7170   6.223   4.397   0.692
 2391WAT     OW 7171   4.801   3.640   4.298
 2391WAT    HW1 7172   4.702   3.628   4.288
 2391WAT    HW2 7173   4.849   3.563   4.255
 2392WAT     OW 7174   5.496   1.972   0.597
 2392WAT    HW1 7175   5.548   1.887   0.591
 2392WAT    HW2 7176   5.514   2.016   0.685
 2393WAT     OW 7177   3.992   5.161   6.210
 2393WAT    HW1 7178   3.944   5.135   6.294
 2393WAT    HW2 7179   3.963   5.252   6.182
 2394WAT     OW 7180   5.172   1.614   1.066
 2394WAT    HW1 7181   5.191   1.600   1.164
 2394WAT    HW2 7182   5.083   1.574   1.044
 2395WAT     OW 7183   2.490   2.307   4.635
 2395WAT    HW1 7184   2.562   2.327   4.569
 2395WAT    HW2 7185   2.456   2.392   4.676
 2396WAT     OW 7186   0.562   3.933   3.226
 2396WAT    HW1 7187   0.615   3.931   3.311
 2396WAT    HW2 7188   0.485   3.997   3.237
 2397WAT     OW 7189   6.135   0.838   5.052
 2397WAT    HW1 7190   6.202   0.912   5.052
 2397WAT    HW2 7191   6.151   0.779   5.131
 2398WAT     OW 7192   2.230   3.525   1.840
 2398WAT    HW1 7193   2.330   3.529   1.838
 2398WAT    HW2 7194   2.193   3.609   1.799
 2399WAT     OW 7195   4.839   0.914   6.024
 2399WAT    HW1 7196   4.850   0.868   5.936
 2399WAT    HW2 7197   4.926   0.957   6.050
 2400WAT     OW 7198   3.856   2.512   0.747
 2400WAT    HW1 7199   3.954   2.517   0.768
 2400WAT    HW2 7200   3.804   2.509   0.832
 2401WAT     OW 7201   2.699   0.444   0.167
 2401WAT    HW1 7202   2.783   0.496   0.180
 2401WAT    HW2 7203   2.630   0.477   0.232
 2402WAT     OW 7204   4.275   1.617   1.583
 2402WAT    HW1 7205   4.264   1.560   1.664
 2402WAT    HW2 7206   4.214   1.583   1.510
 2403WAT     OW 7207   0.481   3.428   5.073
 2403WAT    HW1 7208   0.442   3.336   5.072
 2403WAT    HW2 7209   0.413   3.493   5.040
 2404WAT     OW 7210   4.395   3.040   5.372
 2404WAT    HW1 7211   4.462   3.100   5.329
 2404WAT    HW2 7212   4.412   2.945   5.344
 2405WAT     OW 7213   2.858   1.288   2.832
 2405WAT    HW1 7214   2.854   1.281   2.931
 2405WAT    HW2 7215   2.896   1.204   2.793
 2406WAT     OW 7216   0.862   3.348   2.109
 2406WAT    HW1 7217   0.846   3.379   2.015
 2406WAT    HW2 7218   0.814   3.261   2.123
 2407WAT     OW 7219   1.927   0.282   4.998
 2407WAT    HW1 7220   1.958   0.250   4.908
 2407WAT    HW2 7221   1.828   0.295   4.996
 2408WAT     OW 7222   0.097   5.488   0.541
 2408WAT    HW1 7223   0.145   5.481   0.628
 2408WAT    HW2 7224   0.162   5.513   0.469
 2409WAT     OW 7225   5.779   0.233   3.195
 2409WAT    HW1 7226   5.863   0.284   3.213
 2409WAT    HW2 7227   5.705   0.296   3.174
 2410WAT     OW 7228   1.129   4.823   2.994
 2410WAT    HW1 7229   1.117   4.916   3.029
 2410WAT    HW2 7230   1.225   4.797   3.001
 2411WAT     OW 7231   4.114   3.004   0.809
 2411WAT    HW1 7232   4.166   2.943   0.868
 2411WAT    HW2 7233   4.173   3.038   0.735
 2412WAT     OW 7234   1.541   2.168   5.391
 2412WAT    HW1 7235   1.566   2.121   5.306
 2412WAT    HW2 7236   1.455   2.217   5.378
 2413WAT     OW 7237   4.155   0.842   0.054
 2413WAT    HW1 7238   4.131   0.746   0.041
 2413WAT    HW2 7239   4.107   0.878   0.133
 2414WAT     OW 7240   5.058   3.343   3.496
 2414WAT    HW1 7241   5.136   3.313   3.551
 2414WAT    HW2 7242   5.001   3.405   3.550
 2415WAT     OW 7243   5.115   5.693   4.368
 2415WAT    HW1 7244   5.204   5.673   4.327
 2415WAT    HW2 7245   5.094   5.790   4.356
 2416WAT     OW 7246   4.664   5.054   4.651
 2416WAT    HW1 7247   4.661   4.989   4.727
 2416WAT    HW2 7248   4.734   5.025   4.585
 2417WAT     OW 7249   0.181   0.747   1.541
 2417WAT    HW1 7250   0.271   0.735   1.582
 2417WAT    HW2 7251   0.186   0.721   1.444
 2418WAT     OW 7252   5.212   6.498   4.117
 2418WAT    HW1 7253   5.257   6.586   4.107
 2418WAT    HW2 7254   5.152   6.482   4.039
 2419WAT     OW 7255   2.533   3.912   1.146
 2419WAT    HW1 7256   2.610   3.908   1.082
 2419WAT    HW2 7257   2.470   3.836   1.125
 2420WAT     OW 7258   3.258   2.788   5.632
 2420WAT    HW1 7259   3.267   2.867   5.572
 2420WAT    HW2 7260   3.347   2.745   5.645
 2421WAT     OW 7261   3.836   2.847   2.611
 2421WAT    HW1 7262   3.876   2.854   2.520
 2421WAT    HW2 7263   3.901   2.882   2.679
 2422WAT     OW 7264   3.930   4.742   6.230
 2422WAT    HW1 7265   3.936   4.770   6.326
 2422WAT    HW2 7266   3.929   4.824   6.172
 2423WAT     OW 7267   0.838   3.215   0.596
 2423WAT    HW1 7268   0.748   3.225   0.555
 2423WAT    HW2 7269   0.856   3.118   0.614
 2424WAT     OW 7270   5.392   4.564   2.416
 2424WAT    HW1 7271   5.307   4.545   2.466
 2424WAT    HW2 7272   5.371   4.622   2.337
 2425WAT     OW 7273   6.408   5.477   2.288
 2425WAT    HW1 7274   6.356   5.466   2.373
 2425WAT    HW2 7275   6.462   5.395   2.271
 2426WAT     OW 7276   5.702   2.887   6.139
 2426WAT    HW1 7277   5.664   2.927   6.223
 2426WAT    HW2 7278   5.774   2.822   6.163
 2427WAT     OW 7279   6.539   1.216   1.231
 2427WAT    HW1 7280   6.516   1.246   1.138
 2427WAT    HW2 7281   6.626   1.166   1.229
 2428WAT     OW 7282   3.017   5.335   3.998
 2428WAT    HW1 7283   2.928   5.313   3.959
 2428WAT    HW2 7284   3.012   5.424   4.045
 2429WAT     OW 7285   5.016   6.427   0.053
 2429WAT    HW1 7286   4.982   6.333   0.059
 2429WAT    HW2 7287   5.025   6.453  -0.043
 2430WAT     OW 7288   2.956   3.518   5.593
 2430WAT    HW1 7289   2.917   3.427   5.608
 2430WAT    HW2 7290   2.882   3.584   5.578
 2431WAT     OW 7291   0.577   4.052   1.675
 2431WAT    HW1 7292   0.563   4.017   1.767
 2431WAT    HW2 7293   0.673   4.078   1.664
 2432WAT     OW 7294   2.207   4.712   0.527
 2432WAT    HW1 7295   2.179   4.625   0.568
 2432WAT    HW2 7296   2.259   4.766   0.594
 2433WAT     OW 7297   5.029   4.754   4.589
 2433WAT    HW1 7298   5.105   4.763   4.653
 2433WAT    HW2 7299   5.059   4.702   4.509
 2434WAT     OW 7300   3.463   4.273   5.925
 2434WAT    HW1 7301   3.420   4.278   6.015
 2434WAT    HW2 7302   3.513   4.187   5.917
 2435WAT     OW 7303   1.285   5.690   4.729
 2435WAT    HW1 7304   1.327   5.737   4.651
 2435WAT    HW2 7305   1.241   5.606   4.699
 2436WAT     OW 7306   0.148   5.042   3.867
 2436WAT    HW1 7307   0.124   5.139   3.877
 2436WAT    HW2 7308   0.064   4.988   3.855
 2437WAT     OW 7309   0.836   4.995   0.218
 2437WAT    HW1 7310   0.822   5.094   0.216
 2437WAT    HW2 7311   0.911   4.974   0.281
 2438WAT     OW 7312   3.375   1.380   0.167
 2438WAT    HW1 7313   3.440   1.320   0.121
 2438WAT    HW2 7314   3.417   1.418   0.249
 2439WAT     OW 7315   4.591   1.268   5.083
 2439WAT    HW1 7316   4.628   1.211   5.010
 2439WAT    HW2 7317   4.636   1.357   5.083
 2440WAT     OW 7318   0.158   4.012   2.690
 2440WAT    HW1 7319   0.237   4.009   2.751
 2440WAT    HW2 7320   0.190   4.006   2.595
 2441WAT     OW 7321   6.596   4.751   4.796
 2441WAT    HW1 7322   6.690   4.719   4.786
 2441WAT    HW2 7323   6.544   4.684   4.850
 2442WAT     OW 7324   1.740   5.287   5.517
 2442WAT    HW1 7325   1.670   5.221   5.490
 2442WAT    HW2 7326   1.768   5.271   5.611
 2443WAT     OW 7327   3.367   2.197   3.732
 2443WAT    HW1 7328   3.321   2.156   3.654
 2443WAT    HW2 7329   3.466   2.195   3.718
 2444WAT     OW 7330   1.506   5.374   0.793
 2444WAT    HW1 7331   1.500   5.447   0.725
 2444WAT    HW2 7332   1.572   5.400   0.863
 2445WAT     OW 7333   6.486   4.384   6.439
 2445WAT    HW1 7334   6.477   4.326   6.357
 2445WAT    HW2 7335   6.432   4.467   6.427
 2446WAT     OW 7336   2.727   5.373   2.055
 2446WAT    HW1 7337   2.755   5.396   1.962
 2446WAT    HW2 7338   2.746   5.450   2.116
 2447WAT     OW 7339   4.579   2.474   1.870
 2447WAT    HW1 7340   4.523   2.505   1.947
 2447WAT    HW2 7341   4.664   2.527   1.866
 2448WAT     OW 7342   0.057   3.919   4.869
 2448WAT    HW1 7343   0.021   3.834   4.909
 2448WAT    HW2 7344  -0.011   3.991   4.877
 2449WAT     OW 7345   6.078   3.002   3.530
 2449WAT    HW1 7346   6.163   3.055   3.522
 2449WAT    HW2 7347   6.046   3.005   3.625
 2450WAT     OW 7348   0.314   4.112   1.302
 2450WAT    HW1 7349   0.233   4.148   1.254
 2450WAT    HW2 7350   0.394   4.122   1.243
 2451WAT     OW 7351   1.158   1.384   6.668
 2451WAT    HW1 7352   1.224   1.341   6.729
 2451WAT    HW2 7353   1.205   1.448   6.607
 2452WAT     OW 7354   5.873   0.319   0.098
 2452WAT    HW1 7355   5.788   0.294   0.145
 2452WAT    HW2 7356   5.918   0.393   0.148
 2453WAT     OW 7357   1.382   4.066   4.714
 2453WAT    HW1 7358   1.397   3.971   4.687
 2453WAT    HW2 7359   1.470   4.111   4.729
 2454WAT     OW 7360   6.651   0.851   3.642
 2454WAT    HW1 7361   6.695   0.853   3.732
 2454WAT    HW2 7362   6.673   0.935   3.593
 2455WAT     OW 7363   6.384   3.777   4.904
 2455WAT    HW1 7364   6.302   3.803   4.955
 2455WAT    HW2 7365   6.362   3.699   4.844
 2456WAT     OW 7366   4.466   4.379   3.632
 2456WAT    HW1 7367   4.420   4.332   3.708
 2456WAT    HW2 7368   4.565   4.364   3.639
 2457WAT     OW 7369   3.040   2.920   4.874
 2457WAT    HW1 7370   3.080   2.996   4.924
 2457WAT    HW2 7371   3.104   2.844   4.872
 2458WAT     OW 7372   5.835   3.907   0.144
 2458WAT    HW1 7373   5.890   3.989   0.164
 2458WAT    HW2 7374   5.780   3.923   0.062
 2459WAT     OW 7375   0.431   1.300   5.168
 2459WAT    HW1 7376   0.395   1.335   5.082
 2459WAT    HW2 7377   0.389   1.348   5.245
 2460WAT     OW 7378   5.671   3.105   0.581
 2460WAT    HW1 7379   5.583   3.059   0.591
 2460WAT    HW2 7380   5.671   3.159   0.497
 2461WAT     OW 7381   0.859   4.090   0.537
 2461WAT    HW1 7382   0.770   4.106   0.493
 2461WAT    HW2 7383   0.915   4.173   0.530
 2462WAT     OW 7384   0.576   2.333   5.601
 2462WAT    HW1 7385   0.658   2.295   5.557
 2462WAT    HW2 7386   0.595   2.426   5.632
 2463WAT     OW 7387   4.678   2.085   5.129
 2463WAT    HW1 7388   4.590   2.044   5.154
 2463WAT    HW2 7389   4.666   2.143   5.048
 2464WAT     OW 7390   6.115   6.080   3.999
 2464WAT    HW1 7391   6.103   6.166   4.048
 2464WAT    HW2 7392   6.076   6.006   4.054
 2465WAT     OW 7393   4.687   5.667   3.293
 2465WAT    HW1 7394   4.658   5.744   3.235
 2465WAT    HW2 7395   4.643   5.583   3.261
 2466WAT     OW 7396   0.680   3.035   1.687
 2466WAT    HW1 7397   0.583   3.046   1.711
 2466WAT    HW2 7398   0.704   2.938   1.692
 2467WAT     OW 7399   1.170   3.760   4.781
 2467WAT    HW1 7400   1.097   3.824   4.802
 2467WAT    HW2 7401   1.222   3.794   4.702
 2468WAT     OW 7402   2.075   6.371   0.802
 2468WAT    HW1 7403   2.012   6.319   0.744
 2468WAT    HW2 7404   2.028   6.451   0.839
 2469WAT     OW 7405   5.456   5.246   5.468
 2469WAT    HW1 7406   5.460   5.210   5.375
 2469WAT    HW2 7407   5.408   5.334   5.468
 2470WAT     OW 7408   6.497   5.197   4.732
 2470WAT    HW1 7409   6.475   5.264   4.661
 2470WAT    HW2 7410   6.581   5.149   4.707
 2471WAT     OW 7411   0.914   3.044   5.222
 2471WAT    HW1 7412   0.904   3.142   5.206
 2471WAT    HW2 7413   0.829   2.998   5.195
 2472WAT     OW 7414   5.487   6.429   5.297
 2472WAT    HW1 7415   5.530   6.501   5.352
 2472WAT    HW2 7416   5.395   6.457   5.272
 2473WAT     OW 7417   5.894   3.286   4.323
 2473WAT    HW1 7418   5.886   3.187   4.311
 2473WAT    HW2 7419   5.968   3.306   4.388
 2474WAT     OW 7420   6.447   1.299   0.591
 2474WAT    HW1 7421   6.523   1.358   0.562
 2474WAT    HW2 7422   6.480   1.231   0.656
 2475WAT     OW 7423   0.455   4.517   0.237
 2475WAT    HW1 7424   0.443   4.571   0.154
 2475WAT    HW2 7425   0.472   4.422   0.212
 2476WAT     OW 7426   5.096   0.469   0.927
 2476WAT    HW1 7427   5.101   0.542   0.860
 2476WAT    HW2 7428   5.172   0.476   0.992
 2477WAT     OW 7429   6.313   2.112   3.182
 2477WAT    HW1 7430   6.312   2.090   3.279
 2477WAT    HW2 7431   6.239   2.175   3.161
 2478WAT     OW 7432   2.548   1.088   5.403
 2478WAT    HW1 7433   2.487   1.056   5.331
 2478WAT    HW2 7434   2.576   1.182   5.385
 2479WAT     OW 7435   4.275   3.335   3.517
 2479WAT    HW1 7436   4.246   3.263   3.580
 2479WAT    HW2 7437   4.220   3.331   3.434
 2480WAT     OW 7438   4.669   6.093   0.674
 2480WAT    HW1 7439   4.688   5.994   0.677
 2480WAT    HW2 7440   4.692   6.133   0.763
 2481WAT     OW 7441   5.459   5.255   2.690
 2481WAT    HW1 7442   5.374   5.274   2.740
 2481WAT    HW2 7443   5.437   5.221   2.599
 2482WAT     OW 7444   4.646   1.607   2.868
 2482WAT    HW1 7445   4.613   1.660   2.789
 2482WAT    HW2 7446   4.704   1.664   2.925
 2483WAT     OW 7447   0.789   6.221   3.302
 2483WAT    HW1 7448   0.716   6.215   3.370
 2483WAT    HW2 7449   0.758   6.181   3.216
 2484WAT     OW 7450   1.755   4.537   0.646
 2484WAT    HW1 7451   1.827   4.567   0.708
 2484WAT    HW2 7452   1.781   4.556   0.551
 2485WAT     OW 7453   5.048   5.794   3.809
 2485WAT    HW1 7454   4.994   5.837   3.736
 2485WAT    HW2 7455   4.988   5.768   3.884
 2486WAT     OW 7456   3.450   5.218   1.098
 2486WAT    HW1 7457   3.356   5.186   1.112
 2486WAT    HW2 7458   3.494   5.234   1.186
 2487WAT     OW 7459   4.162   1.872   1.580
 2487WAT    HW1 7460   4.213   1.785   1.578
 2487WAT    HW2 7461   4.144   1.898   1.674
 2488WAT     OW 7462   3.711   1.121   1.105
 2488WAT    HW1 7463   3.734   1.218   1.098
 2488WAT    HW2 7464   3.633   1.101   1.046
 2489WAT     OW 7465   3.467   4.821   1.802
 2489WAT    HW1 7466   3.457   4.752   1.874
 2489WAT    HW2 7467   3.451   4.779   1.713
 2490WAT     OW 7468   2.038   6.292   5.748
 2490WAT    HW1 7469   2.071   6.299   5.842
 2490WAT    HW2 7470   2.081   6.363   5.692
 2491WAT     OW 7471   1.134   3.042   3.858
 2491WAT    HW1 7472   1.062   3.055   3.790
 2491WAT    HW2 7473   1.137   2.946   3.886
 2492WAT     OW 7474   3.277   2.902   2.127
 2492WAT    HW1 7475   3.249   2.829   2.190
 2492WAT    HW2 7476   3.376   2.913   2.130
 2493WAT     OW 7477   5.176   2.730   1.808
 2493WAT    HW1 7478   5.185   2.630   1.806
 2493WAT    HW2 7479   5.091   2.756   1.761
 2494WAT     OW 7480   2.728   0.819   2.265
 2494WAT    HW1 7481   2.679   0.907   2.266
 2494WAT    HW2 7482   2.794   0.819   2.189
 2495WAT     OW 7483   2.521   1.987   6.587
 2495WAT    HW1 7484   2.609   2.034   6.587
 2495WAT    HW2 7485   2.473   2.005   6.673
 2496WAT     OW 7486   3.024   5.980   3.932
 2496WAT    HW1 7487   3.070   5.891   3.929
 2496WAT    HW2 7488   3.093   6.053   3.932
 2497WAT     OW 7489   2.846   3.392   6.445
 2497WAT    HW1 7490   2.932   3.342   6.436
 2497WAT    HW2 7491   2.865   3.490   6.458
 2498WAT     OW 7492   3.733   1.943   2.048
 2498WAT    HW1 7493   3.719   1.906   2.140
 2498WAT    HW2 7494   3.645   1.947   2.000
 2499WAT     OW 7495   6.672   1.124   6.279
 2499WAT    HW1 7496   6.771   1.135   6.282
 2499WAT    HW2 7497   6.635   1.175   6.201
 2500WAT     OW 7498   3.128   5.086   2.430
 2500WAT    HW1 7499   3.074   5.111   2.510
 2500WAT    HW2 7500   3.115   5.154   2.357
 2501WAT     OW 7501   2.532   0.720   2.103
 2501WAT    HW1 7502   2.605   0.743   2.167
 2501WAT    HW2 7503   2.455   0.782   2.117
 2502WAT     OW 7504   0.142   5.809   4.649
 2502WAT    HW1 7505   0.130   5.721   4.695
 2502WAT    HW2 7506   0.234   5.815   4.611
 2503WAT     OW 7507   0.417   5.331   4.225
 2503WAT    HW1 7508   0.350   5.362   4.292
 2503WAT    HW2 7509   0.392   5.363   4.134
 2504WAT     OW 7510   4.845   2.587   1.520
 2504WAT    HW1 7511   4.747   2.599   1.536
 2504WAT    HW2 7512   4.869   2.490   1.526
 2505WAT     OW 7513   3.436   0.112   6.279
 2505WAT    HW1 7514   3.387   0.038   6.234
 2505WAT    HW2 7515   3.458   0.183   6.212
 2506WAT     OW 7516   4.732   0.927   0.137
 2506WAT    HW1 7517   4.659   0.865   0.166
 2506WAT    HW2 7518   4.697   0.992   0.069
 2507WAT     OW 7519   6.426   2.718   5.666
 2507WAT    HW1 7520   6.510   2.773   5.670
 2507WAT    HW2 7521   6.377   2.726   5.752
 2508WAT     OW 7522   2.149   5.793   6.556
 2508WAT    HW1 7523   2.105   5.709   6.588
 2508WAT    HW2 7524   2.243   5.796   6.590
 2509WAT     OW 7525   3.820   4.406   0.058
 2509WAT    HW1 7526   3.791   4.402   0.153
 2509WAT    HW2 7527   3.802   4.497   0.022
 2510WAT     OW 7528   5.359   3.483   0.207
 2510WAT    HW1 7529   5.352   3.561   0.144
 2510WAT    HW2 7530   5.410   3.510   0.289
 2511WAT     OW 7531   4.100   1.081   6.347
 2511WAT    HW1 7532   4.172   1.073   6.417
 2511WAT    HW2 7533   4.023   1.132   6.384
 2512WAT     OW 7534   1.287   2.640   4.402
 2512WAT    HW1 7535   1.258   2.689   4.320
 2512WAT    HW2 7536   1.215   2.577   4.431
 2513WAT     OW 7537   4.713   4.616   1.600
 2513WAT    HW1 7538   4.689   4.669   1.519
 2513WAT    HW2 7539   4.752   4.676   1.670
 2514WAT     OW 7540   0.290   5.702   3.328
 2514WAT    HW1 7541   0.283   5.616   3.277
 2514WAT    HW2 7542   0.225   5.700   3.405
 2515WAT     OW 7543   4.515   3.333   3.824
 2515WAT    HW1 7544   4.523   3.348   3.726
 2515WAT    HW2 7545   4.587   3.271   3.855
 2516WAT     OW 7546   0.385   4.485   3.116
 2516WAT    HW1 7547   0.371   4.583   3.103
 2516WAT    HW2 7548   0.321   4.451   3.185
 2517WAT     OW 7549   0.319   1.452   1.600
 2517WAT    HW1 7550   0.313   1.355   1.576
 2517WAT    HW2 7551   0.272   1.468   1.687
 2518WAT     OW 7552   3.065   0.618   2.954
 2518WAT    HW1 7553   3.089   0.522   2.971
 2518WAT    HW2 7554   2.989   0.622   2.889
 2519WAT     OW 7555   3.342   4.493   4.072
 2519WAT    HW1 7556   3.255   4.461   4.034
 2519WAT    HW2 7557   3.358   4.447   4.160
 2520WAT     OW 7558   0.354   5.356   5.034
 2520WAT    HW1 7559   0.256   5.345   5.014
 2520WAT    HW2 7560   0.368   5.439   5.088
 2521WAT     OW 7561   4.299   4.544   5.101
 2521WAT    HW1 7562   4.281   4.627   5.049
 2521WAT    HW2 7563   4.276   4.464   5.046
 2522WAT     OW 7564   0.593   3.929   1.923
 2522WAT    HW1 7565   0.540   3.859   1.971
 2522WAT    HW2 7566   0.678   3.890   1.888
 2523WAT     OW 7567   3.199   6.633   5.155
 2523WAT    HW1 7568   3.233   6.673   5.069
 2523WAT    HW2 7569   3.207   6.700   5.228
 2524WAT     OW 7570   3.048   4.549   1.290
 2524WAT    HW1 7571   3.140   4.579   1.264
 2524WAT    HW2 7572   3.046   4.529   1.388
 2525WAT     OW 7573   5.161   2.087   1.880
 2525WAT    HW1 7574   5.235   2.152   1.864
 2525WAT    HW2 7575   5.099   2.087   1.802
 2526WAT     OW 7576   0.790   1.774   0.432
 2526WAT    HW1 7577   0.804   1.790   0.529
 2526WAT    HW2 7578   0.747   1.685   0.418
 2527WAT     OW 7579   2.842   1.564   6.561
 2527WAT    HW1 7580   2.860   1.537   6.656
 2527WAT    HW2 7581   2.929   1.584   6.515
 2528WAT     OW 7582   6.468   0.915   3.917
 2528WAT    HW1 7583   6.567   0.903   3.923
 2528WAT    HW2 7584   6.435   0.968   3.995
 2529WAT     OW 7585   6.274   1.857   0.636
 2529WAT    HW1 7586   6.263   1.954   0.613
 2529WAT    HW2 7587   6.228   1.801   0.567
 2530WAT     OW 7588   3.142   3.329   3.026
 2530WAT    HW1 7589   3.054   3.298   3.062
 2530WAT    HW2 7590   3.210   3.257   3.038
 2531WAT     OW 7591   3.015   2.598   2.908
 2531WAT    HW1 7592   3.099   2.544   2.918
 2531WAT    HW2 7593   3.012   2.667   2.980
 2532WAT     OW 7594   4.618   6.275   2.175
 2532WAT    HW1 7595   4.559   6.200   2.204
 2532WAT    HW2 7596   4.670   6.247   2.095
 2533WAT     OW 7597   0.797   2.285   3.373
 2533WAT    HW1 7598   0.883   2.249   3.409
 2533WAT    HW2 7599   0.729   2.288   3.447
 2534WAT     OW 7600   5.722   2.040   4.042
 2534WAT    HW1 7601   5.730   2.086   4.130
 2534WAT    HW2 7602   5.706   1.942   4.056
 2535WAT     OW 7603   6.126   0.817   3.417
 2535WAT    HW1 7604   6.182   0.750   3.465
 2535WAT    HW2 7605   6.184   0.879   3.365
 2536WAT     OW 7606   4.069   2.615   4.220
 2536WAT    HW1 7607   4.024   2.639   4.133
 2536WAT    HW2 7608   4.167   2.602   4.204
 2537WAT     OW 7609   2.548   6.448   4.692
 2537WAT    HW1 7610   2.525   6.352   4.679
 2537WAT    HW2 7611   2.515   6.502   4.615
 2538WAT     OW 7612   4.462   4.413   2.541
 2538WAT    HW1 7613   4.438   4.468   2.462
 2538WAT    HW2 7614   4.505   4.328   2.511
 2539WAT     OW 7615   6.241   3.053   4.709
 2539WAT    HW1 7616   6.200   3.141   4.734
 2539WAT    HW2 7617   6.247   3.047   4.609
 2540WAT     OW 7618   4.237   2.426   4.523
 2540WAT    HW1 7619   4.267   2.356   4.587
 2540WAT    HW2 7620   4.209   2.383   4.437
 2541WAT     OW 7621   6.081   0.178   6.666
 2541WAT    HW1 7622   6.007   0.230   6.708
 2541WAT    HW2 7623   6.067   0.080   6.683
 2542WAT     OW 7624   2.267   0.917   5.219
 2542WAT    HW1 7625   2.321   0.836   5.242
 2542WAT    HW2 7626   2.170   0.898   5.235
 2543WAT     OW 7627   4.018   3.591   1.699
 2543WAT    HW1 7628   4.091   3.602   1.767
 2543WAT    HW2 7629   4.058   3.586   1.608
 2544WAT     OW 7630   4.550   5.197   0.506
 2544WAT    HW1 7631   4.479   5.264   0.488
 2544WAT    HW2 7632   4.616   5.234   0.572
 2545WAT     OW 7633   4.122   0.272   6.455
 2545WAT    HW1 7634   4.074   0.210   6.393
 2545WAT    HW2 7635   4.063   0.297   6.531
 2546WAT     OW 7636   3.491   0.167   2.252
 2546WAT    HW1 7637   3.568   0.231   2.249
 2546WAT    HW2 7638   3.472   0.142   2.347
 2547WAT     OW 7639   0.890   1.205   1.654
 2547WAT    HW1 7640   0.859   1.300   1.654
 2547WAT    HW2 7641   0.968   1.196   1.592
 2548WAT     OW 7642   6.336   2.767   2.724
 2548WAT    HW1 7643   6.292   2.764   2.814
 2548WAT    HW2 7644   6.275   2.728   2.656
 2549WAT     OW 7645   5.067   4.238   6.540
 2549WAT    HW1 7646   5.044   4.146   6.507
 2549WAT    HW2 7647   5.018   4.255   6.626
 2550WAT     OW 7648   2.013   1.598   1.475
 2550WAT    HW1 7649   1.966   1.667   1.530
 2550WAT    HW2 7650   2.077   1.644   1.413
 2551WAT     OW 7651   0.494   5.017   4.914
 2551WAT    HW1 7652   0.494   5.076   4.994
 2551WAT    HW2 7653   0.470   5.071   4.833
 2552WAT     OW 7654   4.464   1.124   2.209
 2552WAT    HW1 7655   4.559   1.102   2.189
 2552WAT    HW2 7656   4.409   1.040   2.209
 2553WAT     OW 7657   6.407   1.806   4.083
 2553WAT    HW1 7658   6.423   1.793   4.181
 2553WAT    HW2 7659   6.420   1.719   4.036
 2554WAT     OW 7660   5.532   0.070   2.966
 2554WAT    HW1 7661   5.630   0.057   2.977
 2554WAT    HW2 7662   5.515   0.136   2.892
 2555WAT     OW 7663   3.779   4.021   4.897
 2555WAT    HW1 7664   3.826   4.032   4.810
 2555WAT    HW2 7665   3.743   4.109   4.928
 2556WAT     OW 7666   0.935   5.425   2.882
 2556WAT    HW1 7667   1.019   5.422   2.828
 2556WAT    HW2 7668   0.915   5.519   2.907
 2557WAT     OW 7669   5.695   0.771   5.027
 2557WAT    HW1 7670   5.690   0.692   5.088
 2557WAT    HW2 7671   5.684   0.740   4.932
 2558WAT     OW 7672   5.307   3.082   4.914
 2558WAT    HW1 7673   5.290   2.985   4.894
 2558WAT    HW2 7674   5.360   3.089   4.999
 2559WAT     OW 7675   4.958   3.801   0.986
 2559WAT    HW1 7676   4.940   3.779   1.081
 2559WAT    HW2 7677   4.872   3.803   0.935
 2560WAT     OW 7678   5.823   2.205   3.853
 2560WAT    HW1 7679   5.794   2.138   3.921
 2560WAT    HW2 7680   5.922   2.197   3.838
 2561WAT     OW 7681   3.315   0.219   1.343
 2561WAT    HW1 7682   3.313   0.315   1.313
 2561WAT    HW2 7683   3.338   0.215   1.440
 2562WAT     OW 7684   5.399   3.696   5.857
 2562WAT    HW1 7685   5.303   3.712   5.836
 2562WAT    HW2 7686   5.451   3.780   5.840
 2563WAT     OW 7687   4.310   2.018   4.614
 2563WAT    HW1 7688   4.408   2.014   4.631
 2563WAT    HW2 7689   4.266   1.934   4.647
 2564WAT     OW 7690   4.716   3.328   3.346
 2564WAT    HW1 7691   4.746   3.423   3.337
 2564WAT    HW2 7692   4.791   3.266   3.323
 2565WAT     OW 7693   0.777   4.648   0.630
 2565WAT    HW1 7694   0.707   4.640   0.702
 2565WAT    HW2 7695   0.741   4.611   0.544
 2566WAT     OW 7696   5.052   0.764   4.945
 2566WAT    HW1 7697   4.996   0.844   4.925
 2566WAT    HW2 7698   5.025   0.726   5.034
 2567WAT     OW 7699   4.963   0.466   0.606
 2567WAT    HW1 7700   5.010   0.544   0.646
 2567WAT    HW2 7701   5.024   0.386   0.606
 2568WAT     OW 7702   1.087   1.795   6.540
 2568WAT    HW1 7703   1.034   1.713   6.520
 2568WAT    HW2 7704   1.040   1.848   6.611
 2569WAT     OW 7705   1.493   4.361   4.432
 2569WAT    HW1 7706   1.521   4.327   4.342
 2569WAT    HW2 7707   1.572   4.365   4.492
 2570WAT     OW 7708   3.733   3.215   0.567
 2570WAT    HW1 7709   3.645   3.188   0.528
 2570WAT    HW2 7710   3.776   3.136   0.611
 2571WAT     OW 7711   3.958   1.528   2.537
 2571WAT    HW1 7712   3.999   1.452   2.586
 2571WAT    HW2 7713   3.957   1.508   2.439
 2572WAT     OW 7714   4.711   6.462   5.908
 2572WAT    HW1 7715   4.714   6.366   5.881
 2572WAT    HW2 7716   4.792   6.509   5.873
 2573WAT     OW 7717   5.414   0.464   5.623
 2573WAT    HW1 7718   5.345   0.527   5.658
 2573WAT    HW2 7719   5.371   0.379   5.595
 2574WAT     OW 7720   1.027   2.980   2.260
 2574WAT    HW1 7721   1.042   3.056   2.323
 2574WAT    HW2 7722   1.025   3.014   2.166
 2575WAT     OW 7723   4.606   2.031   5.987
 2575WAT    HW1 7724   4.566   1.939   5.994
 2575WAT    HW2 7725   4.706   2.024   5.993
 2576WAT     OW 7726   0.503   1.042   1.404
 2576WAT    HW1 7727   0.590   1.023   1.449
 2576WAT    HW2 7728   0.519   1.099   1.324
 2577WAT     OW 7729   1.430   6.419   2.945
 2577WAT    HW1 7730   1.400   6.418   3.041
 2577WAT    HW2 7731   1.414   6.329   2.905
 2578WAT     OW 7732   2.191   1.057   5.895
 2578WAT    HW1 7733   2.094   1.077   5.909
 2578WAT    HW2 7734   2.233   1.132   5.843
 2579WAT     OW 7735   0.756   3.882   6.439
 2579WAT    HW1 7736   0.738   3.867   6.342
 2579WAT    HW2 7737   0.806   3.804   6.477
 2580WAT     OW 7738   6.126   1.180   4.160
 2580WAT    HW1 7739   6.087   1.193   4.251
 2580WAT    HW2 7740   6.066   1.121   4.106
 2581WAT     OW 7741   4.549   5.945   0.053
 2581WAT    HW1 7742   4.648   5.949   0.067
 2581WAT    HW2 7743   4.529   5.889  -0.028
 2582WAT     OW 7744   0.578   5.318   0.112
 2582WAT    HW1 7745   0.663   5.295   0.160
 2582WAT    HW2 7746   0.510   5.246   0.128
 2583WAT     OW 7747   1.819   2.028   1.436
 2583WAT    HW1 7748   1.896   2.072   1.483
 2583WAT    HW2 7749   1.842   2.017   1.339
 2584WAT     OW 7750   3.541   3.729   2.647
 2584WAT    HW1 7751   3.475   3.659   2.618
 2584WAT    HW2 7752   3.632   3.688   2.653
 2585WAT     OW 7753   1.148   0.095   2.687
 2585WAT    HW1 7754   1.230   0.039   2.701
 2585WAT    HW2 7755   1.174   0.182   2.644
 2586WAT     OW 7756   4.193   5.287   1.327
 2586WAT    HW1 7757   4.281   5.334   1.327
 2586WAT    HW2 7758   4.202   5.197   1.284
 2587WAT     OW 7759   2.642   1.499   0.247
 2587WAT    HW1 7760   2.554   1.462   0.219
 2587WAT    HW2 7761   2.651   1.492   0.347
 2588WAT     OW 7762   6.147   4.237   1.833
 2588WAT    HW1 7763   6.171   4.140   1.839
 2588WAT    HW2 7764   6.228   4.293   1.854
 2589WAT     OW 7765   1.554   2.570   4.413
 2589WAT    HW1 7766   1.456   2.585   4.422
 2589WAT    HW2 7767   1.587   2.519   4.493
 2590WAT     OW 7768   6.096   4.786   5.187
 2590WAT    HW1 7769   6.153   4.744   5.258
 2590WAT    HW2 7770   6.146   4.788   5.101
 2591WAT     OW 7771   5.619   4.236   0.590
 2591WAT    HW1 7772   5.626   4.314   0.652
 2591WAT    HW2 7773   5.699   4.177   0.600
 2592WAT     OW 7774   5.522   0.469   5.872
 2592WAT    HW1 7775   5.491   0.466   5.777
 2592WAT    HW2 7776   5.459   0.523   5.926
 2593WAT     OW 7777   6.655   1.538   5.523
 2593WAT    HW1 7778   6.663   1.593   5.606
 2593WAT    HW2 7779   6.644   1.597   5.444
 2594WAT     OW 7780   0.519   3.273   2.689
 2594WAT    HW1 7781   0.513   3.256   2.591
 2594WAT    HW2 7782   0.504   3.187   2.739
 2595WAT     OW 7783   2.350   5.309   2.975
 2595WAT    HW1 7784   2.307   5.256   3.049
 2595WAT    HW2 7785   2.418   5.371   3.014
 2596WAT     OW 7786   2.948   6.530   5.846
 2596WAT    HW1 7787   2.934   6.628   5.837
 2596WAT    HW2 7788   2.983   6.509   5.938
 2597WAT     OW 7789   4.703   6.184   0.931
 2597WAT    HW1 7790   4.719   6.100   0.982
 2597WAT    HW2 7791   4.607   6.211   0.940
 2598WAT     OW 7792   4.933   3.638   5.483
 2598WAT    HW1 7793   4.935   3.667   5.387
 2598WAT    HW2 7794   5.005   3.570   5.498
 2599WAT     OW 7795   5.931   2.667   2.891
 2599WAT    HW1 7796   6.020   2.705   2.915
 2599WAT    HW2 7797   5.943   2.575   2.854
 2600WAT     OW 7798   6.281   1.524   4.334
 2600WAT    HW1 7799   6.308   1.620   4.331
 2600WAT    HW2 7800   6.248   1.496   4.243
 2601WAT     OW 7801   3.483   5.423   1.764
 2601WAT    HW1 7802   3.529   5.477   1.835
 2601WAT    HW2 7803   3.520   5.330   1.765
 2602WAT     OW 7804   2.193   3.686   4.444
 2602WAT    HW1 7805   2.283   3.721   4.470
 2602WAT    HW2 7806   2.197   3.649   4.351
 2603WAT     OW 7807   6.649   3.686   1.412
 2603WAT    HW1 7808   6.737   3.650   1.440
 2603WAT    HW2 7809   6.636   3.778   1.450
 2604WAT     OW 7810   4.316   4.674   1.468
 2604WAT    HW1 7811   4.226   4.713   1.488
 2604WAT    HW2 7812   4.322   4.582   1.508
 2605WAT     OW 7813   3.015   1.760   2.851
 2605WAT    HW1 7814   3.024   1.793   2.757
 2605WAT    HW2 7815   3.032   1.662   2.855
 2606WAT     OW 7816   5.384   1.555   5.249
 2606WAT    HW1 7817   5.392   1.557   5.349
 2606WAT    HW2 7818   5.288   1.567   5.223
 2607WAT     OW 7819   0.511   6.108   6.476
 2607WAT    HW1 7820   0.571   6.184   6.501
 2607WAT    HW2 7821   0.514   6.095   6.377
 2608WAT     OW 7822   0.417   6.018   3.588
 2608WAT    HW1 7823   0.337   6.040   3.532
 2608WAT    HW2 7824   0.399   6.045   3.683
 2609WAT     OW 7825   4.531   1.553   2.068
 2609WAT    HW1 7826   4.626   1.548   2.098
 2609WAT    HW2 7827   4.492   1.641   2.095
 2610WAT     OW 7828   4.670   5.428   4.211
 2610WAT    HW1 7829   4.736   5.359   4.242
 2610WAT    HW2 7830   4.717   5.515   4.199
 2611WAT     OW 7831   3.766   1.015   2.628
 2611WAT    HW1 7832   3.705   0.975   2.560
 2611WAT    HW2 7833   3.832   0.946   2.658
 2612WAT     OW 7834   3.940   0.344   5.531
 2612WAT    HW1 7835   4.009   0.338   5.602
 2612WAT    HW2 7836   3.849   0.344   5.572
 2613WAT     OW 7837   2.635   3.724   0.746
 2613WAT    HW1 7838   2.568   3.658   0.712
 2613WAT    HW2 7839   2.727   3.696   0.718
 2614WAT     OW 7840   1.314   1.165   3.420
 2614WAT    HW1 7841   1.374   1.128   3.349
 2614WAT    HW2 7842   1.346   1.255   3.448
 2615WAT     OW 7843   4.629   3.091   2.290
 2615WAT    HW1 7844   4.673   3.131   2.370
 2615WAT    HW2 7845   4.555   3.151   2.259
 2616WAT     OW 7846   4.770   3.963   5.975
 2616WAT    HW1 7847   4.841   4.015   5.927
 2616WAT    HW2 7848   4.785   3.866   5.960
 2617WAT     OW 7849   2.311   2.857   4.025
 2617WAT    HW1 7850   2.290   2.898   4.113
 2617WAT    HW2 7851   2.305   2.757   4.032
 2618WAT     OW 7852   0.087   3.231   4.451
 2618WAT    HW1 7853   0.153   3.180   4.505
 2618WAT    HW2 7854  -0.001   3.182   4.450
 2619WAT     OW 7855   1.507   4.673   4.268
 2619WAT    HW1 7856   1.429   4.611   4.265
 2619WAT    HW2 7857   1.592   4.621   4.258
 2620WAT     OW 7858   5.766   5.341   3.209
 2620WAT    HW1 7859   5.668   5.328   3.228
 2620WAT    HW2 7860   5.778   5.420   3.150
 2621WAT     OW 7861   0.548   3.144   6.584
 2621WAT    HW1 7862   0.469   3.167   6.526
 2621WAT    HW2 7863   0.580   3.052   6.562
 2622WAT     OW 7864   2.733   4.351   6.530
 2622WAT    HW1 7865   2.690   4.431   6.571
 2622WAT    HW2 7866   2.675   4.315   6.457
 2623WAT     OW 7867   4.165   6.157   1.744
 2623WAT    HW1 7868   4.156   6.208   1.830
 2623WAT    HW2 7869   4.210   6.070   1.761
 2624WAT     OW 7870   1.671   6.248   3.777
 2624WAT    HW1 7871   1.736   6.300   3.832
 2624WAT    HW2 7872   1.593   6.307   3.753
 2625WAT     OW 7873   2.066   3.861   1.309
 2625WAT    HW1 7874   2.074   3.946   1.362
 2625WAT    HW2 7875   2.096   3.784   1.365
 2626WAT     OW 7876   5.558   2.461   1.335
 2626WAT    HW1 7877   5.533   2.368   1.310
 2626WAT    HW2 7878   5.487   2.524   1.302
 2627WAT     OW 7879   5.285   2.560   5.604
 2627WAT    HW1 7880   5.221   2.504   5.552
 2627WAT    HW2 7881   5.353   2.501   5.647
 2628WAT     OW 7882   2.861   0.040   4.904
 2628WAT    HW1 7883   2.820   0.040   4.995
 2628WAT    HW2 7884   2.893  -0.052   4.881
 2629WAT     OW 7885   1.155   5.783   6.142
 2629WAT    HW1 7886   1.163   5.684   6.151
 2629WAT    HW2 7887   1.227   5.817   6.081
 2630WAT     OW 7888   5.762   6.326   2.401
 2630WAT    HW1 7889   5.817   6.406   2.377
 2630WAT    HW2 7890   5.777   6.303   2.498
 2631WAT     OW 7891   2.208   4.024   4.010
 2631WAT    HW1 7892   2.236   3.941   4.057
 2631WAT    HW2 7893   2.143   4.074   4.067
 2632WAT     OW 7894   1.943   5.723   1.143
 2632WAT    HW1 7895   1.982   5.698   1.055
 2632WAT    HW2 7896   1.846   5.700   1.145
 2633WAT     OW 7897   3.280   2.345   4.447
 2633WAT    HW1 7898   3.182   2.352   4.430
 2633WAT    HW2 7899   3.312   2.425   4.497
 2634WAT     OW 7900   4.546   4.810   2.236
 2634WAT    HW1 7901   4.499   4.820   2.148
 2634WAT    HW2 7902   4.535   4.894   2.289
 2635WAT     OW 7903   6.265   4.268   0.997
 2635WAT    HW1 7904   6.210   4.266   0.914
 2635WAT    HW2 7905   6.240   4.349   1.051
 2636WAT     OW 7906   4.436   5.405   1.335
 2636WAT    HW1 7907   4.531   5.409   1.304
 2636WAT    HW2 7908   4.388   5.487   1.302
 2637WAT     OW 7909   6.655   2.879   1.925
 2637WAT    HW1 7910   6.656   2.970   1.965
 2637WAT    HW2 7911   6.565   2.838   1.936
 2638WAT     OW 7912   5.300   3.465   0.934
 2638WAT    HW1 7913   5.399   3.476   0.922
 2638WAT    HW2 7914   5.277   3.368   0.931
 2639WAT     OW 7915   0.699   6.283   6.083
 2639WAT    HW1 7916   0.715   6.363   6.140
 2639WAT    HW2 7917   0.642   6.217   6.132
 2640WAT     OW 7918   0.972   4.646   1.638
 2640WAT    HW1 7919   0.940   4.555   1.665
 2640WAT    HW2 7920   0.895   4.710   1.639
 2641WAT     OW 7921   3.754   1.937   2.544
 2641WAT    HW1 7922   3.732   1.843   2.572
 2641WAT    HW2 7923   3.846   1.960   2.573
 2642WAT     OW 7924   1.399   2.490   3.340
 2642WAT    HW1 7925   1.469   2.545   3.294
 2642WAT    HW2 7926   1.312   2.539   3.340
 2643WAT     OW 7927   3.812   2.879   4.129
 2643WAT    HW1 7928   3.727   2.873   4.182
 2643WAT    HW2 7929   3.880   2.930   4.181
 2644WAT     OW 7930   1.279   5.399   4.390
 2644WAT    HW1 7931   1.213   5.408   4.315
 2644WAT    HW2 7932   1.318   5.307   4.389
 2645WAT     OW 7933   0.947   5.607   6.470
 2645WAT    HW1 7934   0.911   5.518   6.441
 2645WAT    HW2 7935   1.026   5.594   6.529
 2646WAT     OW 7936   4.326   6.578   4.587
 2646WAT    HW1 7937   4.230   6.578   4.561
 2646WAT    HW2 7938   4.361   6.484   4.587
 2647WAT     OW 7939   5.274   2.817   4.851
 2647WAT    HW1 7940   5.226   2.782   4.769
 2647WAT    HW2 7941   5.260   2.753   4.927
 2648WAT     OW 7942   1.154   2.608   3.337
 2648WAT    HW1 7943   1.118   2.623   3.429
 2648WAT    HW2 7944   1.125   2.684   3.278
 2649WAT     OW 7945   4.502   0.408   1.536
 2649WAT    HW1 7946   4.482   0.402   1.634
 2649WAT    HW2 7947   4.523   0.316   1.501
 2650WAT     OW 7948   2.065   6.622   3.054
 2650WAT    HW1 7949   2.004   6.636   3.132
 2650WAT    HW2 7950   2.138   6.560   3.079
 2651WAT     OW 7951   1.578   6.389   0.311
 2651WAT    HW1 7952   1.545   6.418   0.221
 2651WAT    HW2 7953   1.656   6.327   0.301
 2652WAT     OW 7954   3.152   1.954   2.999
 2652WAT    HW1 7955   3.115   1.946   3.092
 2652WAT    HW2 7956   3.108   1.887   2.940
 2653WAT     OW 7957   1.169   4.610   2.331
 2653WAT    HW1 7958   1.198   4.668   2.407
 2653WAT    HW2 7959   1.103   4.659   2.275
 2654WAT     OW 7960   5.433   4.302   1.525
 2654WAT    HW1 7961   5.404   4.360   1.601
 2654WAT    HW2 7962   5.532   4.303   1.518
 2655WAT     OW 7963   1.340   3.583   0.136
 2655WAT    HW1 7964   1.340   3.498   0.083
 2655WAT    HW2 7965   1.246   3.607   0.160
 2656WAT     OW 7966   3.024   1.128   4.898
 2656WAT    HW1 7967   3.100   1.144   4.961
 2656WAT    HW2 7968   2.948   1.189   4.921
 2657WAT     OW 7969   0.272   6.005   2.443
 2657WAT    HW1 7970   0.236   6.092   2.411
 2657WAT    HW2 7971   0.213   5.969   2.515
 2658WAT     OW 7972   0.667   3.869   1.089
 2658WAT    HW1 7973   0.755   3.823   1.081
 2658WAT    HW2 7974   0.619   3.835   1.170
 2659WAT     OW 7975   1.755   0.545   4.798
 2659WAT    HW1 7976   1.686   0.613   4.823
 2659WAT    HW2 7977   1.842   0.591   4.782
 2660WAT     OW 7978   4.779   2.632   1.102
 2660WAT    HW1 7979   4.777   2.670   1.010
 2660WAT    HW2 7980   4.688   2.638   1.144
 2661WAT     OW 7981   5.511   5.814   0.410
 2661WAT    HW1 7982   5.600   5.832   0.452
 2661WAT    HW2 7983   5.442   5.875   0.450
 2662WAT     OW 7984   3.948   0.799   2.674
 2662WAT    HW1 7985   3.959   0.708   2.633
 2662WAT    HW2 7986   3.956   0.792   2.773
 2663WAT     OW 7987   5.326   2.751   0.989
 2663WAT    HW1 7988   5.301   2.683   0.921
 2663WAT    HW2 7989   5.392   2.815   0.949
 2664WAT     OW 7990   1.723   1.437   0.200
 2664WAT    HW1 7991   1.809   1.470   0.162
 2664WAT    HW2 7992   1.667   1.399   0.126
 2665WAT     OW 7993   2.333   3.419   2.625
 2665WAT    HW1 7994   2.278   3.432   2.708
 2665WAT    HW2 7995   2.280   3.448   2.546
 2666WAT     OW 7996   0.788   4.504   1.291
 2666WAT    HW1 7997   0.817   4.423   1.342
 2666WAT    HW2 7998   0.853   4.578   1.306
 2667WAT     OW 7999   6.181   6.336   4.369
 2667WAT    HW1 8000   6.216   6.428   4.385
 2667WAT    HW2 8001   6.138   6.333   4.279
 2668WAT     OW 8002   0.079   1.816   3.381
 2668WAT    HW1 8003   0.132   1.898   3.360
 2668WAT    HW2 8004   0.085   1.751   3.305
 2669WAT     OW 8005   0.829   3.421   1.853
 2669WAT    HW1 8006   0.882   3.459   1.777
 2669WAT    HW2 8007   0.736   3.456   1.850
 2670WAT     OW 8008   4.394   3.303   2.897
 2670WAT    HW1 8009   4.461   3.322   2.968
 2670WAT    HW2 8010   4.332   3.230   2.926
 2671WAT     OW 8011   2.441   2.700   5.603
 2671WAT    HW1 8012   2.506   2.712   5.678
 2671WAT    HW2 8013   2.407   2.606   5.603
 2672WAT     OW 8014   6.619   0.877   5.948
 2672WAT    HW1 8015   6.698   0.934   5.970
 2672WAT    HW2 8016   6.614   0.801   6.012
 2673WAT     OW 8017   2.028   5.018   0.197
 2673WAT    HW1 8018   2.034   5.118   0.191
 2673WAT    HW2 8019   1.932   4.992   0.208
 2674WAT     OW 8020   3.079   5.184   0.168
 2674WAT    HW1 8021   3.168   5.226   0.150
 2674WAT    HW2 8022   3.091   5.110   0.234
 2675WAT     OW 8023   0.376   0.675   4.619
 2675WAT    HW1 8024   0.286   0.632   4.610
 2675WAT    HW2 8025   0.422   0.640   4.701
 2676WAT     OW 8026   5.521   5.819   4.091
 2676WAT    HW1 8027   5.472   5.905   4.073
 2676WAT    HW2 8028   5.526   5.766   4.006
 2677WAT     OW 8029   5.966   1.705   5.520
 2677WAT    HW1 8030   5.895   1.668   5.461
 2677WAT    HW2 8031   5.965   1.658   5.609
 2678WAT     OW 8032   5.582   2.035   2.818
 2678WAT    HW1 8033   5.588   1.935   2.815
 2678WAT    HW2 8034   5.576   2.065   2.913
 2679WAT     OW 8035   1.322   0.121   5.506
 2679WAT    HW1 8036   1.298   0.194   5.570
 2679WAT    HW2 8037   1.305   0.032   5.548
 2680WAT     OW 8038   2.890   3.857   5.149
 2680WAT    HW1 8039   2.803   3.869   5.197
 2680WAT    HW2 8040   2.966   3.869   5.212
 2681WAT     OW 8041   2.328   5.784   3.401
 2681WAT    HW1 8042   2.322   5.708   3.336
 2681WAT    HW2 8043   2.369   5.751   3.486
 2682WAT     OW 8044   3.462   0.322   4.363
 2682WAT    HW1 8045   3.407   0.322   4.280
 2682WAT    HW2 8046   3.408   0.285   4.439
 2683WAT     OW 8047   2.723   6.454   5.703
 2683WAT    HW1 8048   2.657   6.519   5.741
 2683WAT    HW2 8049   2.811   6.465   5.749
 2684WAT     OW 8050   3.475   1.465   2.854
 2684WAT    HW1 8051   3.574   1.453   2.864
 2684WAT    HW2 8052   3.453   1.475   2.757
 2685WAT     OW 8053   3.934   5.351   1.766
 2685WAT    HW1 8054   3.913   5.254   1.779
 2685WAT    HW2 8055   3.999   5.380   1.836
 2686WAT     OW 8056   2.077   6.632   6.073
 2686WAT    HW1 8057   2.043   6.618   5.980
 2686WAT    HW2 8058   2.161   6.581   6.086
 2687WAT     OW 8059   0.611   0.071   1.479
 2687WAT    HW1 8060   0.711   0.060   1.487
 2687WAT    HW2 8061   0.574  -0.007   1.429
 2688WAT     OW 8062   4.493   5.048   2.361
 2688WAT    HW1 8063   4.406   5.098   2.359
 2688WAT    HW2 8064   4.500   4.998   2.448
 2689WAT     OW 8065   1.948   6.447   0.463
 2689WAT    HW1 8066   2.044   6.431   0.441
 2689WAT    HW2 8067   1.917   6.378   0.528
 2690WAT     OW 8068   5.101   0.699   2.434
 2690WAT    HW1 8069   5.056   0.618   2.397
 2690WAT    HW2 8070   5.199   0.695   2.413
 2691WAT     OW 8071   3.147   0.848   2.816
 2691WAT    HW1 8072   3.185   0.803   2.735
 2691WAT    HW2 8073   3.116   0.778   2.881
 2692WAT     OW 8074   0.710   1.870   3.430
 2692WAT    HW1 8075   0.741   1.890   3.337
 2692WAT    HW2 8076   0.612   1.889   3.437
 2693WAT     OW 8077   3.073   5.189   3.543
 2693WAT    HW1 8078   3.121   5.182   3.631
 2693WAT    HW2 8079   2.979   5.159   3.554
 2694WAT     OW 8080   5.553   3.765   4.850
 2694WAT    HW1 8081   5.477   3.829   4.862
 2694WAT    HW2 8082   5.517   3.676   4.823
 2695WAT     OW 8083   0.442   0.077   2.798
 2695WAT    HW1 8084   0.469   0.010   2.730
 2695WAT    HW2 8085   0.431   0.166   2.754
 2696WAT     OW 8086   1.851   6.407   2.609
 2696WAT    HW1 8087   1.871   6.433   2.704
 2696WAT    HW2 8088   1.810   6.316   2.608
 2697WAT     OW 8089   6.478   0.141   3.498
 2697WAT    HW1 8090   6.576   0.126   3.510
 2697WAT    HW2 8091   6.431   0.124   3.585
 2698WAT     OW 8092   2.953   5.995   4.749
 2698WAT    HW1 8093   2.859   6.021   4.767
 2698WAT    HW2 8094   3.014   6.034   4.818
 2699WAT     OW 8095   4.096   0.221   4.379
 2699WAT    HW1 8096   4.192   0.235   4.355
 2699WAT    HW2 8097   4.089   0.195   4.476
 2700WAT     OW 8098   5.683   2.896   3.249
 2700WAT    HW1 8099   5.727   2.806   3.256
 2700WAT    HW2 8100   5.747   2.967   3.278
 2701WAT     OW 8101   1.748   1.442   0.831
 2701WAT    HW1 8102   1.799   1.523   0.860
 2701WAT    HW2 8103   1.700   1.462   0.745
 2702WAT     OW 8104   3.414   0.657   0.225
 2702WAT    HW1 8105   3.367   0.570   0.219
 2702WAT    HW2 8106   3.371   0.723   0.162
 2703WAT     OW 8107   2.999   6.125   1.866
 2703WAT    HW1 8108   2.966   6.072   1.788
 2703WAT    HW2 8109   3.092   6.095   1.889
 2704WAT     OW 8110   1.606   4.853   5.276
 2704WAT    HW1 8111   1.691   4.891   5.310
 2704WAT    HW2 8112   1.593   4.761   5.314
 2705WAT     OW 8113   1.649   0.093   5.190
 2705WAT    HW1 8114   1.571   0.140   5.150
 2705WAT    HW2 8115   1.623   0.053   5.278
 2706WAT     OW 8116   0.257   6.300   0.369
 2706WAT    HW1 8117   0.238   6.206   0.397
 2706WAT    HW2 8118   0.246   6.308   0.270
 2707WAT     OW 8119   5.679   4.620   5.254
 2707WAT    HW1 8120   5.670   4.545   5.188
 2707WAT    HW2 8121   5.597   4.622   5.312
 2708WAT     OW 8122   0.225   4.405   5.775
 2708WAT    HW1 8123   0.223   4.496   5.732
 2708WAT    HW2 8124   0.236   4.336   5.704
 2709WAT     OW 8125   5.902   2.271   4.729
 2709WAT    HW1 8126   5.931   2.245   4.821
 2709WAT    HW2 8127   5.859   2.361   4.732
 2710WAT     OW 8128   0.394   0.143   2.034
 2710WAT    HW1 8129   0.340   0.067   2.000
 2710WAT    HW2 8130   0.486   0.139   1.995
 2711WAT     OW 8131   2.388   0.173   1.291
 2711WAT    HW1 8132   2.435   0.255   1.325
 2711WAT    HW2 8133   2.302   0.199   1.249
 2712WAT     OW 8134   5.157   2.133   3.721
 2712WAT    HW1 8135   5.106   2.184   3.652
 2712WAT    HW2 8136   5.230   2.191   3.757
 2713WAT     OW 8137   1.415   5.312   1.884
 2713WAT    HW1 8138   1.391   5.226   1.929
 2713WAT    HW2 8139   1.488   5.357   1.934
 2714WAT     OW 8140   1.277   5.440   5.371
 2714WAT    HW1 8141   1.253   5.529   5.330
 2714WAT    HW2 8142   1.375   5.424   5.360
 2715WAT     OW 8143   0.987   1.837   5.491
 2715WAT    HW1 8144   0.981   1.796   5.400
 2715WAT    HW2 8145   0.974   1.765   5.560
 2716WAT     OW 8146   1.554   1.319   4.334
 2716WAT    HW1 8147   1.482   1.388   4.320
 2716WAT    HW2 8148   1.598   1.335   4.423
 2717WAT     OW 8149   4.401   4.874   2.013
 2717WAT    HW1 8150   4.401   4.973   2.004
 2717WAT    HW2 8151   4.445   4.833   1.933
 2718WAT     OW 8152   5.181   4.317   4.835
 2718WAT    HW1 8153   5.127   4.252   4.889
 2718WAT    HW2 8154   5.150   4.410   4.855
 2719WAT     OW 8155   1.049   1.090   5.986
 2719WAT    HW1 8156   1.123   1.033   5.951
 2719WAT    HW2 8157   1.028   1.162   5.920
 2720WAT     OW 8158   2.816   5.565   2.640
 2720WAT    HW1 8159   2.770   5.498   2.698
 2720WAT    HW2 8160   2.751   5.635   2.611
 2721WAT     OW 8161   5.667   1.214   6.126
 2721WAT    HW1 8162   5.674   1.260   6.214
 2721WAT    HW2 8163   5.695   1.118   6.137
 2722WAT     OW 8164   0.626   0.822   0.646
 2722WAT    HW1 8165   0.529   0.807   0.628
 2722WAT    HW2 8166   0.651   0.914   0.617
 2723WAT     OW 8167   5.245   0.968   1.701
 2723WAT    HW1 8168   5.308   1.041   1.726
 2723WAT    HW2 8169   5.175   0.958   1.772
 2724WAT     OW 8170   5.032   2.201   2.374
 2724WAT    HW1 8171   5.028   2.149   2.289
 2724WAT    HW2 8172   4.980   2.152   2.445
 2725WAT     OW 8173   1.472   2.980   6.523
 2725WAT    HW1 8174   1.563   2.951   6.496
 2725WAT    HW2 8175   1.478   3.049   6.595
 2726WAT     OW 8176   5.673   5.371   6.069
 2726WAT    HW1 8177   5.643   5.427   5.992
 2726WAT    HW2 8178   5.736   5.301   6.037
 2727WAT     OW 8179   6.651   1.644   1.356
 2727WAT    HW1 8180   6.579   1.577   1.366
 2727WAT    HW2 8181   6.612   1.733   1.332
 2728WAT     OW 8182   0.907   4.499   0.235
 2728WAT    HW1 8183   0.869   4.508   0.143
 2728WAT    HW2 8184   1.006   4.513   0.232
 2729WAT     OW 8185   1.841   4.612   4.658
 2729WAT    HW1 8186   1.846   4.680   4.731
 2729WAT    HW2 8187   1.751   4.568   4.658
 2730WAT     OW 8188   3.778   5.645   2.132
 2730WAT    HW1 8189   3.853   5.629   2.196
 2730WAT    HW2 8190   3.804   5.614   2.041
 2731WAT     OW 8191   3.507   2.679   5.624
 2731WAT    HW1 8192   3.580   2.736   5.661
 2731WAT    HW2 8193   3.512   2.678   5.524
 2732WAT     OW 8194   2.430   5.073   6.253
 2732WAT    HW1 8195   2.354   5.064   6.318
 2732WAT    HW2 8196   2.495   5.141   6.287
 2733WAT     OW 8197   2.376   1.101   4.747
 2733WAT    HW1 8198   2.440   1.037   4.790
 2733WAT    HW2 8199   2.409   1.194   4.759
 2734WAT     OW 8200   1.670   3.726   4.889
 2734WAT    HW1 8201   1.572   3.740   4.900
 2734WAT    HW2 8202   1.716   3.738   4.977
 2735WAT     OW 8203   0.293   5.567   0.339
 2735WAT    HW1 8204   0.328   5.655   0.308
 2735WAT    HW2 8205   0.268   5.511   0.260
 2736WAT     OW 8206   4.776   1.514   1.427
 2736WAT    HW1 8207   4.861   1.490   1.379
 2736WAT    HW2 8208   4.784   1.605   1.466
 2737WAT     OW 8209   4.404   4.243   1.008
 2737WAT    HW1 8210   4.497   4.207   1.002
 2737WAT    HW2 8211   4.394   4.320   0.944
 2738WAT     OW 8212   6.134   3.372   3.241
 2738WAT    HW1 8213   6.047   3.355   3.288
 2738WAT    HW2 8214   6.185   3.443   3.291
 2739WAT     OW 8215   0.935   3.862   0.403
 2739WAT    HW1 8216   0.937   3.879   0.304
 2739WAT    HW2 8217   0.910   3.946   0.451
 2740WAT     OW 8218   3.862   4.846   4.997
 2740WAT    HW1 8219   3.903   4.757   4.977
 2740WAT    HW2 8220   3.771   4.832   5.036
 2741WAT     OW 8221   4.122   3.346   0.679
 2741WAT    HW1 8222   4.205   3.401   0.686
 2741WAT    HW2 8223   4.146   3.251   0.658
 2742WAT     OW 8224   1.049   2.305   6.193
 2742WAT    HW1 8225   1.007   2.250   6.121
 2742WAT    HW2 8226   1.131   2.349   6.158
 2743WAT     OW 8227   5.613   5.999   2.563
 2743WAT    HW1 8228   5.608   6.079   2.623
 2743WAT    HW2 8229   5.524   5.987   2.517
 2744WAT     OW 8230   0.416   3.043   4.573
 2744WAT    HW1 8231   0.484   2.986   4.619
 2744WAT    HW2 8232   0.373   2.990   4.500
 2745WAT     OW 8233   3.060   1.483   2.830
 2745WAT    HW1 8234   2.976   1.429   2.829
 2745WAT    HW2 8235   3.134   1.429   2.869
 2746WAT     OW 8236   5.530   3.231   1.243
 2746WAT    HW1 8237   5.557   3.163   1.311
 2746WAT    HW2 8238   5.547   3.195   1.151
 2747WAT     OW 8239   0.484   4.189   1.100
 2747WAT    HW1 8240   0.449   4.282   1.108
 2747WAT    HW2 8241   0.584   4.191   1.090
 2748WAT     OW 8242   4.406   6.106   2.551
 2748WAT    HW1 8243   4.340   6.141   2.617
 2748WAT    HW2 8244   4.478   6.174   2.537
 2749WAT     OW 8245   1.903   3.745   3.997
 2749WAT    HW1 8246   1.917   3.802   4.078
 2749WAT    HW2 8247   1.952   3.785   3.919
 2750WAT     OW 8248   1.211   3.867   5.211
 2750WAT    HW1 8249   1.269   3.797   5.253
 2750WAT    HW2 8250   1.263   3.913   5.139
 2751WAT     OW 8251   0.254   0.553   0.948
 2751WAT    HW1 8252   0.289   0.499   1.024
 2751WAT    HW2 8253   0.158   0.531   0.933
 2752WAT     OW 8254   2.581   4.240   6.331
 2752WAT    HW1 8255   2.632   4.187   6.263
 2752WAT    HW2 8256   2.530   4.313   6.286
 2753WAT     OW 8257   2.984   4.459   6.521
 2753WAT    HW1 8258   2.894   4.418   6.517
 2753WAT    HW2 8259   3.013   4.470   6.616
 2754WAT     OW 8260   1.968   4.312   3.924
 2754WAT    HW1 8261   1.987   4.256   4.005
 2754WAT    HW2 8262   2.031   4.286   3.850
 2755WAT     OW 8263   1.640   1.805   6.658
 2755WAT    HW1 8264   1.656   1.849   6.746
 2755WAT    HW2 8265   1.582   1.725   6.671
 2756WAT     OW 8266   1.090   0.576   0.238
 2756WAT    HW1 8267   1.148   0.576   0.157
 2756WAT    HW2 8268   1.134   0.628   0.311
 2757WAT     OW 8269   1.342   5.917   5.674
 2757WAT    HW1 8270   1.314   6.009   5.649
 2757WAT    HW2 8271   1.344   5.908   5.774
 2758WAT     OW 8272   0.985   3.682   0.838
 2758WAT    HW1 8273   0.965   3.594   0.795
 2758WAT    HW2 8274   0.935   3.754   0.791
 2759WAT     OW 8275   0.601   0.246   3.664
 2759WAT    HW1 8276   0.668   0.316   3.689
 2759WAT    HW2 8277   0.525   0.289   3.616
 2760WAT     OW 8278   2.688   2.918   0.666
 2760WAT    HW1 8279   2.777   2.947   0.630
 2760WAT    HW2 8280   2.698   2.894   0.762
 2761WAT     OW 8281   2.488   0.659   3.539
 2761WAT    HW1 8282   2.538   0.743   3.558
 2761WAT    HW2 8283   2.471   0.610   3.624
 2762WAT     OW 8284   4.119   6.555   5.936
 2762WAT    HW1 8285   4.156   6.639   5.896
 2762WAT    HW2 8286   4.177   6.526   6.012
 2763WAT     OW 8287   0.972   1.396   1.966
 2763WAT    HW1 8288   0.881   1.361   1.986
 2763WAT    HW2 8289   0.984   1.405   1.867
 2764WAT     OW 8290   2.705   2.400   4.488
 2764WAT    HW1 8291   2.665   2.490   4.507
 2764WAT    HW2 8292   2.740   2.398   4.395
 2765WAT     OW 8293   2.076   4.443   0.347
 2765WAT    HW1 8294   2.138   4.508   0.303
 2765WAT    HW2 8295   2.075   4.357   0.296
 2766WAT     OW 8296   6.451   4.080   3.755
 2766WAT    HW1 8297   6.505   4.160   3.730
 2766WAT    HW2 8298   6.421   4.032   3.673
 2767WAT     OW 8299   2.730   3.885   0.948
 2767WAT    HW1 8300   2.686   3.828   0.879
 2767WAT    HW2 8301   2.776   3.961   0.903
 2768WAT     OW 8302   4.063   6.566   4.522
 2768WAT    HW1 8303   4.057   6.552   4.423
 2768WAT    HW2 8304   4.025   6.487   4.570
 2769WAT     OW 8305   5.556   4.815   2.292
 2769WAT    HW1 8306   5.634   4.818   2.229
 2769WAT    HW2 8307   5.480   4.768   2.247
 2770WAT     OW 8308   0.946   1.571   6.483
 2770WAT    HW1 8309   0.922   1.507   6.556
 2770WAT    HW2 8310   0.864   1.618   6.451
 2771WAT     OW 8311   1.492   4.826   6.596
 2771WAT    HW1 8312   1.569   4.767   6.571
 2771WAT    HW2 8313   1.527   4.912   6.634
 2772WAT     OW 8314   3.375   2.082   4.442
 2772WAT    HW1 8315   3.296   2.023   4.424
 2772WAT    HW2 8316   3.344   2.177   4.451
 2773WAT     OW 8317   2.132   4.978   1.634
 2773WAT    HW1 8318   2.225   4.952   1.605
 2773WAT    HW2 8319   2.137   5.036   1.715
 2774WAT     OW 8320   1.372   0.823   2.484
 2774WAT    HW1 8321   1.306   0.823   2.559
 2774WAT    HW2 8322   1.384   0.730   2.450
 2775WAT     OW 8323   6.015   4.369   6.012
 2775WAT    HW1 8324   5.993   4.374   5.915
 2775WAT    HW2 8325   5.940   4.324   6.061
 2776WAT     OW 8326   2.517   4.402   4.528
 2776WAT    HW1 8327   2.559   4.337   4.592
 2776WAT    HW2 8328   2.422   4.377   4.513
 2777WAT     OW 8329   4.541   1.726   0.830
 2777WAT    HW1 8330   4.512   1.821   0.818
 2777WAT    HW2 8331   4.460   1.668   0.838
 2778WAT     OW 8332   5.701   5.305   5.579
 2778WAT    HW1 8333   5.613   5.285   5.537
 2778WAT    HW2 8334   5.726   5.231   5.642
 2779WAT     OW 8335   5.562   3.919   4.575
 2779WAT    HW1 8336   5.622   3.878   4.643
 2779WAT    HW2 8337   5.562   4.018   4.586
 2780WAT     OW 8338   0.598   0.458   0.237
 2780WAT    HW1 8339   0.670   0.525   0.253
 2780WAT    HW2 8340   0.509   0.503   0.240
 2781WAT     OW 8341   1.412   1.312   5.203
 2781WAT    HW1 8342   1.462   1.304   5.289
 2781WAT    HW2 8343   1.382   1.406   5.190
 2782WAT     OW 8344   0.174   4.686   4.768
 2782WAT    HW1 8345   0.210   4.694   4.675
 2782WAT    HW2 8346   0.250   4.673   4.832
 2783WAT     OW 8347   6.440   6.655   2.523
 2783WAT    HW1 8348   6.420   6.717   2.447
 2783WAT    HW2 8349   6.445   6.707   2.608
 2784WAT     OW 8350   0.166   6.098   1.223
 2784WAT    HW1 8351   0.182   6.025   1.157
 2784WAT    HW2 8352   0.248   6.156   1.229
 2785WAT     OW 8353   6.356   4.397   1.893
 2785WAT    HW1 8354   6.449   4.363   1.906
 2785WAT    HW2 8355   6.358   4.479   1.836
 2786WAT     OW 8356   3.866   0.116   0.210
 2786WAT    HW1 8357   3.833   0.196   0.260
 2786WAT    HW2 8358   3.862   0.133   0.112
 2787WAT     OW 8359   4.404   4.690   4.562
 2787WAT    HW1 8360   4.485   4.648   4.522
 2787WAT    HW2 8361   4.415   4.697   4.661
 2788WAT     OW 8362   2.431   0.318   4.453
 2788WAT    HW1 8363   2.367   0.344   4.526
 2788WAT    HW2 8364   2.495   0.250   4.487
 2789WAT     OW 8365   3.477   4.780   2.213
 2789WAT    HW1 8366   3.456   4.735   2.126
 2789WAT    HW2 8367   3.453   4.877   2.207
 2790WAT     OW 8368   4.902   3.976   4.862
 2790WAT    HW1 8369   4.846   3.935   4.933
 2790WAT    HW2 8370   4.970   4.036   4.904
 2791WAT     OW 8371   3.736   1.565   0.473
 2791WAT    HW1 8372   3.703   1.507   0.548
 2791WAT    HW2 8373   3.826   1.603   0.498
 2792WAT     OW 8374   1.243   5.692   5.246
 2792WAT    HW1 8375   1.176   5.765   5.253
 2792WAT    HW2 8376   1.233   5.645   5.158
 2793WAT     OW 8377   3.263   2.991   2.544
 2793WAT    HW1 8378   3.173   2.949   2.559
 2793WAT    HW2 8379   3.251   3.076   2.493
 2794WAT     OW 8380   4.208   6.168   5.840
 2794WAT    HW1 8381   4.152   6.135   5.916
 2794WAT    HW2 8382   4.241   6.090   5.787
 2795WAT     OW 8383   0.871   0.536   2.204
 2795WAT    HW1 8384   0.778   0.564   2.226
 2795WAT    HW2 8385   0.920   0.511   2.288
 2796WAT     OW 8386   3.352   4.752   3.971
 2796WAT    HW1 8387   3.348   4.665   4.019
 2796WAT    HW2 8388   3.432   4.753   3.911
 2797WAT     OW 8389   4.852   4.108   4.253
 2797WAT    HW1 8390   4.844   4.026   4.311
 2797WAT    HW2 8391   4.918   4.171   4.293
 2798WAT     OW 8392   0.147   1.207   2.643
 2798WAT    HW1 8393   0.149   1.188   2.741
 2798WAT    HW2 8394   0.152   1.120   2.593
 2799WAT     OW 8395   1.398   1.659   0.236
 2799WAT    HW1 8396   1.424   1.635   0.142
 2799WAT    HW2 8397   1.477   1.649   0.296
 2800WAT     OW 8398   0.670   2.017   5.334
 2800WAT    HW1 8399   0.707   2.089   5.393
 2800WAT    HW2 8400   0.742   1.985   5.272
 2801WAT     OW 8401   2.120   3.062   1.827
 2801WAT    HW1 8402   2.179   3.020   1.896
 2801WAT    HW2 8403   2.090   2.992   1.762
 2802WAT     OW 8404   5.340   4.427   1.102
 2802WAT    HW1 8405   5.272   4.457   1.036
 2802WAT    HW2 8406   5.388   4.347   1.066
 2803WAT     OW 8407   1.159   1.810   3.806
 2803WAT    HW1 8408   1.124   1.716   3.806
 2803WAT    HW2 8409   1.118   1.860   3.729
 2804WAT     OW 8410   5.379   6.266   1.481
 2804WAT    HW1 8411   5.361   6.349   1.534
 2804WAT    HW2 8412   5.417   6.291   1.391
 2805WAT     OW 8413   5.226   3.594   5.086
 2805WAT    HW1 8414   5.210   3.671   5.147
 2805WAT    HW2 8415   5.230   3.626   4.991
 2806WAT     OW 8416   5.173   5.741   6.003
 2806WAT    HW1 8417   5.171   5.671   5.932
 2806WAT    HW2 8418   5.126   5.823   5.970
 2807WAT     OW 8419   5.305   6.153   2.295
 2807WAT    HW1 8420   5.321   6.072   2.352
 2807WAT    HW2 8421   5.376   6.221   2.314
 2808WAT     OW 8422   4.103   3.560   1.436
 2808WAT    HW1 8423   4.020   3.577   1.383
 2808WAT    HW2 8424   4.125   3.462   1.432
 2809WAT     OW 8425   6.561   2.181   0.350
 2809WAT    HW1 8426   6.496   2.118   0.308
 2809WAT    HW2 8427   6.513   2.237   0.418
 2810WAT     OW 8428   4.025   5.453   0.275
 2810WAT    HW1 8429   3.962   5.526   0.299
 2810WAT    HW2 8430   4.102   5.492   0.224
 2811WAT     OW 8431   3.843   5.594   1.362
 2811WAT    HW1 8432   3.811   5.555   1.276
 2811WAT    HW2 8433   3.805   5.541   1.438
 2812WAT     OW 8434   6.012   5.048   1.763
 2812WAT    HW1 8435   5.995   5.024   1.667
 2812WAT    HW2 8436   6.088   5.113   1.768
 2813WAT     OW 8437   5.366   5.042   4.226
 2813WAT    HW1 8438   5.351   5.087   4.138
 2813WAT    HW2 8439   5.423   5.101   4.284
 2814WAT     OW 8440   1.950   0.185   2.738
 2814WAT    HW1 8441   1.910   0.112   2.682
 2814WAT    HW2 8442   2.013   0.239   2.682
 2815WAT     OW 8443   0.822   0.630   0.267
 2815WAT    HW1 8444   0.917   0.607   0.247
 2815WAT    HW2 8445   0.814   0.657   0.363
 2816WAT     OW 8446   6.092   6.335   4.109
 2816WAT    HW1 8447   6.177   6.375   4.074
 2816WAT    HW2 8448   6.018   6.400   4.098
 2817WAT     OW 8449   0.655   2.425   0.771
 2817WAT    HW1 8450   0.618   2.404   0.681
 2817WAT    HW2 8451   0.738   2.480   0.761
 2818WAT     OW 8452   2.661   0.486   6.118
 2818WAT    HW1 8453   2.681   0.575   6.159
 2818WAT    HW2 8454   2.744   0.431   6.113
 2819WAT     OW 8455   0.238   2.005   1.918
 2819WAT    HW1 8456   0.260   2.097   1.950
 2819WAT    HW2 8457   0.198   1.952   1.993
 2820WAT     OW 8458   3.676   4.227   1.966
 2820WAT    HW1 8459   3.762   4.209   1.917
 2820WAT    HW2 8460   3.670   4.166   2.044
 2821WAT     OW 8461   1.048   4.645   0.673
 2821WAT    HW1 8462   0.950   4.641   0.657
 2821WAT    HW2 8463   1.095   4.579   0.614
 2822WAT     OW 8464   1.468   6.472   0.065
 2822WAT    HW1 8465   1.553   6.505   0.023
 2822WAT    HW2 8466   1.390   6.496   0.007
 2823WAT     OW 8467   6.461   0.752   5.219
 2823WAT    HW1 8468   6.435   0.674   5.275
 2823WAT    HW2 8469   6.454   0.836   5.273
 2824WAT     OW 8470   1.938   5.626   3.132
 2824WAT    HW1 8471   2.029   5.593   3.106
 2824WAT    HW2 8472   1.937   5.645   3.230
 2825WAT     OW 8473   5.948   2.771   2.047
 2825WAT    HW1 8474   5.850   2.790   2.038
 2825WAT    HW2 8475   5.996   2.856   2.068
 2826WAT     OW 8476   6.163   5.719   3.912
 2826WAT    HW1 8477   6.235   5.788   3.902
 2826WAT    HW2 8478   6.099   5.747   3.984
 2827WAT     OW 8479   4.643   0.882   2.551
 2827WAT    HW1 8480   4.711   0.923   2.489
 2827WAT    HW2 8481   4.688   0.857   2.637
 2828WAT     OW 8482   6.597   3.687   2.443
 2828WAT    HW1 8483   6.502   3.714   2.433
 2828WAT    HW2 8484   6.605   3.588   2.433
 2829WAT     OW 8485   4.532   2.575   3.753
 2829WAT    HW1 8486   4.554   2.488   3.709
 2829WAT    HW2 8487   4.465   2.624   3.696
 2830WAT     OW 8488   3.678   2.863   6.306
 2830WAT    HW1 8489   3.589   2.895   6.338
 2830WAT    HW2 8490   3.688   2.766   6.327
 2831WAT     OW 8491   2.570   6.456   0.239
 2831WAT    HW1 8492   2.551   6.372   0.189
 2831WAT    HW2 8493   2.522   6.454   0.327
 2832WAT     OW 8494   0.373   4.240   3.690
 2832WAT    HW1 8495   0.386   4.318   3.629
 2832WAT    HW2 8496   0.355   4.158   3.637
 2833WAT     OW 8497   1.607   5.599   6.130
 2833WAT    HW1 8498   1.671   5.572   6.058
 2833WAT    HW2 8499   1.513   5.589   6.097
 2834WAT     OW 8500   3.312   3.150   2.768
 2834WAT    HW1 8501   3.390   3.135   2.828
 2834WAT    HW2 8502   3.316   3.087   2.691
 2835WAT     OW 8503   2.927   4.669   1.730
 2835WAT    HW1 8504   2.931   4.717   1.817
 2835WAT    HW2 8505   2.851   4.604   1.732
 2836WAT     OW 8506   0.713   3.188   1.461
 2836WAT    HW1 8507   0.699   3.135   1.544
 2836WAT    HW2 8508   0.735   3.283   1.484
 2837WAT     OW 8509   1.395   4.147   0.589
 2837WAT    HW1 8510   1.451   4.064   0.580
 2837WAT    HW2 8511   1.426   4.215   0.523
 2838WAT     OW 8512   2.893   0.344   1.907
 2838WAT    HW1 8513   2.865   0.431   1.867
 2838WAT    HW2 8514   2.842   0.329   1.992
 2839WAT     OW 8515   3.252   4.804   5.373
 2839WAT    HW1 8516   3.189   4.862   5.321
 2839WAT    HW2 8517   3.298   4.859   5.442
 2840WAT     OW 8518   1.832   2.107   4.007
 2840WAT    HW1 8519   1.756   2.059   3.964
 2840WAT    HW2 8520   1.834   2.086   4.105
 2841WAT     OW 8521   1.085   5.103   3.846
 2841WAT    HW1 8522   1.044   5.162   3.776
 2841WAT    HW2 8523   1.027   5.103   3.928
 2842WAT     OW 8524   0.022   2.861   5.970
 2842WAT    HW1 8525   0.073   2.945   5.986
 2842WAT    HW2 8526  -0.071   2.872   6.005
 2843WAT     OW 8527   0.026   6.373   1.511
 2843WAT    HW1 8528   0.011   6.279   1.479
 2843WAT    HW2 8529   0.121   6.400   1.492
 2844WAT     OW 8530   5.182   1.884   4.094
 2844WAT    HW1 8531   5.264   1.862   4.146
 2844WAT    HW2 8532   5.203   1.886   3.997
 2845WAT     OW 8533   5.911   1.270   2.715
 2845WAT    HW1 8534   5.945   1.359   2.685
 2845WAT    HW2 8535   5.986   1.218   2.756
 2846WAT     OW 8536   4.522   2.344   1.402
 2846WAT    HW1 8537   4.476   2.391   1.327
 2846WAT    HW2 8538   4.454   2.300   1.460
 2847WAT     OW 8539   1.659   2.357   1.299
 2847WAT    HW1 8540   1.649   2.345   1.398
 2847WAT    HW2 8541   1.684   2.451   1.279
 2848WAT     OW 8542   0.487   2.713   6.537
 2848WAT    HW1 8543   0.560   2.782   6.542
 2848WAT    HW2 8544   0.402   2.758   6.512
 2849WAT     OW 8545   3.579   5.830   5.216
 2849WAT    HW1 8546   3.676   5.804   5.224
 2849WAT    HW2 8547   3.545   5.801   5.127
 2850WAT     OW 8548   1.216   4.435   3.549
 2850WAT    HW1 8549   1.120   4.427   3.524
 2850WAT    HW2 8550   1.244   4.353   3.599
 2851WAT     OW 8551   3.742   2.554   1.478
 2851WAT    HW1 8552   3.766   2.639   1.431
 2851WAT    HW2 8553   3.763   2.563   1.575
 2852WAT     OW 8554   0.646   2.057   4.293
 2852WAT    HW1 8555   0.580   2.073   4.366
 2852WAT    HW2 8556   0.733   2.099   4.316
 2853WAT     OW 8557   5.453   3.698   2.171
 2853WAT    HW1 8558   5.355   3.717   2.161
 2853WAT    HW2 8559   5.465   3.609   2.214
 2854WAT     OW 8560   4.432   3.150   4.955
 2854WAT    HW1 8561   4.395   3.175   4.866
 2854WAT    HW2 8562   4.504   3.215   4.981
 2855WAT     OW 8563   5.509   2.287   2.418
 2855WAT    HW1 8564   5.580   2.217   2.414
 2855WAT    HW2 8565   5.531   2.361   2.355
 2856WAT     OW 8566   3.811   0.442   1.784
 2856WAT    HW1 8567   3.780   0.406   1.695
 2856WAT    HW2 8568   3.744   0.420   1.854
 2857WAT     OW 8569   4.327   0.479   5.473
 2857WAT    HW1 8570   4.311   0.382   5.450
 2857WAT    HW2 8571   4.346   0.529   5.389
 2858WAT     OW 8572   6.043   3.896   2.189
 2858WAT    HW1 8573   5.985   3.814   2.181
 2858WAT    HW2 8574   5.997   3.964   2.246
 2859WAT     OW 8575   3.853   3.734   4.342
 2859WAT    HW1 8576   3.854   3.669   4.265
 2859WAT    HW2 8577   3.763   3.735   4.384
 2860WAT     OW 8578   1.345   5.084   2.026
 2860WAT    HW1 8579   1.414   5.038   1.969
 2860WAT    HW2 8580   1.257   5.039   2.015
 2861WAT     OW 8581   0.027   4.633   2.232
 2861WAT    HW1 8582   0.055   4.543   2.267
 2861WAT    HW2 8583  -0.070   4.630   2.207
 2862WAT     OW 8584   2.111   3.600   6.686
 2862WAT    HW1 8585   2.030   3.617   6.629
 2862WAT    HW2 8586   2.192   3.640   6.642
 2863WAT     OW 8587   6.115   3.668   3.028
 2863WAT    HW1 8588   6.101   3.738   2.958
 2863WAT    HW2 8589   6.120   3.578   2.985
 2864WAT     OW 8590   4.877   2.273   0.613
 2864WAT    HW1 8591   4.887   2.297   0.517
 2864WAT    HW2 8592   4.951   2.210   0.639
 2865WAT     OW 8593   5.742   1.946   0.334
 2865WAT    HW1 8594   5.676   1.902   0.396
 2865WAT    HW2 8595   5.697   2.019   0.284
 2866WAT     OW 8596   6.038   4.986   4.738
 2866WAT    HW1 8597   6.119   5.024   4.782
 2866WAT    HW2 8598   6.065   4.918   4.670
 2867WAT     OW 8599   4.607   3.536   0.769
 2867WAT    HW1 8600   4.691   3.483   0.775
 2867WAT    HW2 8601   4.587   3.576   0.859
 2868WAT     OW 8602   0.532   4.863   4.044
 2868WAT    HW1 8603   0.549   4.800   3.968
 2868WAT    HW2 8604   0.434   4.875   4.056
 2869WAT     OW 8605   0.223   2.694   1.635
 2869WAT    HW1 8606   0.149   2.642   1.678
 2869WAT    HW2 8607   0.272   2.747   1.704
 2870WAT     OW 8608   2.729   2.228   4.916
 2870WAT    HW1 8609   2.743   2.327   4.924
 2870WAT    HW2 8610   2.741   2.185   5.005
 2871WAT     OW 8611   5.198   6.111   1.346
 2871WAT    HW1 8612   5.262   6.153   1.410
 2871WAT    HW2 8613   5.138   6.181   1.308
 2872WAT     OW 8614   1.104   5.446   1.551
 2872WAT    HW1 8615   1.138   5.353   1.541
 2872WAT    HW2 8616   1.113   5.495   1.464
 2873WAT     OW 8617   2.718   1.072   1.656
 2873WAT    HW1 8618   2.762   1.050   1.743
 2873WAT    HW2 8619   2.620   1.054   1.663
 2874WAT     OW 8620   2.532   0.264   3.811
 2874WAT    HW1 8621   2.513   0.200   3.736
 2874WAT    HW2 8622   2.631   0.269   3.825
 2875WAT     OW 8623   1.738   5.125   3.637
 2875WAT    HW1 8624   1.655   5.133   3.693
 2875WAT    HW2 8625   1.797   5.205   3.653
 2876WAT     OW 8626   4.815   6.469   2.242
 2876WAT    HW1 8627   4.826   6.520   2.157
 2876WAT    HW2 8628   4.745   6.398   2.230
 2877WAT     OW 8629   4.919   0.529   2.971
 2877WAT    HW1 8630   4.921   0.521   2.871
 2877WAT    HW2 8631   5.008   0.558   3.005
 2878WAT     OW 8632   3.895   1.737   4.108
 2878WAT    HW1 8633   3.957   1.711   4.182
 2878WAT    HW2 8634   3.921   1.689   4.024
 2879WAT     OW 8635   4.622   3.759   2.636
 2879WAT    HW1 8636   4.673   3.775   2.551
 2879WAT    HW2 8637   4.535   3.713   2.614
 2880WAT     OW 8638   3.205   6.573   1.160
 2880WAT    HW1 8639   3.151   6.621   1.229
 2880WAT    HW2 8640   3.298   6.610   1.157
 2881WAT     OW 8641   6.633   3.182   6.231
 2881WAT    HW1 8642   6.659   3.159   6.137
 2881WAT    HW2 8643   6.660   3.277   6.250
 2882WAT     OW 8644   1.620   6.066   4.190
 2882WAT    HW1 8645   1.677   6.002   4.241
 2882WAT    HW2 8646   1.529   6.027   4.179
 2883WAT     OW 8647   6.464   5.134   1.749
 2883WAT    HW1 8648   6.515   5.105   1.668
 2883WAT    HW2 8649   6.494   5.081   1.828
 2884WAT     OW 8650   3.151   1.146   2.238
 2884WAT    HW1 8651   3.156   1.243   2.212
 2884WAT    HW2 8652   3.235   1.099   2.210
 2885WAT     OW 8653   1.853   1.425   6.389
 2885WAT    HW1 8654   1.844   1.524   6.399
 2885WAT    HW2 8655   1.796   1.393   6.313
 2886WAT     OW 8656   3.550   1.803   3.381
 2886WAT    HW1 8657   3.477   1.734   3.375
 2886WAT    HW2 8658   3.637   1.757   3.397
 2887WAT     OW 8659   5.203   3.667   1.671
 2887WAT    HW1 8660   5.258   3.734   1.721
 2887WAT    HW2 8661   5.249   3.643   1.586
 2888WAT     OW 8662   6.336   4.609   6.428
 2888WAT    HW1 8663   6.325   4.696   6.379
 2888WAT    HW2 8664   6.305   4.620   6.522
 2889WAT     OW 8665   1.688   1.542   2.980
 2889WAT    HW1 8666   1.662   1.462   2.927
 2889WAT    HW2 8667   1.783   1.533   3.011
 2890WAT     OW 8668   2.304   0.149   5.654
 2890WAT    HW1 8669   2.325   0.057   5.619
 2890WAT    HW2 8670   2.329   0.217   5.586
 2891WAT     OW 8671   0.086   5.305   4.992
 2891WAT    HW1 8672   0.114   5.219   5.035
 2891WAT    HW2 8673  -0.014   5.314   4.999
 2892WAT     OW 8674   0.894   1.395   0.008
 2892WAT    HW1 8675   0.992   1.384  -0.010
 2892WAT    HW2 8676   0.880   1.414   0.105
 2893WAT     OW 8677   4.416   2.619   4.439
 2893WAT    HW1 8678   4.392   2.709   4.476
 2893WAT    HW2 8679   4.351   2.551   4.473
 2894WAT     OW 8680   0.435   1.920   6.495
 2894WAT    HW1 8681   0.475   1.846   6.548
 2894WAT    HW2 8682   0.346   1.892   6.460
 2895WAT     OW 8683   5.971   0.423   6.350
 2895WAT    HW1 8684   5.995   0.518   6.333
 2895WAT    HW2 8685   5.911   0.390   6.278
 2896WAT     OW 8686   0.222   2.793   2.306
 2896WAT    HW1 8687   0.261   2.704   2.331
 2896WAT    HW2 8688   0.294   2.863   2.309
 2897WAT     OW 8689   2.241   0.681   2.310
 2897WAT    HW1 8690   2.304   0.651   2.381
 2897WAT    HW2 8691   2.156   0.712   2.352
 2898WAT     OW 8692   1.656   0.289   1.433
 2898WAT    HW1 8693   1.731   0.266   1.495
 2898WAT    HW2 8694   1.571   0.249   1.468
 2899WAT     OW 8695   0.538   1.006   4.827
 2899WAT    HW1 8696   0.504   0.985   4.736
 2899WAT    HW2 8697   0.595   0.930   4.859
 2900WAT     OW 8698   6.163   0.687   5.865
 2900WAT    HW1 8699   6.065   0.670   5.851
 2900WAT    HW2 8700   6.194   0.757   5.802
 2901WAT     OW 8701   4.718   6.490   3.821
 2901WAT    HW1 8702   4.774   6.572   3.831
 2901WAT    HW2 8703   4.730   6.452   3.729
 2902WAT     OW 8704   3.443   4.120   3.081
 2902WAT    HW1 8705   3.516   4.181   3.051
 2902WAT    HW2 8706   3.477   4.026   3.083
 2903WAT     OW 8707   2.990   0.823   5.121
 2903WAT    HW1 8708   3.002   0.751   5.189
 2903WAT    HW2 8709   3.052   0.808   5.045
 2904WAT     OW 8710   6.456   6.116   5.261
 2904WAT    HW1 8711   6.400   6.179   5.207
 2904WAT    HW2 8712   6.426   6.022   5.245
 2905WAT     OW 8713   5.670   4.568   2.081
 2905WAT    HW1 8714   5.766   4.588   2.096
 2905WAT    HW2 8715   5.635   4.514   2.158
 2906WAT     OW 8716   1.513   2.125   1.244
 2906WAT    HW1 8717   1.466   2.090   1.325
 2906WAT    HW2 8718   1.577   2.197   1.271
 2907WAT     OW 8719   4.133   0.610   0.461
 2907WAT    HW1 8720   4.091   0.700   0.476
 2907WAT    HW2 8721   4.223   0.607   0.504
 2908WAT     OW 8722   3.804   2.468   6.145
 2908WAT    HW1 8723   3.792   2.474   6.045
 2908WAT    HW2 8724   3.901   2.458   6.166
 2909WAT     OW 8725   4.355   0.699   4.364
 2909WAT    HW1 8726   4.393   0.633   4.299
 2909WAT    HW2 8727   4.378   0.792   4.333
 2910WAT     OW 8728   4.805   4.998   4.060
 2910WAT    HW1 8729   4.743   5.003   4.138
 2910WAT    HW2 8730   4.886   4.945   4.084
 2911WAT     OW 8731   4.529   1.732   5.043
 2911WAT    HW1 8732   4.517   1.817   5.094
 2911WAT    HW2 8733   4.449   1.674   5.055
 2912WAT     OW 8734   5.241   1.186   0.425
 2912WAT    HW1 8735   5.217   1.095   0.458
 2912WAT    HW2 8736   5.159   1.243   0.423
 2913WAT     OW 8737   0.131   5.064   5.126
 2913WAT    HW1 8738   0.187   4.995   5.173
 2913WAT    HW2 8739   0.073   5.018   5.059
 2914WAT     OW 8740   6.419   4.716   1.498
 2914WAT    HW1 8741   6.404   4.678   1.589
 2914WAT    HW2 8742   6.340   4.772   1.473
 2915WAT     OW 8743   3.235   3.830   3.929
 2915WAT    HW1 8744   3.317   3.887   3.924
 2915WAT    HW2 8745   3.168   3.863   3.862
 2916WAT     OW 8746   4.975   6.421   3.131
 2916WAT    HW1 8747   4.884   6.461   3.141
 2916WAT    HW2 8748   4.986   6.346   3.195
 2917WAT     OW 8749   3.002   3.603   5.852
 2917WAT    HW1 8750   2.983   3.528   5.915
 2917WAT    HW2 8751   2.991   3.570   5.758
 2918WAT     OW 8752   0.920   4.312   1.447
 2918WAT    HW1 8753   0.897   4.225   1.405
 2918WAT    HW2 8754   1.018   4.314   1.467
 2919WAT     OW 8755   5.854   4.528   1.270
 2919WAT    HW1 8756   5.780   4.569   1.323
 2919WAT    HW2 8757   5.942   4.563   1.303
 2920WAT     OW 8758   3.724   3.964   1.537
 2920WAT    HW1 8759   3.755   3.893   1.601
 2920WAT    HW2 8760   3.769   4.050   1.559
 2921WAT     OW 8761   1.451   0.681   2.113
 2921WAT    HW1 8762   1.542   0.649   2.139
 2921WAT    HW2 8763   1.424   0.639   2.027
 2922WAT     OW 8764   2.042   5.474   4.602
 2922WAT    HW1 8765   2.101   5.500   4.526
 2922WAT    HW2 8766   2.071   5.384   4.637
 2923WAT     OW 8767   1.772   3.227   3.650
 2923WAT    HW1 8768   1.795   3.318   3.685
 2923WAT    HW2 8769   1.846   3.193   3.592
 2924WAT     OW 8770   6.522   0.654   0.749
 2924WAT    HW1 8771   6.515   0.743   0.705
 2924WAT    HW2 8772   6.431   0.614   0.760
 2925WAT     OW 8773   2.788   4.645   0.827
 2925WAT    HW1 8774   2.720   4.621   0.897
 2925WAT    HW2 8775   2.789   4.573   0.757
 2926WAT     OW 8776   4.525   3.945   5.341
 2926WAT    HW1 8777   4.473   3.979   5.419
 2926WAT    HW2 8778   4.525   3.845   5.342
 2927WAT     OW 8779   6.101   2.779   0.795
 2927WAT    HW1 8780   6.012   2.816   0.766
 2927WAT    HW2 8781   6.136   2.718   0.725
 2928WAT     OW 8782   1.226   3.315   3.549
 2928WAT    HW1 8783   1.187   3.235   3.502
 2928WAT    HW2 8784   1.303   3.351   3.496
 2929WAT     OW 8785   4.656   4.765   1.377
 2929WAT    HW1 8786   4.574   4.783   1.323
 2929WAT    HW2 8787   4.703   4.851   1.396
 2930WAT     OW 8788   5.885   2.681   6.175
 2930WAT    HW1 8789   5.872   2.612   6.247
 2930WAT    HW2 8790   5.860   2.641   6.087
 2931WAT     OW 8791   2.464   0.759   6.664
 2931WAT    HW1 8792   2.391   0.732   6.602
 2931WAT    HW2 8793   2.439   0.737   6.758
 2932WAT     OW 8794   2.656   0.860   3.612
 2932WAT    HW1 8795   2.740   0.849   3.559
 2932WAT    HW2 8796   2.641   0.957   3.632
 2933WAT     OW 8797   4.146   5.242   3.099
 2933WAT    HW1 8798   4.183   5.255   3.192
 2933WAT    HW2 8799   4.138   5.331   3.054
 2934WAT     OW 8800   2.113   4.469   0.613
 2934WAT    HW1 8801   2.093   4.453   0.517
 2934WAT    HW2 8802   2.146   4.383   0.655
 2935WAT     OW 8803   5.881   1.618   3.396
 2935WAT    HW1 8804   5.892   1.529   3.352
 2935WAT    HW2 8805   5.848   1.684   3.328
 2936WAT     OW 8806   6.038   0.737   4.817
 2936WAT    HW1 8807   6.081   0.771   4.901
 2936WAT    HW2 8808   5.975   0.807   4.782
 2937WAT     OW 8809   5.754   0.877   1.925
 2937WAT    HW1 8810   5.688   0.818   1.971
 2937WAT    HW2 8811   5.738   0.874   1.826
 2938WAT     OW 8812   4.258   6.440   2.437
 2938WAT    HW1 8813   4.192   6.511   2.416
 2938WAT    HW2 8814   4.350   6.474   2.421
 2939WAT     OW 8815   5.721   6.461   3.564
 2939WAT    HW1 8816   5.713   6.453   3.465
 2939WAT    HW2 8817   5.759   6.550   3.587
 2940WAT     OW 8818   3.287   0.678   1.984
 2940WAT    HW1 8819   3.245   0.700   1.896
 2940WAT    HW2 8820   3.219   0.690   2.057
 2941WAT     OW 8821   3.790   1.224   4.653
 2941WAT    HW1 8822   3.694   1.205   4.675
 2941WAT    HW2 8823   3.802   1.323   4.641
 2942WAT     OW 8824   3.970   5.873   4.567
 2942WAT    HW1 8825   3.878   5.913   4.569
 2942WAT    HW2 8826   3.966   5.781   4.528
 2943WAT     OW 8827   1.347   2.715   4.957
 2943WAT    HW1 8828   1.331   2.810   4.984
 2943WAT    HW2 8829   1.415   2.674   5.018
 2944WAT     OW 8830   1.799   1.015   0.102
 2944WAT    HW1 8831   1.789   1.105   0.060
 2944WAT    HW2 8832   1.711   0.968   0.101
 2945WAT     OW 8833   3.329   2.681   6.455
 2945WAT    HW1 8834   3.231   2.692   6.472
 2945WAT    HW2 8835   3.345   2.595   6.405
 2946WAT     OW 8836   1.094   5.249   1.192
 2946WAT    HW1 8837   1.021   5.312   1.167
 2946WAT    HW2 8838   1.059   5.182   1.258
 2947WAT     OW 8839   0.772   3.042   3.926
 2947WAT    HW1 8840   0.680   3.048   3.885
 2947WAT    HW2 8841   0.787   3.120   3.986
 2948WAT     OW 8842   6.437   4.036   0.074
 2948WAT    HW1 8843   6.463   3.993  -0.013
 2948WAT    HW2 8844   6.502   4.010   0.145
 2949WAT     OW 8845   5.970   4.437   6.377
 2949WAT    HW1 8846   6.031   4.367   6.414
 2949WAT    HW2 8847   5.925   4.486   6.451
 2950WAT     OW 8848   0.536   1.672   5.903
 2950WAT    HW1 8849   0.501   1.719   5.985
 2950WAT    HW2 8850   0.591   1.736   5.849
 2951WAT     OW 8851   3.062   0.677   4.057
 2951WAT    HW1 8852   3.030   0.631   3.975
 2951WAT    HW2 8853   3.157   0.652   4.076
 2952WAT     OW 8854   6.540   6.651   5.050
 2952WAT    HW1 8855   6.475   6.634   4.976
 2952WAT    HW2 8856   6.517   6.593   5.128
 2953WAT     OW 8857   4.687   1.850   4.853
 2953WAT    HW1 8858   4.773   1.875   4.898
 2953WAT    HW2 8859   4.625   1.810   4.920
 2954WAT     OW 8860   6.014   2.207   4.973
 2954WAT    HW1 8861   5.994   2.122   5.022
 2954WAT    HW2 8862   6.057   2.273   5.035
 2955WAT     OW 8863   1.228   1.317   4.790
 2955WAT    HW1 8864   1.189   1.225   4.784
 2955WAT    HW2 8865   1.179   1.379   4.729
 2956WAT     OW 8866   5.330   5.090   1.918
 2956WAT    HW1 8867   5.411   5.052   1.963
 2956WAT    HW2 8868   5.331   5.064   1.822
 2957WAT     OW 8869   0.010   4.309   5.411
 2957WAT    HW1 8870   0.016   4.370   5.333
 2957WAT    HW2 8871  -0.062   4.340   5.473
 2958WAT     OW 8872   4.840   1.253   3.327
 2958WAT    HW1 8873   4.836   1.292   3.419
 2958WAT    HW2 8874   4.778   1.303   3.267
 2959WAT     OW 8875   3.227   5.804   2.065
 2959WAT    HW1 8876   3.237   5.769   2.158
 2959WAT    HW2 8877   3.141   5.771   2.026
 2960WAT     OW 8878   6.551   2.539   2.027
 2960WAT    HW1 8879   6.513   2.629   2.007
 2960WAT    HW2 8880   6.487   2.489   2.086
 2961WAT     OW 8881   3.019   1.111   0.195
 2961WAT    HW1 8882   3.015   1.160   0.108
 2961WAT    HW2 8883   2.935   1.058   0.208
 2962WAT     OW 8884   4.642   2.259   2.112
 2962WAT    HW1 8885   4.669   2.337   2.169
 2962WAT    HW2 8886   4.637   2.288   2.017
 2963WAT     OW 8887   3.557   2.165   0.775
 2963WAT    HW1 8888   3.465   2.204   0.765
 2963WAT    HW2 8889   3.620   2.212   0.713
 2964WAT     OW 8890   5.490   5.844   4.571
 2964WAT    HW1 8891   5.413   5.901   4.597
 2964WAT    HW2 8892   5.575   5.885   4.604
 2965WAT     OW 8893   1.821   3.397   1.226
 2965WAT    HW1 8894   1.841   3.495   1.235
 2965WAT    HW2 8895   1.776   3.380   1.139
 2966WAT     OW 8896   4.956   0.295   4.023
 2966WAT    HW1 8897   5.008   0.213   4.000
 2966WAT    HW2 8898   4.860   0.271   4.038
 2967WAT     OW 8899   5.547   3.859   3.093
 2967WAT    HW1 8900   5.646   3.851   3.098
 2967WAT    HW2 8901   5.505   3.775   3.126
 2968WAT     OW 8902   4.401   1.641   4.684
 2968WAT    HW1 8903   4.375   1.547   4.706
 2968WAT    HW2 8904   4.501   1.649   4.682
 2969WAT     OW 8905   1.424   3.368   1.423
 2969WAT    HW1 8906   1.457   3.462   1.419
 2969WAT    HW2 8907   1.477   3.317   1.491
 2970WAT     OW 8908   3.577   0.532   3.900
 2970WAT    HW1 8909   3.662   0.559   3.946
 2970WAT    HW2 8910   3.566   0.586   3.817
 2971WAT     OW 8911   4.282   1.192   0.092
 2971WAT    HW1 8912   4.194   1.229   0.122
 2971WAT    HW2 8913   4.328   1.147   0.169
 2972WAT     OW 8914   4.124   3.628   6.295
 2972WAT    HW1 8915   4.057   3.699   6.273
 2972WAT    HW2 8916   4.131   3.619   6.395
 2973WAT     OW 8917   0.305   6.586   4.196
 2973WAT    HW1 8918   0.347   6.557   4.282
 2973WAT    HW2 8919   0.344   6.675   4.169
 2974WAT     OW 8920   5.542   5.456   4.676
 2974WAT    HW1 8921   5.479   5.379   4.668
 2974WAT    HW2 8922   5.539   5.511   4.593
 2975WAT     OW 8923   6.529   5.795   2.594
 2975WAT    HW1 8924   6.476   5.781   2.510
 2975WAT    HW2 8925   6.520   5.715   2.653
 2976WAT     OW 8926   0.918   2.305   5.256
 2976WAT    HW1 8927   0.967   2.378   5.303
 2976WAT    HW2 8928   0.859   2.345   5.186
 2977WAT     OW 8929   0.390   4.374   5.996
 2977WAT    HW1 8930   0.337   4.384   5.911
 2977WAT    HW2 8931   0.352   4.299   6.050
 2978WAT     OW 8932   6.059   1.780   2.142
 2978WAT    HW1 8933   6.071   1.743   2.050
 2978WAT    HW2 8934   5.993   1.725   2.192
 2979WAT     OW 8935   5.524   6.420   1.849
 2979WAT    HW1 8936   5.570   6.334   1.828
 2979WAT    HW2 8937   5.578   6.497   1.814
 2980WAT     OW 8938   1.876   0.073   5.560
 2980WAT    HW1 8939   1.944   0.130   5.606
 2980WAT    HW2 8940   1.821   0.025   5.628
 2981WAT     OW 8941   3.378   0.428   1.923
 2981WAT    HW1 8942   3.300   0.365   1.927
 2981WAT    HW2 8943   3.348   0.519   1.953
 2982WAT     OW 8944   1.556   4.127   0.924
 2982WAT    HW1 8945   1.647   4.135   0.883
 2982WAT    HW2 8946   1.505   4.212   0.910
 2983WAT     OW 8947   5.786   3.462   2.260
 2983WAT    HW1 8948   5.848   3.384   2.248
 2983WAT    HW2 8949   5.796   3.499   2.353
 2984WAT     OW 8950   1.568   0.869   0.099
 2984WAT    HW1 8951   1.470   0.860   0.117
 2984WAT    HW2 8952   1.592   0.817   0.018
 2985WAT     OW 8953   0.329   4.452   2.257
 2985WAT    HW1 8954   0.384   4.431   2.176
 2985WAT    HW2 8955   0.376   4.522   2.312
 2986WAT     OW 8956   1.260   6.229   1.630
 2986WAT    HW1 8957   1.348   6.185   1.611
 2986WAT    HW2 8958   1.250   6.310   1.572
 2987WAT     OW 8959   4.787   1.507   2.137
 2987WAT    HW1 8960   4.870   1.562   2.122
 2987WAT    HW2 8961   4.789   1.469   2.230
 2988WAT     OW 8962   6.475   4.560   1.278
 2988WAT    HW1 8963   6.521   4.622   1.214
 2988WAT    HW2 8964   6.454   4.610   1.362
 2989WAT     OW 8965   0.326   1.231   1.836
 2989WAT    HW1 8966   0.329   1.196   1.742
 2989WAT    HW2 8967   0.261   1.307   1.841
 2990WAT     OW 8968   0.210   5.553   1.555
 2990WAT    HW1 8969   0.269   5.607   1.616
 2990WAT    HW2 8970   0.143   5.612   1.511
 2991WAT     OW 8971   5.487   2.932   0.868
 2991WAT    HW1 8972   5.461   2.961   0.776
 2991WAT    HW2 8973   5.519   3.012   0.920
 2992WAT     OW 8974   2.353   2.766   5.154
 2992WAT    HW1 8975   2.418   2.832   5.117
 2992WAT    HW2 8976   2.276   2.755   5.091
 2993WAT     OW 8977   6.155   0.916   2.635
 2993WAT    HW1 8978   6.200   0.826   2.634
 2993WAT    HW2 8979   6.203   0.978   2.573
 2994WAT     OW 8980   2.798   2.434   2.928
 2994WAT    HW1 8981   2.829   2.365   2.993
 2994WAT    HW2 8982   2.867   2.505   2.919
 2995WAT     OW 8983   2.328   2.993   3.183
 2995WAT    HW1 8984   2.391   2.988   3.105
 2995WAT    HW2 8985   2.272   3.075   3.174
 2996WAT     OW 8986   0.605   3.553   2.431
 2996WAT    HW1 8987   0.597   3.637   2.378
 2996WAT    HW2 8988   0.547   3.558   2.512
 2997WAT     OW 8989   0.932   4.103   2.165
 2997WAT    HW1 8990   1.023   4.106   2.205
 2997WAT    HW2 8991   0.930   4.160   2.082
 2998WAT     OW 8992   0.752   5.027   1.152
 2998WAT    HW1 8993   0.734   5.062   1.060
 2998WAT    HW2 8994   0.836   4.973   1.151
 2999WAT     OW 8995   3.961   5.958   0.162
 2999WAT    HW1 8996   3.886   5.946   0.096
 2999WAT    HW2 8997   3.996   6.051   0.156
 3000WAT     OW 8998   4.662   1.922   3.591
 3000WAT    HW1 8999   4.722   1.934   3.512
 3000WAT    HW2 9000   4.686   1.837   3.639
 3001WAT     OW 9001   4.619   4.144   2.879
 3001WAT    HW1 9002   4.570   4.105   2.801
 3001WAT    HW2 9003   4.660   4.070   2.932
 3002WAT     OW 9004   5.532   6.370   0.418
 3002WAT    HW1 9005   5.598   6.341   0.349
 3002WAT    HW2 9006   5.453   6.310   0.416
 3003WAT     OW 9007   4.117   1.135   4.047
 3003WAT    HW1 9008   4.059   1.065   4.089
 3003WAT    HW2 9009   4.111   1.220   4.100
 3004WAT     OW 9010   0.754   4.138   1.069
 3004WAT    HW1 9011   0.731   4.043   1.047
 3004WAT    HW2 9012   0.821   4.172   1.003
 3005WAT     OW 9013   3.610   4.504   5.050
 3005WAT    HW1 9014   3.708   4.518   5.067
 3005WAT    HW2 9015   3.556   4.544   5.124
 3006WAT     OW 9016   2.671   1.372   6.478
 3006WAT    HW1 9017   2.731   1.447   6.504
 3006WAT    HW2 9018   2.696   1.341   6.386
 3007WAT     OW 9019   3.505   4.287   1.344
 3007WAT    HW1 9020   3.457   4.242   1.420
 3007WAT    HW2 9021   3.438   4.317   1.277
 3008WAT     OW 9022   1.209   2.664   2.409
 3008WAT    HW1 9023   1.244   2.753   2.379
 3008WAT    HW2 9024   1.275   2.622   2.471
 3009WAT     OW 9025   6.202   0.893   5.415
 3009WAT    HW1 9026   6.186   0.804   5.371
 3009WAT    HW2 9027   6.120   0.950   5.405
 3010WAT     OW 9028   2.199   4.054   4.511
 3010WAT    HW1 9029   2.216   4.004   4.596
 3010WAT    HW2 9030   2.101   4.063   4.497
 3011WAT     OW 9031   0.043   4.048   6.052
 3011WAT    HW1 9032  -0.022   4.084   5.985
 3011WAT    HW2 9033  -0.007   4.016   6.132
 3012WAT     OW 9034   2.421   1.404   6.585
 3012WAT    HW1 9035   2.513   1.381   6.553
 3012WAT    HW2 9036   2.415   1.502   6.601
 3013WAT     OW 9037   3.736   0.902   0.331
 3013WAT    HW1 9038   3.703   0.835   0.398
 3013WAT    HW2 9039   3.679   0.984   0.335
 3014WAT     OW 9040   3.309   4.862   5.999
 3014WAT    HW1 9041   3.233   4.801   6.021
 3014WAT    HW2 9042   3.391   4.808   5.982
 3015WAT     OW 9043   3.640   0.522   0.143
 3015WAT    HW1 9044   3.679   0.466   0.216
 3015WAT    HW2 9045   3.572   0.584   0.182
 3016WAT     OW 9046   0.025   5.517   5.292
 3016WAT    HW1 9047  -0.010   5.540   5.201
 3016WAT    HW2 9048   0.032   5.418   5.301
 3017WAT     OW 9049   5.022   6.566   5.585
 3017WAT    HW1 9050   4.998   6.571   5.682
 3017WAT    HW2 9051   5.121   6.555   5.576
 3018WAT     OW 9052   2.392   5.544   6.497
 3018WAT    HW1 9053   2.392   5.629   6.548
 3018WAT    HW2 9054   2.466   5.485   6.529
 3019WAT     OW 9055   4.588   1.356   2.782
 3019WAT    HW1 9056   4.620   1.447   2.809
 3019WAT    HW2 9057   4.489   1.359   2.769
 3020WAT     OW 9058   1.827   4.596   5.814
 3020WAT    HW1 9059   1.924   4.577   5.827
 3020WAT    HW2 9060   1.816   4.678   5.758
 3021WAT     OW 9061   4.041   4.642   4.906
 3021WAT    HW1 9062   4.121   4.700   4.915
 3021WAT    HW2 9063   3.989   4.668   4.824
 3022WAT     OW 9064   3.138   5.133   0.714
 3022WAT    HW1 9065   3.075   5.127   0.636
 3022WAT    HW2 9066   3.209   5.201   0.694
 3023WAT     OW 9067   0.833   2.976   2.630
 3023WAT    HW1 9068   0.876   3.024   2.707
 3023WAT    HW2 9069   0.882   2.891   2.612
 3024WAT     OW 9070   1.865   6.080   1.476
 3024WAT    HW1 9071   1.891   6.042   1.388
 3024WAT    HW2 9072   1.923   6.040   1.548
 3025WAT     OW 9073   4.294   2.394   5.150
 3025WAT    HW1 9074   4.249   2.317   5.194
 3025WAT    HW2 9075   4.353   2.441   5.216
 3026WAT     OW 9076   4.504   3.805   1.256
 3026WAT    HW1 9077   4.555   3.763   1.331
 3026WAT    HW2 9078   4.531   3.901   1.247
 3027WAT     OW 9079   0.509   5.813   0.647
 3027WAT    HW1 9080   0.443   5.865   0.702
 3027WAT    HW2 9081   0.582   5.779   0.706
 3028WAT     OW 9082   4.473   6.111   5.553
 3028WAT    HW1 9083   4.454   6.206   5.580
 3028WAT    HW2 9084   4.422   6.048   5.612
 3029WAT     OW 9085   1.031   0.487   2.863
 3029WAT    HW1 9086   0.977   0.461   2.783
 3029WAT    HW2 9087   0.970   0.520   2.935
 3030WAT     OW 9088   5.252   1.026   2.116
 3030WAT    HW1 9089   5.254   1.126   2.113
 3030WAT    HW2 9090   5.196   0.992   2.041
 3031WAT     OW 9091   1.340   6.074   0.271
 3031WAT    HW1 9092   1.356   6.131   0.190
 3031WAT    HW2 9093   1.256   6.104   0.317
 3032WAT     OW 9094   2.806   1.832   3.016
 3032WAT    HW1 9095   2.715   1.812   2.979
 3032WAT    HW2 9096   2.875   1.809   2.947
 3033WAT     OW 9097   3.755   4.470   0.959
 3033WAT    HW1 9098   3.712   4.397   1.012
 3033WAT    HW2 9099   3.797   4.536   1.021
 3034WAT     OW 9100   6.545   2.359   4.315
 3034WAT    HW1 9101   6.508   2.298   4.385
 3034WAT    HW2 9102   6.471   2.417   4.279
 3035WAT     OW 9103   5.408   5.841   1.603
 3035WAT    HW1 9104   5.452   5.911   1.547
 3035WAT    HW2 9105   5.434   5.854   1.699
 3036WAT     OW 9106   2.413   3.061   5.375
 3036WAT    HW1 9107   2.333   3.041   5.320
 3036WAT    HW2 9108   2.479   2.986   5.368
 3037WAT     OW 9109   5.579   0.718   2.053
 3037WAT    HW1 9110   5.627   0.648   2.107
 3037WAT    HW2 9111   5.520   0.673   1.986
 3038WAT     OW 9112   6.265   1.659   1.529
 3038WAT    HW1 9113   6.350   1.700   1.494
 3038WAT    HW2 9114   6.225   1.602   1.458
 3039WAT     OW 9115   6.189   0.381   5.492
 3039WAT    HW1 9116   6.233   0.420   5.573
 3039WAT    HW2 9117   6.090   0.382   5.505
 3040WAT     OW 9118   1.741   2.141   3.144
 3040WAT    HW1 9119   1.644   2.114   3.140
 3040WAT    HW2 9120   1.788   2.085   3.213
 3041WAT     OW 9121   3.964   4.500   5.653
 3041WAT    HW1 9122   4.048   4.552   5.669
 3041WAT    HW2 9123   3.890   4.564   5.630
 3042WAT     OW 9124   2.458   0.614   0.635
 3042WAT    HW1 9125   2.454   0.714   0.642
 3042WAT    HW2 9126   2.398   0.573   0.703
 3043WAT     OW 9127   2.174   0.417   6.040
 3043WAT    HW1 9128   2.259   0.432   6.090
 3043WAT    HW2 9129   2.147   0.502   5.994
 3044WAT     OW 9130   6.280   0.525   0.791
 3044WAT    HW1 9131   6.247   0.520   0.885
 3044WAT    HW2 9132   6.296   0.432   0.756
 3045WAT     OW 9133   2.190   3.578   4.197
 3045WAT    HW1 9134   2.104   3.530   4.216
 3045WAT    HW2 9135   2.243   3.525   4.132
 3046WAT     OW 9136   3.197   4.193   0.372
 3046WAT    HW1 9137   3.107   4.209   0.333
 3046WAT    HW2 9138   3.187   4.172   0.470
 3047WAT     OW 9139   2.571   6.410   6.328
 3047WAT    HW1 9140   2.553   6.331   6.270
 3047WAT    HW2 9141   2.588   6.491   6.271
 3048WAT     OW 9142   4.404   1.398   4.455
 3048WAT    HW1 9143   4.477   1.465   4.447
 3048WAT    HW2 9144   4.379   1.386   4.551
 3049WAT     OW 9145   2.084   1.324   6.671
 3049WAT    HW1 9146   2.106   1.261   6.746
 3049WAT    HW2 9147   2.011   1.285   6.615
 3050WAT     OW 9148   1.475   0.528   2.796
 3050WAT    HW1 9149   1.389   0.573   2.818
 3050WAT    HW2 9150   1.543   0.547   2.867
 3051WAT     OW 9151   0.039   3.151   5.973
 3051WAT    HW1 9152  -0.009   3.136   5.887
 3051WAT    HW2 9153   0.099   3.231   5.965
 3052WAT     OW 9154   5.811   2.968   1.045
 3052WAT    HW1 9155   5.909   2.978   1.029
 3052WAT    HW2 9156   5.789   2.871   1.055
 3053WAT     OW 9157   2.036   2.590   6.612
 3053WAT    HW1 9158   1.997   2.680   6.632
 3053WAT    HW2 9159   1.962   2.523   6.604
 3054WAT     OW 9160   3.197   5.593   4.307
 3054WAT    HW1 9161   3.192   5.496   4.330
 3054WAT    HW2 9162   3.286   5.612   4.265
 3055WAT     OW 9163   5.604   2.124   3.082
 3055WAT    HW1 9164   5.698   2.099   3.101
 3055WAT    HW2 9165   5.542   2.063   3.131
 3056WAT     OW 9166   5.195   3.774   2.128
 3056WAT    HW1 9167   5.117   3.780   2.191
 3056WAT    HW2 9168   5.208   3.863   2.084
 3057WAT     OW 9169   0.030   6.202   5.256
 3057WAT    HW1 9170   0.085   6.123   5.281
 3057WAT    HW2 9171  -0.067   6.177   5.253
 3058WAT     OW 9172   0.769   0.695   2.719
 3058WAT    HW1 9173   0.671   0.712   2.729
 3058WAT    HW2 9174   0.785   0.596   2.714
 3059WAT     OW 9175   1.406   2.241   3.429
 3059WAT    HW1 9176   1.498   2.204   3.417
 3059WAT    HW2 9177   1.404   2.336   3.397
 3060WAT     OW 9178   4.029   1.432   3.501
 3060WAT    HW1 9179   4.083   1.450   3.583
 3060WAT    HW2 9180   3.973   1.350   3.516
 3061WAT     OW 9181   4.258   6.380   0.845
 3061WAT    HW1 9182   4.306   6.441   0.782
 3061WAT    HW2 9183   4.199   6.318   0.793
 3062WAT     OW 9184   1.135   2.236   2.021
 3062WAT    HW1 9185   1.200   2.300   2.062
 3062WAT    HW2 9186   1.075   2.286   1.959
 3063WAT     OW 9187   3.198   1.869   5.113
 3063WAT    HW1 9188   3.222   1.919   5.030
 3063WAT    HW2 9189   3.276   1.814   5.143
 3064WAT     OW 9190   6.067   4.565   1.653
 3064WAT    HW1 9191   6.055   4.467   1.671
 3064WAT    HW2 9192   5.986   4.615   1.685
 3065WAT     OW 9193   0.071   1.041   1.222
 3065WAT    HW1 9194   0.082   1.031   1.321
 3065WAT    HW2 9195   0.054   0.952   1.181
 3066WAT     OW 9196   0.670   0.923   4.241
 3066WAT    HW1 9197   0.620   1.009   4.243
 3066WAT    HW2 9198   0.620   0.855   4.295
 3067WAT     OW 9199   2.529   6.172   6.186
 3067WAT    HW1 9200   2.622   6.153   6.157
 3067WAT    HW2 9201   2.465   6.125   6.125
 3068WAT     OW 9202   0.798   1.185   2.655
 3068WAT    HW1 9203   0.816   1.095   2.697
 3068WAT    HW2 9204   0.701   1.207   2.663
 3069WAT     OW 9205   6.259   4.159   5.886
 3069WAT    HW1 9206   6.228   4.159   5.981
 3069WAT    HW2 9207   6.206   4.092   5.833
 3070WAT     OW 9208   3.861   3.876   3.950
 3070WAT    HW1 9209   3.872   3.956   3.891
 3070WAT    HW2 9210   3.950   3.848   3.985
 3071WAT     OW 9211   1.508   0.748   0.679
 3071WAT    HW1 9212   1.586   0.807   0.659
 3071WAT    HW2 9213   1.501   0.678   0.608
 3072WAT     OW 9214   6.492   1.269   5.308
 3072WAT    HW1 9215   6.429   1.298   5.235
 3072WAT    HW2 9216   6.462   1.308   5.395
 3073WAT     OW 9217   6.367   6.550   1.699
 3073WAT    HW1 9218   6.357   6.600   1.785
 3073WAT    HW2 9219   6.369   6.614   1.622
 3074WAT     OW 9220   0.043   4.979   0.567
 3074WAT    HW1 9221   0.025   5.077   0.553
 3074WAT    HW2 9222   0.095   4.943   0.490
 3075WAT     OW 9223   4.118   2.107   6.501
 3075WAT    HW1 9224   4.136   2.039   6.572
 3075WAT    HW2 9225   4.164   2.079   6.416
 3076WAT     OW 9226   4.873   2.264   3.003
 3076WAT    HW1 9227   4.911   2.301   2.918
 3076WAT    HW2 9228   4.859   2.165   2.992
 3077WAT     OW 9229   1.806   1.212   3.006
 3077WAT    HW1 9230   1.746   1.143   3.048
 3077WAT    HW2 9231   1.756   1.260   2.934
 3078WAT     OW 9232   1.416   0.182   5.082
 3078WAT    HW1 9233   1.404   0.262   5.022
 3078WAT    HW2 9234   1.377   0.102   5.037
 3079WAT     OW 9235   0.319   5.025   2.792
 3079WAT    HW1 9236   0.238   5.000   2.845
 3079WAT    HW2 9237   0.304   5.002   2.695
 3080WAT     OW 9238   5.711   5.969   5.173
 3080WAT    HW1 9239   5.740   5.904   5.244
 3080WAT    HW2 9240   5.672   6.050   5.216
 3081WAT     OW 9241   5.186   6.447   3.644
 3081WAT    HW1 9242   5.245   6.520   3.677
 3081WAT    HW2 9243   5.228   6.403   3.564
 3082WAT     OW 9244   0.477   4.248   3.946
 3082WAT    HW1 9245   0.564   4.200   3.945
 3082WAT    HW2 9246   0.440   4.251   3.853
 3083WAT     OW 9247   2.507   3.386   4.182
 3083WAT    HW1 9248   2.563   3.308   4.153
 3083WAT    HW2 9249   2.426   3.392   4.124
 3084WAT     OW 9250   2.138   5.387   5.252
 3084WAT    HW1 9251   2.082   5.389   5.335
 3084WAT    HW2 9252   2.084   5.350   5.176
 3085WAT     OW 9253   1.649   0.886   2.720
 3085WAT    HW1 9254   1.590   0.966   2.729
 3085WAT    HW2 9255   1.739   0.905   2.759
 3086WAT     OW 9256   2.358   6.084   0.536
 3086WAT    HW1 9257   2.311   6.156   0.485
 3086WAT    HW2 9258   2.338   5.995   0.493
 3087WAT     OW 9259   4.111   4.760   0.255
 3087WAT    HW1 9260   4.017   4.779   0.229
 3087WAT    HW2 9261   4.113   4.705   0.339
 3088WAT     OW 9262   6.125   2.798   4.708
 3088WAT    HW1 9263   6.155   2.893   4.718
 3088WAT    HW2 9264   6.061   2.775   4.782
 3089WAT     OW 9265   5.503   5.297   3.276
 3089WAT    HW1 9266   5.435   5.368   3.263
 3089WAT    HW2 9267   5.513   5.277   3.374
 3090WAT     OW 9268   4.418   3.782   6.507
 3090WAT    HW1 9269   4.385   3.760   6.599
 3090WAT    HW2 9270   4.461   3.701   6.467
 3091WAT     OW 9271   6.559   1.047   1.666
 3091WAT    HW1 9272   6.612   1.000   1.737
 3091WAT    HW2 9273   6.463   1.017   1.672
 3092WAT     OW 9274   3.284   6.323   6.201
 3092WAT    HW1 9275   3.268   6.257   6.127
 3092WAT    HW2 9276   3.244   6.288   6.285
 3093WAT     OW 9277   4.931   1.057   4.231
 3093WAT    HW1 9278   4.878   1.098   4.157
 3093WAT    HW2 9279   5.012   1.012   4.194
 3094WAT     OW 9280   5.709   0.939   3.529
 3094WAT    HW1 9281   5.741   1.033   3.539
 3094WAT    HW2 9282   5.614   0.932   3.559
 3095WAT     OW 9283   6.464   6.434   6.403
 3095WAT    HW1 9284   6.532   6.394   6.464
 3095WAT    HW2 9285   6.373   6.423   6.442
 3096WAT     OW 9286   2.966   1.797   5.244
 3096WAT    HW1 9287   3.051   1.825   5.200
 3096WAT    HW2 9288   2.976   1.705   5.282
 3097WAT     OW 9289   1.121   0.718   5.869
 3097WAT    HW1 9290   1.035   0.669   5.877
 3097WAT    HW2 9291   1.162   0.730   5.960
 3098WAT     OW 9292   4.003   1.594   5.559
 3098WAT    HW1 9293   3.946   1.651   5.499
 3098WAT    HW2 9294   3.952   1.513   5.587
 3099WAT     OW 9295   2.815   0.131   2.265
 3099WAT    HW1 9296   2.891   0.088   2.214
 3099WAT    HW2 9297   2.785   0.213   2.216
 3100WAT     OW 9298   5.632   6.618   4.708
 3100WAT    HW1 9299   5.660   6.522   4.714
 3100WAT    HW2 9300   5.697   6.674   4.759
 3101WAT     OW 9301   2.165   3.048   6.246
 3101WAT    HW1 9302   2.199   3.055   6.152
 3101WAT    HW2 9303   2.073   3.087   6.251
 3102WAT     OW 9304   1.086   4.918   4.921
 3102WAT    HW1 9305   1.105   5.006   4.963
 3102WAT    HW2 9306   0.987   4.908   4.907
 3103WAT     OW 9307   1.355   5.112   2.627
 3103WAT    HW1 9308   1.371   5.034   2.687
 3103WAT    HW2 9309   1.256   5.130   2.621
 3104WAT     OW 9310   0.038   2.271   4.109
 3104WAT    HW1 9311   0.096   2.194   4.135
 3104WAT    HW2 9312  -0.015   2.301   4.188
 3105WAT     OW 9313   6.391   0.129   2.306
 3105WAT    HW1 9314   6.333   0.074   2.246
 3105WAT    HW2 9315   6.388   0.224   2.277
 3106WAT     OW 9316   5.452   1.359   4.513
 3106WAT    HW1 9317   5.381   1.391   4.576
 3106WAT    HW2 9318   5.442   1.260   4.500
 3107WAT     OW 9319   1.824   2.550   2.015
 3107WAT    HW1 9320   1.745   2.572   1.956
 3107WAT    HW2 9321   1.886   2.628   2.017
 3108WAT     OW 9322   2.465   0.523   3.776
 3108WAT    HW1 9323   2.487   0.426   3.786
 3108WAT    HW2 9324   2.379   0.543   3.822
 3109WAT     OW 9325   3.627   6.535   1.169
 3109WAT    HW1 9326   3.671   6.518   1.081
 3109WAT    HW2 9327   3.559   6.608   1.158
 3110WAT     OW 9328   4.907   2.319   1.520
 3110WAT    HW1 9329   4.866   2.287   1.434
 3110WAT    HW2 9330   4.841   2.307   1.595
 3111WAT     OW 9331   0.550   2.460   5.921
 3111WAT    HW1 9332   0.596   2.507   5.997
 3111WAT    HW2 9333   0.562   2.514   5.837
 3112WAT     OW 9334   0.276   6.433   2.142
 3112WAT    HW1 9335   0.288   6.512   2.081
 3112WAT    HW2 9336   0.270   6.349   2.086
 3113WAT     OW 9337   6.288   0.545   2.395
 3113WAT    HW1 9338   6.306   0.483   2.318
 3113WAT    HW2 9339   6.242   0.627   2.362
 3114WAT     OW 9340   4.906   3.693   0.654
 3114WAT    HW1 9341   4.879   3.631   0.580
 3114WAT    HW2 9342   4.974   3.649   0.712
 3115WAT     OW 9343   0.850   0.539   3.059
 3115WAT    HW1 9344   0.900   0.489   3.130
 3115WAT    HW2 9345   0.773   0.484   3.028
 3116WAT     OW 9346   0.616   1.646   0.815
 3116WAT    HW1 9347   0.636   1.571   0.878
 3116WAT    HW2 9348   0.562   1.613   0.738
 3117WAT     OW 9349   3.233   3.754   5.049
 3117WAT    HW1 9350   3.146   3.736   5.003
 3117WAT    HW2 9351   3.269   3.842   5.019
 3118WAT     OW 9352   4.752   1.974   4.440
 3118WAT    HW1 9353   4.688   1.914   4.392
 3118WAT    HW2 9354   4.839   1.927   4.451
 3119WAT     OW 9355   6.387   6.662   6.125
 3119WAT    HW1 9356   6.440   6.689   6.205
 3119WAT    HW2 9357   6.293   6.692   6.135
 3120WAT     OW 9358   3.428   4.041   3.984
 3120WAT    HW1 9359   3.366   4.078   4.053
 3120WAT    HW2 9360   3.496   3.983   4.027
 3121WAT     OW 9361   3.690   6.549   0.469
 3121WAT    HW1 9362   3.674   6.640   0.508
 3121WAT    HW2 9363   3.686   6.555   0.369
 3122WAT     OW 9364   1.287   1.351   5.566
 3122WAT    HW1 9365   1.218   1.279   5.578
 3122WAT    HW2 9366   1.366   1.314   5.519
 3123WAT     OW 9367   5.526   2.376   0.054
 3123WAT    HW1 9368   5.579   2.460   0.042
 3123WAT    HW2 9369   5.436   2.399   0.091
 3124WAT     OW 9370   0.502   3.689   2.836
 3124WAT    HW1 9371   0.456   3.697   2.924
 3124WAT    HW2 9372   0.593   3.729   2.841
 3125WAT     OW 9373   0.242   1.315   2.403
 3125WAT    HW1 9374   0.217   1.288   2.497
 3125WAT    HW2 9375   0.164   1.300   2.343
 3126WAT     OW 9376   1.321   5.353   0.359
 3126WAT    HW1 9377   1.256   5.322   0.429
 3126WAT    HW2 9378   1.332   5.452   0.365
 3127WAT     OW 9379   3.494   0.645   6.413
 3127WAT    HW1 9380   3.482   0.661   6.315
 3127WAT    HW2 9381   3.523   0.729   6.458
 3128WAT     OW 9382   6.117   0.690   4.101
 3128WAT    HW1 9383   6.099   0.730   4.011
 3128WAT    HW2 9384   6.192   0.738   4.145
 3129WAT     OW 9385   1.624   4.341   2.361
 3129WAT    HW1 9386   1.683   4.270   2.400
 3129WAT    HW2 9387   1.536   4.342   2.410
 3130WAT     OW 9388   3.562   3.006   2.400
 3130WAT    HW1 9389   3.622   3.059   2.461
 3130WAT    HW2 9390   3.528   2.926   2.450
 3131WAT     OW 9391   3.861   4.005   5.833
 3131WAT    HW1 9392   3.833   3.945   5.758
 3131WAT    HW2 9393   3.960   4.001   5.844
 3132WAT     OW 9394   6.672   3.913   4.388
 3132WAT    HW1 9395   6.589   3.861   4.369
 3132WAT    HW2 9396   6.648   3.999   4.432
 3133WAT     OW 9397   5.718   0.846   1.659
 3133WAT    HW1 9398   5.726   0.746   1.660
 3133WAT    HW2 9399   5.655   0.874   1.587
 3134WAT     OW 9400   0.703   0.632   3.894
 3134WAT    HW1 9401   0.627   0.682   3.852
 3134WAT    HW2 9402   0.736   0.563   3.830
 3135WAT     OW 9403   4.645   6.433   0.628
 3135WAT    HW1 9404   4.553   6.462   0.657
 3135WAT    HW2 9405   4.655   6.335   0.644
 3136WAT     OW 9406   5.526   3.879   2.821
 3136WAT    HW1 9407   5.466   3.956   2.797
 3136WAT    HW2 9408   5.529   3.869   2.920
 3137WAT     OW 9409   3.322   1.058   2.846
 3137WAT    HW1 9410   3.396   1.030   2.908
 3137WAT    HW2 9411   3.256   0.984   2.839
 3138WAT     OW 9412   0.907   2.165   6.011
 3138WAT    HW1 9413   0.810   2.189   6.010
 3138WAT    HW2 9414   0.921   2.081   5.958
 3139WAT     OW 9415   2.003   4.149   4.149
 3139WAT    HW1 9416   1.983   4.220   4.217
 3139WAT    HW2 9417   1.956   4.065   4.176
 3140WAT     OW 9418   5.255   3.922   2.583
 3140WAT    HW1 9419   5.303   3.986   2.643
 3140WAT    HW2 9420   5.198   3.860   2.638
 3141WAT     OW 9421   6.001   0.939   4.478
 3141WAT    HW1 9422   6.097   0.914   4.491
 3141WAT    HW2 9423   5.964   0.893   4.398
 3142WAT     OW 9424   3.979   6.396   4.910
 3142WAT    HW1 9425   3.967   6.382   4.811
 3142WAT    HW2 9426   4.076   6.398   4.932
 3143WAT     OW 9427   2.639   0.733   4.385
 3143WAT    HW1 9428   2.625   0.809   4.322
 3143WAT    HW2 9429   2.594   0.652   4.349
 3144WAT     OW 9430   3.051   6.344   5.671
 3144WAT    HW1 9431   3.052   6.256   5.719
 3144WAT    HW2 9432   3.013   6.414   5.731
 3145WAT     OW 9433   0.900   5.001   5.737
 3145WAT    HW1 9434   0.930   5.030   5.828
 3145WAT    HW2 9435   0.918   4.903   5.726
 3146WAT     OW 9436   4.392   6.309   4.618
 3146WAT    HW1 9437   4.350   6.259   4.694
 3146WAT    HW2 9438   4.492   6.299   4.622
 3147WAT     OW 9439   5.398   2.085   5.529
 3147WAT    HW1 9440   5.466   2.098   5.602
 3147WAT    HW2 9441   5.367   1.990   5.530
 3148WAT     OW 9442   3.748   1.997   5.010
 3148WAT    HW1 9443   3.656   2.007   4.973
 3148WAT    HW2 9444   3.810   2.059   4.961
 3149WAT     OW 9445   0.204   1.194   0.051
 3149WAT    HW1 9446   0.258   1.205  -0.032
 3149WAT    HW2 9447   0.151   1.277   0.068
 3150WAT     OW 9448   5.007   0.566   1.716
 3150WAT    HW1 9449   5.040   0.489   1.662
 3150WAT    HW2 9450   4.962   0.632   1.655
 3151WAT     OW 9451   4.686   2.433   5.955
 3151WAT    HW1 9452   4.614   2.381   6.001
 3151WAT    HW2 9453   4.747   2.473   6.024
 3152WAT     OW 9454   4.851   1.873   3.878
 3152WAT    HW1 9455   4.824   1.805   3.810
 3152WAT    HW2 9456   4.804   1.854   3.964
 3153WAT     OW 9457   3.278   0.825   0.059
 3153WAT    HW1 9458   3.316   0.913   0.030
 3153WAT    HW2 9459   3.180   0.835   0.076
 3154WAT     OW 9460   5.482   1.340   4.839
 3154WAT    HW1 9461   5.560   1.376   4.788
 3154WAT    HW2 9462   5.397   1.363   4.790
 3155WAT     OW 9463   5.007   6.189   3.930
 3155WAT    HW1 9464   5.032   6.285   3.937
 3155WAT    HW2 9465   5.050   6.149   3.849
 3156WAT     OW 9466   1.083   3.326   4.727
 3156WAT    HW1 9467   1.054   3.414   4.765
 3156WAT    HW2 9468   1.003   3.270   4.708
 3157WAT     OW 9469   2.955   4.599   4.087
 3157WAT    HW1 9470   3.017   4.531   4.048
 3157WAT    HW2 9471   2.977   4.689   4.050
 3158WAT     OW 9472   4.167   4.821   6.683
 3158WAT    HW1 9473   4.236   4.891   6.664
 3158WAT    HW2 9474   4.152   4.815   6.781
 3159WAT     OW 9475   0.081   4.472   4.924
 3159WAT    HW1 9476   0.107   4.562   4.888
 3159WAT    HW2 9477   0.146   4.403   4.893
 3160WAT     OW 9478   6.380   4.015   0.511
 3160WAT    HW1 9479   6.330   3.983   0.592
 3160WAT    HW2 9480   6.315   4.030   0.436
 3161WAT     OW 9481   2.503   2.464   3.273
 3161WAT    HW1 9482   2.527   2.480   3.177
 3161WAT    HW2 9483   2.565   2.515   3.332
 3162WAT     OW 9484   0.988   0.371   3.228
 3162WAT    HW1 9485   1.057   0.330   3.169
 3162WAT    HW2 9486   1.025   0.454   3.269
 3163WAT     OW 9487   1.348   0.831   1.839
 3163WAT    HW1 9488   1.423   0.897   1.842
 3163WAT    HW2 9489   1.274   0.863   1.899
 3164WAT     OW 9490   2.752   3.702   5.585
 3164WAT    HW1 9491   2.678   3.697   5.519
 3164WAT    HW2 9492   2.715   3.700   5.678
 3165WAT     OW 9493   4.469   2.952   0.387
 3165WAT    HW1 9494   4.424   2.878   0.436
 3165WAT    HW2 9495   4.537   2.914   0.323
 3166WAT     OW 9496   4.670   0.525   3.095
 3166WAT    HW1 9497   4.756   0.529   3.045
 3166WAT    HW2 9498   4.644   0.617   3.125
 3167WAT     OW 9499   6.427   6.015   2.728
 3167WAT    HW1 9500   6.502   6.034   2.792
 3167WAT    HW2 9501   6.450   5.934   2.674
 3168WAT     OW 9502   1.011   6.134   1.644
 3168WAT    HW1 9503   1.107   6.158   1.635
 3168WAT    HW2 9504   0.983   6.143   1.740
 3169WAT     OW 9505   5.859   6.250   5.445
 3169WAT    HW1 9506   5.849   6.217   5.538
 3169WAT    HW2 9507   5.858   6.350   5.445
 3170WAT     OW 9508   4.978   6.675   4.828
 3170WAT    HW1 9509   4.915   6.753   4.826
 3170WAT    HW2 9510   5.068   6.703   4.795
 3171WAT     OW 9511   6.432   1.054   4.648
 3171WAT    HW1 9512   6.453   1.019   4.740
 3171WAT    HW2 9513   6.419   1.153   4.653
 3172WAT     OW 9514   0.428   2.298   1.778
 3172WAT    HW1 9515   0.382   2.266   1.695
 3172WAT    HW2 9516   0.380   2.262   1.858
 3173WAT     OW 9517   1.604   4.699   6.266
 3173WAT    HW1 9518   1.508   4.672   6.273
 3173WAT    HW2 9519   1.642   4.663   6.182
 3174WAT     OW 9520   6.064   5.263   0.949
 3174WAT    HW1 9521   6.082   5.187   1.011
 3174WAT    HW2 9522   5.981   5.245   0.896
 3175WAT     OW 9523   2.635   6.681   6.232
 3175WAT    HW1 9524   2.665   6.753   6.295
 3175WAT    HW2 9525   2.703   6.668   6.161
 3176WAT     OW 9526   3.867   4.527   2.864
 3176WAT    HW1 9527   3.894   4.607   2.810
 3176WAT    HW2 9528   3.876   4.548   2.961
 3177WAT     OW 9529   5.590   3.044   2.207
 3177WAT    HW1 9530   5.509   3.101   2.193
 3177WAT    HW2 9531   5.609   3.035   2.304
 3178WAT     OW 9532   5.364   0.644   0.623
 3178WAT    HW1 9533   5.366   0.546   0.600
 3178WAT    HW2 9534   5.390   0.698   0.543
 3179WAT     OW 9535   4.569   3.022   2.688
 3179WAT    HW1 9536   4.621   3.046   2.770
 3179WAT    HW2 9537   4.595   2.929   2.659
 3180WAT     OW 9538   4.567   5.532   0.644
 3180WAT    HW1 9539   4.619   5.594   0.584
 3180WAT    HW2 9540   4.493   5.490   0.591
 3181WAT     OW 9541   0.326   0.763   3.056
 3181WAT    HW1 9542   0.391   0.760   3.132
 3181WAT    HW2 9543   0.262   0.687   3.064
 3182WAT     OW 9544   5.554   2.755   4.516
 3182WAT    HW1 9545   5.627   2.688   4.503
 3182WAT    HW2 9546   5.468   2.718   4.481
 3183WAT     OW 9547   5.185   6.247   5.607
 3183WAT    HW1 9548   5.199   6.345   5.592
 3183WAT    HW2 9549   5.099   6.219   5.563
 3184WAT     OW 9550   0.137   2.542   1.230
 3184WAT    HW1 9551   0.088   2.556   1.316
 3184WAT    HW2 9552   0.105   2.608   1.162
 3185WAT     OW 9553   3.064   3.483   0.811
 3185WAT    HW1 9554   3.037   3.482   0.908
 3185WAT    HW2 9555   3.158   3.514   0.803
 3186WAT     OW 9556   6.034   0.494   1.559
 3186WAT    HW1 9557   5.997   0.556   1.490
 3186WAT    HW2 9558   6.014   0.399   1.533
 3187WAT     OW 9559   1.715   2.119   4.868
 3187WAT    HW1 9560   1.663   2.072   4.797
 3187WAT    HW2 9561   1.813   2.101   4.856
 3188WAT     OW 9562   4.631   5.533   5.956
 3188WAT    HW1 9563   4.546   5.525   6.008
 3188WAT    HW2 9564   4.612   5.576   5.868
 3189WAT     OW 9565   2.768   2.639   1.058
 3189WAT    HW1 9566   2.778   2.617   1.156
 3189WAT    HW2 9567   2.685   2.595   1.024
 3190WAT     OW 9568   4.462   4.545   0.558
 3190WAT    HW1 9569   4.495   4.593   0.639
 3190WAT    HW2 9570   4.534   4.546   0.488
 3191WAT     OW 9571   5.731   5.345   3.707
 3191WAT    HW1 9572   5.774   5.281   3.771
 3191WAT    HW2 9573   5.735   5.437   3.744
 3192WAT     OW 9574   0.150   1.470   2.711
 3192WAT    HW1 9575   0.238   1.474   2.758
 3192WAT    HW2 9576   0.134   1.377   2.677
 3193WAT     OW 9577   6.388   2.243   4.522
 3193WAT    HW1 9578   6.288   2.252   4.524
 3193WAT    HW2 9579   6.428   2.299   4.595
 3194WAT     OW 9580   5.492   2.239   4.913
 3194WAT    HW1 9581   5.553   2.248   4.991
 3194WAT    HW2 9582   5.432   2.160   4.927
 3195WAT     OW 9583   1.430   4.951   5.102
 3195WAT    HW1 9584   1.339   4.944   5.142
 3195WAT    HW2 9585   1.498   4.921   5.168
 3196WAT     OW 9586   2.411   2.074   0.135
 3196WAT    HW1 9587   2.368   2.154   0.093
 3196WAT    HW2 9588   2.469   2.103   0.211
 3197WAT     OW 9589   3.800   5.823   5.914
 3197WAT    HW1 9590   3.880   5.802   5.858
 3197WAT    HW2 9591   3.796   5.921   5.933
 3198WAT     OW 9592   2.158   5.140   1.858
 3198WAT    HW1 9593   2.197   5.222   1.817
 3198WAT    HW2 9594   2.207   5.118   1.942
 3199WAT     OW 9595   0.864   5.522   0.692
 3199WAT    HW1 9596   0.828   5.459   0.761
 3199WAT    HW2 9597   0.964   5.521   0.696
 3200WAT     OW 9598   2.150   6.380   2.738
 3200WAT    HW1 9599   2.076   6.432   2.779
 3200WAT    HW2 9600   2.139   6.283   2.757
 3201WAT     OW 9601   4.258   2.369   2.628
 3201WAT    HW1 9602   4.345   2.346   2.585
 3201WAT    HW2 9603   4.264   2.461   2.668
 3202WAT     OW 9604   4.154   1.938   0.025
 3202WAT    HW1 9605   4.064   1.945   0.069
 3202WAT    HW2 9606   4.219   1.996   0.075
 3203WAT     OW 9607   2.588   5.266   6.353
 3203WAT    HW1 9608   2.601   5.313   6.441
 3203WAT    HW2 9609   2.646   5.308   6.284
 3204WAT     OW 9610   0.716   3.528   3.966
 3204WAT    HW1 9611   0.690   3.578   4.048
 3204WAT    HW2 9612   0.808   3.558   3.937
 3205WAT     OW 9613   2.587   0.320   3.245
 3205WAT    HW1 9614   2.660   0.260   3.280
 3205WAT    HW2 9615   2.624   0.379   3.174
 3206WAT     OW 9616   4.205   4.131   3.458
 3206WAT    HW1 9617   4.174   4.075   3.381
 3206WAT    HW2 9618   4.277   4.193   3.426
 3207WAT     OW 9619   2.897   6.054   0.877
 3207WAT    HW1 9620   2.931   6.146   0.861
 3207WAT    HW2 9621   2.966   6.000   0.926
 3208WAT     OW 9622   0.694   5.568   2.704
 3208WAT    HW1 9623   0.760   5.572   2.629
 3208WAT    HW2 9624   0.642   5.483   2.700
 3209WAT     OW 9625   2.055   3.419   2.017
 3209WAT    HW1 9626   2.105   3.369   2.087
 3209WAT    HW2 9627   2.120   3.457   1.951
 3210WAT     OW 9628   0.201   1.092   4.465
 3210WAT    HW1 9629   0.209   1.178   4.517
 3210WAT    HW2 9630   0.110   1.053   4.479
 3211WAT     OW 9631   0.494   3.550   6.183
 3211WAT    HW1 9632   0.488   3.539   6.084
 3211WAT    HW2 9633   0.581   3.511   6.215
 3212WAT     OW 9634   1.364   5.574   6.007
 3212WAT    HW1 9635   1.286   5.534   6.055
 3212WAT    HW2 9636   1.383   5.521   5.924
 3213WAT     OW 9637   1.223   4.717   6.029
 3213WAT    HW1 9638   1.306   4.727   5.974
 3213WAT    HW2 9639   1.246   4.676   6.117
 3214WAT     OW 9640   2.982   1.674   4.057
 3214WAT    HW1 9641   2.883   1.674   4.050
 3214WAT    HW2 9642   3.011   1.610   4.128
 3215WAT     OW 9643   0.102   1.109   0.763
 3215WAT    HW1 9644   0.132   1.061   0.681
 3215WAT    HW2 9645   0.158   1.081   0.841
 3216WAT     OW 9646   3.249   2.458   2.964
 3216WAT    HW1 9647   3.256   2.510   3.049
 3216WAT    HW2 9648   3.337   2.460   2.917
 3217WAT     OW 9649   2.522   1.165   2.965
 3217WAT    HW1 9650   2.426   1.151   2.939
 3217WAT    HW2 9651   2.545   1.262   2.960
 3218WAT     OW 9652   0.297   0.941   4.049
 3218WAT    HW1 9653   0.278   1.016   4.112
 3218WAT    HW2 9654   0.374   0.964   3.990
 3219WAT     OW 9655   0.867   1.914   5.166
 3219WAT    HW1 9656   0.900   1.967   5.088
 3219WAT    HW2 9657   0.933   1.843   5.189
 3220WAT     OW 9658   1.485   4.608   0.316
 3220WAT    HW1 9659   1.430   4.643   0.240
 3220WAT    HW2 9660   1.537   4.683   0.356
 3221WAT     OW 9661   4.528   1.688   2.627
 3221WAT    HW1 9662   4.478   1.622   2.571
 3221WAT    HW2 9663   4.492   1.780   2.613
 3222WAT     OW 9664   3.489   1.929   1.924
 3222WAT    HW1 9665   3.495   1.923   1.824
 3222WAT    HW2 9666   3.432   1.854   1.958
 3223WAT     OW 9667   0.652   5.070   5.441
 3223WAT    HW1 9668   0.561   5.103   5.417
 3223WAT    HW2 9669   0.656   4.971   5.431
 3224WAT     OW 9670   2.451   1.988   2.222
 3224WAT    HW1 9671   2.455   1.891   2.243
 3224WAT    HW2 9672   2.360   2.011   2.186
 3225WAT     OW 9673   4.533   3.270   6.416
 3225WAT    HW1 9674   4.591   3.243   6.339
 3225WAT    HW2 9675   4.527   3.370   6.420
 3226WAT     OW 9676   6.030   3.689   4.454
 3226WAT    HW1 9677   5.990   3.642   4.533
 3226WAT    HW2 9678   5.961   3.747   4.411
 3227WAT     OW 9679   4.240   2.694   0.135
 3227WAT    HW1 9680   4.257   2.603   0.174
 3227WAT    HW2 9681   4.203   2.754   0.205
 3228WAT     OW 9682   2.495   1.404   5.823
 3228WAT    HW1 9683   2.442   1.418   5.907
 3228WAT    HW2 9684   2.578   1.459   5.827
 3229WAT     OW 9685   3.267   3.402   5.651
 3229WAT    HW1 9686   3.210   3.461   5.595
 3229WAT    HW2 9687   3.212   3.329   5.691
 3230WAT     OW 9688   0.585   3.653   3.743
 3230WAT    HW1 9689   0.620   3.603   3.822
 3230WAT    HW2 9690   0.576   3.592   3.665
 3231WAT     OW 9691   1.071   1.169   2.326
 3231WAT    HW1 9692   1.004   1.114   2.275
 3231WAT    HW2 9693   1.023   1.236   2.382
 3232WAT     OW 9694   1.704   0.091   0.134
 3232WAT    HW1 9695   1.642   0.079   0.211
 3232WAT    HW2 9696   1.785   0.034   0.147
 3233WAT     OW 9697   1.700   1.115   2.029
 3233WAT    HW1 9698   1.644   1.089   1.950
 3233WAT    HW2 9699   1.641   1.128   2.108
 3234WAT     OW 9700   0.883   4.684   4.492
 3234WAT    HW1 9701   0.916   4.614   4.556
 3234WAT    HW2 9702   0.792   4.713   4.519
 3235WAT     OW 9703   4.760   2.230   1.311
 3235WAT    HW1 9704   4.670   2.267   1.333
 3235WAT    HW2 9705   4.784   2.254   1.217
 3236WAT     OW 9706   0.013   0.940   3.268
 3236WAT    HW1 9707   0.032   0.967   3.363
 3236WAT    HW2 9708  -0.069   0.987   3.236
 3237WAT     OW 9709   5.907   5.246   4.108
 3237WAT    HW1 9710   5.854   5.330   4.098
 3237WAT    HW2 9711   5.890   5.186   4.029
 3238WAT     OW 9712   3.132   6.042   1.442
 3238WAT    HW1 9713   3.157   5.945   1.448
 3238WAT    HW2 9714   3.172   6.082   1.360
 3239WAT     OW 9715   5.325   2.036   5.003
 3239WAT    HW1 9716   5.360   2.013   5.094
 3239WAT    HW2 9717   5.254   2.105   5.011
 3240WAT     OW 9718   4.808   3.462   5.171
 3240WAT    HW1 9719   4.897   3.420   5.155
 3240WAT    HW2 9720   4.779   3.445   5.265
 3241WAT     OW 9721   0.198   3.832   3.025
 3241WAT    HW1 9722   0.156   3.742   3.042
 3241WAT    HW2 9723   0.127   3.898   3.002
 3242WAT     OW 9724   4.637   3.733   3.741
 3242WAT    HW1 9725   4.654   3.732   3.839
 3242WAT    HW2 9726   4.717   3.769   3.693
 3243WAT     OW 9727   3.167   3.349   1.496
 3243WAT    HW1 9728   3.154   3.362   1.595
 3243WAT    HW2 9729   3.196   3.435   1.455
 3244WAT     OW 9730   4.976   1.724   4.169
 3244WAT    HW1 9731   5.045   1.786   4.131
 3244WAT    HW2 9732   5.007   1.691   4.258
 3245WAT     OW 9733   1.990   4.082   6.597
 3245WAT    HW1 9734   1.944   4.055   6.681
 3245WAT    HW2 9735   2.081   4.041   6.594
 3246WAT     OW 9736   2.600   2.855   5.414
 3246WAT    HW1 9737   2.658   2.797   5.356
 3246WAT    HW2 9738   2.555   2.798   5.483
 3247WAT     OW 9739   2.357   0.661   4.698
 3247WAT    HW1 9740   2.443   0.702   4.668
 3247WAT    HW2 9741   2.284   0.730   4.696
 3248WAT     OW 9742   1.541   1.140   0.744
 3248WAT    HW1 9743   1.610   1.074   0.712
 3248WAT    HW2 9744   1.562   1.168   0.837
 3249WAT     OW 9745   2.381   2.214   1.665
 3249WAT    HW1 9746   2.474   2.202   1.698
 3249WAT    HW2 9747   2.361   2.312   1.657
 3250WAT     OW 9748   3.024   0.462   5.063
 3250WAT    HW1 9749   3.122   0.467   5.082
 3250WAT    HW2 9750   3.002   0.521   4.985
 3251WAT     OW 9751   4.438   6.219   0.975
 3251WAT    HW1 9752   4.446   6.234   1.074
 3251WAT    HW2 9753   4.374   6.285   0.937
 3252WAT     OW 9754   0.605   1.876   0.956
 3252WAT    HW1 9755   0.600   1.785   0.914
 3252WAT    HW2 9756   0.699   1.894   0.984
 3253WAT     OW 9757   0.454   0.188   3.240
 3253WAT    HW1 9758   0.474   0.092   3.257
 3253WAT    HW2 9759   0.537   0.242   3.255
 3254WAT     OW 9760   5.000   0.635   6.238
 3254WAT    HW1 9761   4.919   0.689   6.256
 3254WAT    HW2 9762   5.045   0.612   6.324
 3255WAT     OW 9763   3.894   3.285   5.731
 3255WAT    HW1 9764   3.893   3.337   5.816
 3255WAT    HW2 9765   3.885   3.187   5.752
 3256WAT     OW 9766   1.626   0.932   3.801
 3256WAT    HW1 9767   1.721   0.910   3.825
 3256WAT    HW2 9768   1.591   1.000   3.866
 3257WAT     OW 9769   1.699   1.919   0.206
 3257WAT    HW1 9770   1.739   1.883   0.290
 3257WAT    HW2 9771   1.697   2.019   0.211
 3258WAT     OW 9772   2.921   1.064   3.362
 3258WAT    HW1 9773   2.838   1.119   3.351
 3258WAT    HW2 9774   2.991   1.118   3.408
 3259WAT     OW 9775   1.280   5.441   0.934
 3259WAT    HW1 9776   1.361   5.415   0.882
 3259WAT    HW2 9777   1.296   5.425   1.031
 3260WAT     OW 9778   6.091   5.049   3.752
 3260WAT    HW1 9779   6.170   5.111   3.761
 3260WAT    HW2 9780   6.120   4.956   3.775
 3261WAT     OW 9781   6.314   1.338   5.113
 3261WAT    HW1 9782   6.330   1.400   5.035
 3261WAT    HW2 9783   6.254   1.383   5.179
 3262WAT     OW 9784   5.000   2.421   2.792
 3262WAT    HW1 9785   5.008   2.471   2.706
 3262WAT    HW2 9786   5.034   2.478   2.867
 3263WAT     OW 9787   6.277   1.435   2.993
 3263WAT    HW1 9788   6.296   1.350   2.944
 3263WAT    HW2 9789   6.339   1.444   3.071
 3264WAT     OW 9790   5.611   3.254   3.080
 3264WAT    HW1 9791   5.555   3.318   3.027
 3264WAT    HW2 9792   5.633   3.174   3.024
 3265WAT     OW 9793   5.177   5.057   3.127
 3265WAT    HW1 9794   5.153   4.970   3.083
 3265WAT    HW2 9795   5.276   5.062   3.138
 3266WAT     OW 9796   4.635   2.915   3.828
 3266WAT    HW1 9797   4.706   2.884   3.765
 3266WAT    HW2 9798   4.549   2.928   3.778
 3267WAT     OW 9799   3.019   1.342   5.158
 3267WAT    HW1 9800   2.933   1.290   5.163
 3267WAT    HW2 9801   3.095   1.278   5.147
 3268WAT     OW 9802   5.401   5.219   4.723
 3268WAT    HW1 9803   5.457   5.159   4.780
 3268WAT    HW2 9804   5.342   5.275   4.781
 3269WAT     OW 9805   3.343   0.175   3.674
 3269WAT    HW1 9806   3.356   0.247   3.742
 3269WAT    HW2 9807   3.247   0.172   3.646
 3270WAT     OW 9808   6.456   2.089   1.423
 3270WAT    HW1 9809   6.491   2.012   1.370
 3270WAT    HW2 9810   6.449   2.170   1.365
 3271WAT     OW 9811   1.066   2.762   3.117
 3271WAT    HW1 9812   1.161   2.776   3.090
 3271WAT    HW2 9813   1.023   2.698   3.055
 3272WAT     OW 9814   0.422   2.182   2.889
 3272WAT    HW1 9815   0.434   2.246   2.964
 3272WAT    HW2 9816   0.469   2.216   2.808
 3273WAT     OW 9817   0.357   0.589   0.251
 3273WAT    HW1 9818   0.380   0.682   0.222
 3273WAT    HW2 9819   0.297   0.593   0.331
 3274WAT     OW 9820   3.849   3.057   1.366
 3274WAT    HW1 9821   3.879   3.082   1.458
 3274WAT    HW2 9822   3.907   3.104   1.299
 3275WAT     OW 9823   2.128   4.073   1.478
 3275WAT    HW1 9824   2.081   4.148   1.524
 3275WAT    HW2 9825   2.191   4.028   1.542
 3276WAT     OW 9826   4.239   4.679   2.823
 3276WAT    HW1 9827   4.316   4.722   2.870
 3276WAT    HW2 9828   4.153   4.711   2.863
 3277WAT     OW 9829   3.671   2.360   6.482
 3277WAT    HW1 9830   3.748   2.296   6.485
 3277WAT    HW2 9831   3.616   2.343   6.401
 3278WAT     OW 9832   0.542   6.591   2.619
 3278WAT    HW1 9833   0.502   6.502   2.596
 3278WAT    HW2 9834   0.635   6.578   2.653
 3279WAT     OW 9835   5.887   3.357   3.363
 3279WAT    HW1 9836   5.852   3.368   3.456
 3279WAT    HW2 9837   5.881   3.444   3.315
 3280WAT     OW 9838   4.837   5.645   0.847
 3280WAT    HW1 9839   4.795   5.578   0.907
 3280WAT    HW2 9840   4.922   5.608   0.809
 3281WAT     OW 9841   4.483   4.387   2.946
 3281WAT    HW1 9842   4.530   4.299   2.938
 3281WAT    HW2 9843   4.402   4.388   2.888
 3282WAT     OW 9844   3.804   1.510   4.540
 3282WAT    HW1 9845   3.893   1.492   4.500
 3282WAT    HW2 9846   3.780   1.606   4.527
 3283WAT     OW 9847   3.608   5.140   5.883
 3283WAT    HW1 9848   3.519   5.127   5.839
 3283WAT    HW2 9849   3.623   5.067   5.950
 3284WAT     OW 9850   5.426   0.605   1.856
 3284WAT    HW1 9851   5.334   0.638   1.874
 3284WAT    HW2 9852   5.450   0.623   1.760
 3285WAT     OW 9853   4.479   1.107   2.601
 3285WAT    HW1 9854   4.518   1.184   2.549
 3285WAT    HW2 9855   4.537   1.027   2.589
 3286WAT     OW 9856   1.691   2.184   3.445
 3286WAT    HW1 9857   1.738   2.108   3.401
 3286WAT    HW2 9858   1.738   2.270   3.423
 3287WAT     OW 9859   0.830   0.578   1.536
 3287WAT    HW1 9860   0.922   0.563   1.573
 3287WAT    HW2 9861   0.838   0.600   1.439
 3288WAT     OW 9862   3.842   3.099   5.267
 3288WAT    HW1 9863   3.933   3.071   5.236
 3288WAT    HW2 9864   3.846   3.193   5.302
 3289WAT     OW 9865   4.061   1.924   0.591
 3289WAT    HW1 9866   4.112   1.910   0.506
 3289WAT    HW2 9867   3.985   1.987   0.575
 3290WAT     OW 9868   6.571   1.668   3.049
 3290WAT    HW1 9869   6.662   1.685   3.087
 3290WAT    HW2 9870   6.514   1.748   3.064
 3291WAT     OW 9871   0.722   2.050   1.783
 3291WAT    HW1 9872   0.630   2.012   1.781
 3291WAT    HW2 9873   0.749   2.067   1.878
 3292WAT     OW 9874   4.787   2.629   0.124
 3292WAT    HW1 9875   4.780   2.574   0.041
 3292WAT    HW2 9876   4.880   2.667   0.131
 3293WAT     OW 9877   4.946   3.856   5.638
 3293WAT    HW1 9878   4.935   3.771   5.586
 3293WAT    HW2 9879   4.858   3.902   5.647
 3294WAT     OW 9880   4.996   5.141   0.239
 3294WAT    HW1 9881   5.050   5.066   0.279
 3294WAT    HW2 9882   5.019   5.227   0.286
 3295WAT     OW 9883   0.823   4.943   4.860
 3295WAT    HW1 9884   0.751   4.879   4.834
 3295WAT    HW2 9885   0.857   4.990   4.779
 3296WAT     OW 9886   4.372   6.151   6.687
 3296WAT    HW1 9887   4.283   6.105   6.691
 3296WAT    HW2 9888   4.444   6.087   6.714
 3297WAT     OW 9889   5.987   3.003   5.241
 3297WAT    HW1 9890   6.038   2.990   5.156
 3297WAT    HW2 9891   6.044   3.050   5.308
 3298WAT     OW 9892   5.612   1.803   5.246
 3298WAT    HW1 9893   5.633   1.779   5.151
 3298WAT    HW2 9894   5.523   1.850   5.249
 3299WAT     OW 9895   0.967   0.047   6.053
 3299WAT    HW1 9896   0.930  -0.035   6.010
 3299WAT    HW2 9897   0.927   0.057   6.144
 3300WAT     OW 9898   4.930   1.232   5.924
 3300WAT    HW1 9899   4.861   1.200   5.859
 3300WAT    HW2 9900   4.934   1.331   5.923
 3301WAT     OW 9901   1.132   1.052   0.124
 3301WAT    HW1 9902   1.106   1.026   0.031
 3301WAT    HW2 9903   1.052   1.086   0.174
 3302WAT     OW 9904   6.442   3.902   0.887
 3302WAT    HW1 9905   6.359   3.923   0.835
 3302WAT    HW2 9906   6.450   3.803   0.899
 3303WAT     OW 9907   0.707   5.486   3.139
 3303WAT    HW1 9908   0.623   5.449   3.099
 3303WAT    HW2 9909   0.687   5.523   3.230
 3304WAT     OW 9910   3.921   4.058   5.286
 3304WAT    HW1 9911   3.921   4.136   5.224
 3304WAT    HW2 9912   3.858   4.077   5.362
 3305WAT     OW 9913   5.294   0.598   4.608
 3305WAT    HW1 9914   5.205   0.604   4.653
 3305WAT    HW2 9915   5.283   0.554   4.519
 3306WAT     OW 9916   3.296   4.593   3.268
 3306WAT    HW1 9917   3.217   4.630   3.317
 3306WAT    HW2 9918   3.376   4.596   3.328
 3307WAT     OW 9919   4.811   1.873   5.243
 3307WAT    HW1 9920   4.753   1.945   5.207
 3307WAT    HW2 9921   4.815   1.879   5.343
 3308WAT     OW 9922   2.316   5.585   3.211
 3308WAT    HW1 9923   2.401   5.553   3.170
 3308WAT    HW2 9924   2.277   5.511   3.267
 3309WAT     OW 9925   0.983   5.092   5.246
 3309WAT    HW1 9926   0.964   5.116   5.341
 3309WAT    HW2 9927   0.898   5.074   5.198
 3310WAT     OW 9928   0.481   5.064   1.793
 3310WAT    HW1 9929   0.535   5.134   1.746
 3310WAT    HW2 9930   0.429   5.106   1.868
 3311WAT     OW 9931   2.874   6.064   2.984
 3311WAT    HW1 9932   2.917   6.021   2.905
 3311WAT    HW2 9933   2.917   6.031   3.068
 3312WAT     OW 9934   5.343   3.870   1.797
 3312WAT    HW1 9935   5.305   3.922   1.873
 3312WAT    HW2 9936   5.371   3.933   1.724
 3313WAT     OW 9937   5.067   5.925   2.750
 3313WAT    HW1 9938   5.117   5.997   2.702
 3313WAT    HW2 9939   5.021   5.866   2.683
 3314WAT     OW 9940   4.795   1.288   0.098
 3314WAT    HW1 9941   4.740   1.261   0.177
 3314WAT    HW2 9942   4.755   1.252   0.014
 3315WAT     OW 9943   3.166   3.627   2.260
 3315WAT    HW1 9944   3.223   3.627   2.342
 3315WAT    HW2 9945   3.142   3.722   2.236
 3316WAT     OW 9946   3.341   2.595   0.026
 3316WAT    HW1 9947   3.424   2.542   0.041
 3316WAT    HW2 9948   3.339   2.629  -0.068
 3317WAT     OW 9949   4.447   5.656   3.874
 3317WAT    HW1 9950   4.418   5.670   3.969
 3317WAT    HW2 9951   4.455   5.744   3.828
 3318WAT     OW 9952   1.353   0.082   6.179
 3318WAT    HW1 9953   1.452   0.076   6.190
 3318WAT    HW2 9954   1.308   0.034   6.254
 3319WAT     OW 9955   1.743   4.156   1.345
 3319WAT    HW1 9956   1.821   4.185   1.290
 3319WAT    HW2 9957   1.674   4.114   1.286
 3320WAT     OW 9958   0.049   4.459   6.510
 3320WAT    HW1 9959   0.040   4.551   6.547
 3320WAT    HW2 9960  -0.042   4.420   6.495
 3321WAT     OW 9961   1.521   0.674   1.511
 3321WAT    HW1 9962   1.578   0.719   1.580
 3321WAT    HW2 9963   1.578   0.639   1.437
 3322WAT     OW 9964   4.898   5.996   4.103
 3322WAT    HW1 9965   4.809   6.035   4.126
 3322WAT    HW2 9966   4.946   6.058   4.040
 3323WAT     OW 9967   4.379   0.860   2.196
 3323WAT    HW1 9968   4.392   0.811   2.110
 3323WAT    HW2 9969   4.422   0.809   2.270
 3324WAT     OW 9970   5.151   4.240   0.743
 3324WAT    HW1 9971   5.242   4.210   0.714
 3324WAT    HW2 9972   5.108   4.170   0.799
 3325WAT     OW 9973   2.707   2.566   1.468
 3325WAT    HW1 9974   2.684   2.474   1.438
 3325WAT    HW2 9975   2.788   2.598   1.419
 3326WAT     OW 9976   4.974   2.921   4.516
 3326WAT    HW1 9977   4.902   2.972   4.562
 3326WAT    HW2 9978   5.046   2.984   4.487
 3327WAT     OW 9979   2.730   3.211   4.919
 3327WAT    HW1 9980   2.787   3.294   4.921
 3327WAT    HW2 9981   2.713   3.181   5.013
 3328WAT     OW 9982   4.884   0.029   5.393
 3328WAT    HW1 9983   4.944  -0.007   5.464
 3328WAT    HW2 9984   4.860  -0.045   5.330
 3329WAT     OW 9985   4.498   1.743   3.953
 3329WAT    HW1 9986   4.586   1.762   3.997
 3329WAT    HW2 9987   4.430   1.808   3.985
 3330WAT     OW 9988   1.366   3.845   0.044
 3330WAT    HW1 9989   1.370   3.746   0.058
 3330WAT    HW2 9990   1.294   3.866  -0.022
 3331WAT     OW 9991   1.677   0.183   0.820
 3331WAT    HW1 9992   1.584   0.179   0.783
 3331WAT    HW2 9993   1.740   0.137   0.758
 3332WAT     OW 9994   5.974   6.089   3.765
 3332WAT    HW1 9995   5.928   6.177   3.760
 3332WAT    HW2 9996   6.026   6.083   3.850
 3333WAT     OW 9997   4.324   0.527   1.373
 3333WAT    HW1 9998   4.334   0.626   1.378
 3333WAT    HW2 9999   4.396   0.483   1.427
 3334WAT     OW10000   3.642   1.733   5.867
 3334WAT    HW110001   3.734   1.771   5.870
 3334WAT    HW210002   3.622   1.687   5.953
 3335WAT     OW10003   1.550   1.599   6.379
 3335WAT    HW110004   1.546   1.597   6.479
 3335WAT    HW210005   1.636   1.640   6.349
 3336WAT     OW10006   1.519   4.914   5.694
 3336WAT    HW110007   1.463   4.945   5.617
 3336WAT    HW210008   1.529   4.989   5.760
 3337WAT     OW10009   1.858   0.065   0.663
 3337WAT    HW110010   1.940   0.121   0.674
 3337WAT    HW210011   1.846   0.041   0.567
 3338WAT     OW10012   2.139   0.224   5.281
 3338WAT    HW110013   2.056   0.170   5.287
 3338WAT    HW210014   2.120   0.310   5.233
 3339WAT     OW10015   6.531   4.057   5.160
 3339WAT    HW110016   6.525   4.062   5.060
 3339WAT    HW210017   6.466   3.989   5.194
 3340WAT     OW10018   5.041   2.578   0.756
 3340WAT    HW110019   5.074   2.653   0.699
 3340WAT    HW210020   4.947   2.557   0.732
 3341WAT     OW10021   3.903   3.797   1.124
 3341WAT    HW110022   3.845   3.864   1.170
 3341WAT    HW210023   3.998   3.830   1.124
 3342WAT     OW10024   2.762   5.812   3.357
 3342WAT    HW110025   2.720   5.731   3.400
 3342WAT    HW210026   2.692   5.883   3.345
 3343WAT     OW10027   3.485   5.755   4.970
 3343WAT    HW110028   3.446   5.831   4.919
 3343WAT    HW210029   3.545   5.702   4.909
 3344WAT     OW10030   5.881   3.307   4.730
 3344WAT    HW110031   5.807   3.280   4.792
 3344WAT    HW210032   5.899   3.232   4.666
 3345WAT     OW10033   3.830   6.351   0.577
 3345WAT    HW110034   3.788   6.311   0.658
 3345WAT    HW210035   3.772   6.425   0.543
 3346WAT     OW10036   1.116   3.026   4.307
 3346WAT    HW110037   1.082   3.016   4.400
 3346WAT    HW210038   1.196   3.085   4.307
 3347WAT     OW10039   1.859   6.382   3.920
 3347WAT    HW110040   1.930   6.329   3.968
 3347WAT    HW210041   1.848   6.470   3.966
 3348WAT     OW10042   1.970   2.079   3.004
 3348WAT    HW110043   1.886   2.118   3.043
 3348WAT    HW210044   1.965   2.085   2.904
 3349WAT     OW10045   5.666   6.668   1.770
 3349WAT    HW110046   5.675   6.767   1.772
 3349WAT    HW210047   5.753   6.627   1.744
 3350WAT     OW10048   2.169   2.424   2.933
 3350WAT    HW110049   2.193   2.373   3.016
 3350WAT    HW210050   2.160   2.521   2.955
 3351WAT     OW10051   2.238   4.328   4.530
 3351WAT    HW110052   2.244   4.230   4.512
 3351WAT    HW210053   2.148   4.350   4.569
 3352WAT     OW10054   6.119   1.262   5.754
 3352WAT    HW110055   6.216   1.271   5.776
 3352WAT    HW210056   6.108   1.253   5.655
 3353WAT     OW10057   1.786   3.741   0.149
 3353WAT    HW110058   1.861   3.691   0.192
 3353WAT    HW210059   1.699   3.711   0.190
 3354WAT     OW10060   2.909   3.044   3.811
 3354WAT    HW110061   2.940   3.092   3.893
 3354WAT    HW210062   2.857   3.106   3.753
 3355WAT     OW10063   5.120   5.572   0.087
 3355WAT    HW110064   5.120   5.473   0.071
 3355WAT    HW210065   5.178   5.617   0.019
 3356WAT     OW10066   5.351   1.784   6.508
 3356WAT    HW110067   5.333   1.878   6.539
 3356WAT    HW210068   5.330   1.777   6.410
 3357WAT     OW10069   4.789   3.244   0.505
 3357WAT    HW110070   4.806   3.188   0.587
 3357WAT    HW210071   4.850   3.215   0.432
 3358WAT     OW10072   1.562   0.166   4.747
 3358WAT    HW110073   1.527   0.072   4.741
 3358WAT    HW210074   1.486   0.230   4.740
 3359WAT     OW10075   1.594   2.348   1.564
 3359WAT    HW110076   1.601   2.293   1.648
 3359WAT    HW210077   1.504   2.392   1.561
 3360WAT     OW10078   4.001   1.318   1.315
 3360WAT    HW110079   4.031   1.408   1.344
 3360WAT    HW210080   3.995   1.257   1.394
 3361WAT     OW10081   1.748   0.311   6.673
 3361WAT    HW110082   1.729   0.236   6.736
 3361WAT    HW210083   1.668   0.326   6.614
 3362WAT     OW10084   5.710   4.920   1.439
 3362WAT    HW110085   5.694   4.823   1.418
 3362WAT    HW210086   5.629   4.973   1.415
 3363WAT     OW10087   6.498   5.808   4.728
 3363WAT    HW110088   6.538   5.875   4.666
 3363WAT    HW210089   6.531   5.717   4.704
 3364WAT     OW10090   0.806   0.140   0.908
 3364WAT    HW110091   0.762   0.136   0.998
 3364WAT    HW210092   0.900   0.108   0.916
 3365WAT     OW10093   3.286   2.765   1.638
 3365WAT    HW110094   3.195   2.790   1.672
 3365WAT    HW210095   3.316   2.831   1.570
 3366WAT     OW10096   0.451   6.191   5.031
 3366WAT    HW110097   0.369   6.178   4.975
 3366WAT    HW210098   0.489   6.102   5.056
 3367WAT     OW10099   6.665   1.983   0.718
 3367WAT    HW110100   6.699   1.896   0.754
 3367WAT    HW210101   6.612   2.030   0.788
 3368WAT     OW10102   6.474   6.491   5.257
 3368WAT    HW110103   6.389   6.484   5.309
 3368WAT    HW210104   6.552   6.480   5.319
 3369WAT     OW10105   5.497   6.324   1.245
 3369WAT    HW110106   5.558   6.402   1.258
 3369WAT    HW210107   5.551   6.241   1.230
 3370WAT     OW10108   3.716   0.513   4.762
 3370WAT    HW110109   3.786   0.494   4.693
 3370WAT    HW210110   3.692   0.428   4.809
 3371WAT     OW10111   6.323   4.361   2.165
 3371WAT    HW110112   6.379   4.280   2.180
 3371WAT    HW210113   6.312   4.377   2.066
 3372WAT     OW10114   5.308   0.844   1.470
 3372WAT    HW110115   5.238   0.776   1.446
 3372WAT    HW210116   5.283   0.890   1.554
 3373WAT     OW10117   1.379   5.636   0.101
 3373WAT    HW110118   1.462   5.652   0.048
 3373WAT    HW210119   1.327   5.721   0.110
 3374WAT     OW10120   3.144   1.593   3.515
 3374WAT    HW110121   3.170   1.524   3.447
 3374WAT    HW210122   3.184   1.569   3.604
 3375WAT     OW10123   3.170   6.119   3.564
 3375WAT    HW110124   3.118   6.185   3.618
 3375WAT    HW210125   3.235   6.167   3.505
 3376WAT     OW10126   3.251   6.018   1.891
 3376WAT    HW110127   3.285   6.002   1.798
 3376WAT    HW210128   3.246   5.932   1.940
 3377WAT     OW10129   2.822   4.980   2.615
 3377WAT    HW110130   2.799   4.924   2.694
 3377WAT    HW210131   2.816   4.926   2.532
 3378WAT     OW10132   3.490   0.617   4.627
 3378WAT    HW110133   3.562   0.578   4.685
 3378WAT    HW210134   3.423   0.664   4.685
 3379WAT     OW10135   5.351   1.451   4.231
 3379WAT    HW110136   5.317   1.358   4.244
 3379WAT    HW210137   5.371   1.466   4.134
 3380WAT     OW10138   0.446   2.873   3.176
 3380WAT    HW110139   0.389   2.822   3.112
 3380WAT    HW210140   0.487   2.810   3.242
 3381WAT     OW10141   1.959   2.080   2.729
 3381WAT    HW110142   1.887   2.012   2.735
 3381WAT    HW210143   2.046   2.035   2.709
 3382WAT     OW10144   2.816   6.416   4.617
 3382WAT    HW110145   2.872   6.406   4.699
 3382WAT    HW210146   2.721   6.430   4.644
 3383WAT     OW10147   2.863   1.207   3.640
 3383WAT    HW110148   2.825   1.299   3.647
 3383WAT    HW210149   2.955   1.212   3.600
 3384WAT     OW10150   1.033   4.712   5.228
 3384WAT    HW110151   1.096   4.790   5.236
 3384WAT    HW210152   1.034   4.660   5.314
 3385WAT     OW10153   1.784   0.120   3.744
 3385WAT    HW110154   1.832   0.181   3.807
 3385WAT    HW210155   1.720   0.062   3.795
 3386WAT     OW10156   0.852   4.127   6.128
 3386WAT    HW110157   0.915   4.100   6.055
 3386WAT    HW210158   0.784   4.190   6.091
 3387WAT     OW10159   3.541   3.864   3.097
 3387WAT    HW110160   3.571   3.861   3.192
 3387WAT    HW210161   3.484   3.784   3.078
 3388WAT     OW10162   4.967   0.256   3.586
 3388WAT    HW110163   5.061   0.238   3.558
 3388WAT    HW210164   4.907   0.187   3.545
 3389WAT     OW10165   3.362   1.837   6.196
 3389WAT    HW110166   3.354   1.908   6.266
 3389WAT    HW210167   3.379   1.880   6.107
 3390WAT     OW10168   1.074   1.602   5.007
 3390WAT    HW110169   1.055   1.671   4.938
 3390WAT    HW210170   1.029   1.516   4.982
 3391WAT     OW10171   5.117   0.227   6.251
 3391WAT    HW110172   5.172   0.143   6.246
 3391WAT    HW210173   5.055   0.221   6.329
 3392WAT     OW10174   6.155   2.800   0.132
 3392WAT    HW110175   6.076   2.859   0.145
 3392WAT    HW210176   6.237   2.847   0.165
 3393WAT     OW10177   4.404   5.801   5.902
 3393WAT    HW110178   4.453   5.840   5.981
 3393WAT    HW210179   4.328   5.745   5.934
 3394WAT     OW10180   5.109   3.441   5.532
 3394WAT    HW110181   5.120   3.394   5.619
 3394WAT    HW210182   5.132   3.379   5.457
 3395WAT     OW10183   5.887   1.577   1.499
 3395WAT    HW110184   5.866   1.490   1.545
 3395WAT    HW210185   5.833   1.650   1.542
 3396WAT     OW10186   3.500   4.118   5.509
 3396WAT    HW110187   3.445   4.036   5.528
 3396WAT    HW210188   3.457   4.197   5.552
 3397WAT     OW10189   5.251   0.627   5.782
 3397WAT    HW110190   5.266   0.608   5.879
 3397WAT    HW210191   5.298   0.712   5.758
 3398WAT     OW10192   1.632   3.520   6.483
 3398WAT    HW110193   1.646   3.445   6.548
 3398WAT    HW210194   1.634   3.483   6.390
 3399WAT     OW10195   1.682   5.044   2.243
 3399WAT    HW110196   1.727   5.131   2.224
 3399WAT    HW210197   1.645   5.046   2.337
 3400WAT     OW10198   2.283   0.365   2.870
 3400WAT    HW110199   2.382   0.380   2.878
 3400WAT    HW210200   2.258   0.281   2.918
 3401WAT     OW10201   3.182   5.283   5.780
 3401WAT    HW110202   3.244   5.361   5.767
 3401WAT    HW210203   3.128   5.297   5.862
 3402WAT     OW10204   4.182   2.099   1.425
 3402WAT    HW110205   4.170   2.015   1.478
 3402WAT    HW210206   4.092   2.138   1.404
 3403WAT     OW10207   2.923   4.835   1.964
 3403WAT    HW110208   2.984   4.892   1.910
 3403WAT    HW210209   2.925   4.864   2.059
 3404WAT     OW10210   2.017   0.825   5.277
 3404WAT    HW110211   2.033   0.734   5.316
 3404WAT    HW210212   1.940   0.821   5.213
 3405WAT     OW10213   5.379   6.163   4.856
 3405WAT    HW110214   5.373   6.253   4.813
 3405WAT    HW210215   5.353   6.170   4.952
 3406WAT     OW10216   0.773   1.068   3.831
 3406WAT    HW110217   0.808   1.003   3.898
 3406WAT    HW210218   0.793   1.161   3.862
 3407WAT     OW10219   2.955   1.613   1.747
 3407WAT    HW110220   2.870   1.562   1.736
 3407WAT    HW210221   2.935   1.711   1.758
 3408WAT     OW10222   3.855   1.388   5.675
 3408WAT    HW110223   3.854   1.309   5.736
 3408WAT    HW210224   3.768   1.437   5.683
 3409WAT     OW10225   4.977   3.357   4.442
 3409WAT    HW110226   4.965   3.389   4.348
 3409WAT    HW210227   4.898   3.302   4.469
 3410WAT     OW10228   1.762   0.538   5.208
 3410WAT    HW110229   1.712   0.477   5.147
 3410WAT    HW210230   1.856   0.506   5.217
 3411WAT     OW10231   6.029   5.225   5.217
 3411WAT    HW110232   5.947   5.176   5.188
 3411WAT    HW210233   6.081   5.254   5.137
 3412WAT     OW10234   3.483   6.157   2.682
 3412WAT    HW110235   3.523   6.069   2.707
 3412WAT    HW210236   3.532   6.195   2.603
 3413WAT     OW10237   2.459   1.682   1.309
 3413WAT    HW110238   2.467   1.722   1.400
 3413WAT    HW210239   2.504   1.592   1.308
 3414WAT     OW10240   1.067   1.493   1.502
 3414WAT    HW110241   1.136   1.445   1.556
 3414WAT    HW210242   0.979   1.489   1.548
 3415WAT     OW10243   3.074   4.688   3.408
 3415WAT    HW110244   3.007   4.763   3.402
 3415WAT    HW210245   3.096   4.671   3.504
 3416WAT     OW10246   2.069   0.678   0.784
 3416WAT    HW110247   2.113   0.740   0.719
 3416WAT    HW210248   1.999   0.625   0.737
 3417WAT     OW10249   3.000   5.253   1.762
 3417WAT    HW110250   3.074   5.320   1.771
 3417WAT    HW210251   3.025   5.169   1.810
 3418WAT     OW10252   4.096   6.655   0.294
 3418WAT    HW110253   4.069   6.582   0.358
 3418WAT    HW210254   4.017   6.713   0.274
 3419WAT     OW10255   3.321   6.382   6.620
 3419WAT    HW110256   3.292   6.425   6.705
 3419WAT    HW210257   3.374   6.448   6.565
 3420WAT     OW10258   5.176   6.337   0.643
 3420WAT    HW110259   5.103   6.394   0.604
 3420WAT    HW210260   5.227   6.294   0.569
 3421WAT     OW10261   3.105   2.263   4.794
 3421WAT    HW110262   3.017   2.256   4.746
 3421WAT    HW210263   3.148   2.350   4.771
 3422WAT     OW10264   2.017   0.531   4.486
 3422WAT    HW110265   1.942   0.593   4.465
 3422WAT    HW210266   2.052   0.491   4.401
 3423WAT     OW10267   3.786   6.514   6.630
 3423WAT    HW110268   3.744   6.430   6.596
 3423WAT    HW210269   3.769   6.522   6.728
 3424WAT     OW10270   4.532   5.279   2.921
 3424WAT    HW110271   4.490   5.337   2.851
 3424WAT    HW210272   4.537   5.330   3.007
 3425WAT     OW10273   3.620   4.232   5.006
 3425WAT    HW110274   3.618   4.330   5.026
 3425WAT    HW210275   3.582   4.181   5.083
 3426WAT     OW10276   0.476   1.430   1.968
 3426WAT    HW110277   0.429   1.354   1.925
 3426WAT    HW210278   0.437   1.447   2.059
 3427WAT     OW10279   6.312   0.908   1.744
 3427WAT    HW110280   6.332   0.934   1.838
 3427WAT    HW210281   6.233   0.846   1.742
 3428WAT     OW10282   1.939   3.785   4.458
 3428WAT    HW110283   1.892   3.743   4.535
 3428WAT    HW210284   2.032   3.748   4.452
 3429WAT     OW10285   4.191   6.349   5.498
 3429WAT    HW110286   4.282   6.351   5.538
 3429WAT    HW210287   4.123   6.367   5.569
 3430WAT     OW10288   1.356   5.231   5.049
 3430WAT    HW110289   1.401   5.143   5.061
 3430WAT    HW210290   1.425   5.304   5.048
 3431WAT     OW10291   1.938   6.598   0.873
 3431WAT    HW110292   1.906   6.644   0.790
 3431WAT    HW210293   2.006   6.656   0.919
 3432WAT     OW10294   1.573   1.855   4.305
 3432WAT    HW110295   1.501   1.811   4.253
 3432WAT    HW210296   1.568   1.954   4.293
 3433WAT     OW10297   1.608   5.506   6.492
 3433WAT    HW110298   1.609   5.466   6.584
 3433WAT    HW210299   1.686   5.471   6.440
 3434WAT     OW10300   5.630   4.677   6.420
 3434WAT    HW110301   5.658   4.773   6.423
 3434WAT    HW210302   5.600   4.654   6.327
 3435WAT     OW10303   3.621   0.745   0.799
 3435WAT    HW110304   3.523   0.762   0.791
 3435WAT    HW210305   3.640   0.699   0.886
 3436WAT     OW10306   3.236   4.077   5.216
 3436WAT    HW110307   3.249   4.045   5.122
 3436WAT    HW210308   3.179   4.012   5.266
 3437WAT     OW10309   0.302   3.084   4.125
 3437WAT    HW110310   0.292   3.045   4.034
 3437WAT    HW210311   0.400   3.098   4.144
 3438WAT     OW10312   2.869   5.659   1.756
 3438WAT    HW110313   2.832   5.567   1.768
 3438WAT    HW210314   2.810   5.712   1.695
 3439WAT     OW10315   0.090   1.955   5.698
 3439WAT    HW110316   0.178   1.985   5.735
 3439WAT    HW210317   0.018   2.016   5.730
 3440WAT     OW10318   4.769   5.738   6.077
 3440WAT    HW110319   4.781   5.803   6.002
 3440WAT    HW210320   4.723   5.656   6.043
 3441WAT     OW10321   1.040   5.890   5.272
 3441WAT    HW110322   1.054   5.904   5.370
 3441WAT    HW210323   0.942   5.877   5.254
 3442WAT     OW10324   6.475   6.569   3.055
 3442WAT    HW110325   6.474   6.580   3.155
 3442WAT    HW210326   6.472   6.472   3.032
 3443WAT     OW10327   4.964   3.214   0.294
 3443WAT    HW110328   4.914   3.228   0.209
 3443WAT    HW210329   5.027   3.290   0.309
 3444WAT     OW10330   4.225   6.309   0.334
 3444WAT    HW110331   4.319   6.342   0.341
 3444WAT    HW210332   4.166   6.361   0.395
 3445WAT     OW10333   4.536   2.559   0.547
 3445WAT    HW110334   4.475   2.634   0.522
 3445WAT    HW210335   4.500   2.513   0.628
 3446WAT     OW10336   1.301   4.946   2.296
 3446WAT    HW110337   1.328   5.027   2.245
 3446WAT    HW210338   1.334   4.864   2.249
 3447WAT     OW10339   4.574   6.336   4.193
 3447WAT    HW110340   4.644   6.332   4.122
 3447WAT    HW210341   4.604   6.284   4.273
 3448WAT     OW10342   4.317   0.205   0.808
 3448WAT    HW110343   4.404   0.158   0.824
 3448WAT    HW210344   4.242   0.150   0.844
 3449WAT     OW10345   0.042   2.004   0.206
 3449WAT    HW110346   0.128   2.053   0.192
 3449WAT    HW210347  -0.021   2.062   0.257
 3450WAT     OW10348   2.357   5.427   4.040
 3450WAT    HW110349   2.361   5.481   4.124
 3450WAT    HW210350   2.283   5.360   4.046
 3451WAT     OW10351   4.915   3.158   3.249
 3451WAT    HW110352   4.925   3.115   3.159
 3451WAT    HW210353   4.931   3.090   3.320
 3452WAT     OW10354   3.064   0.280   0.608
 3452WAT    HW110355   3.063   0.265   0.707
 3452WAT    HW210356   3.090   0.195   0.562
 3453WAT     OW10357   3.688   3.436   0.719
 3453WAT    HW110358   3.696   3.350   0.668
 3453WAT    HW210359   3.646   3.505   0.661
 3454WAT     OW10360   3.861   6.404   3.625
 3454WAT    HW110361   3.767   6.397   3.658
 3454WAT    HW210362   3.872   6.490   3.576
 3455WAT     OW10363   1.915   0.249   0.307
 3455WAT    HW110364   1.950   0.231   0.215
 3455WAT    HW210365   1.885   0.163   0.349
 3456WAT     OW10366   0.225   1.213   3.634
 3456WAT    HW110367   0.175   1.181   3.715
 3456WAT    HW210368   0.253   1.308   3.648
 3457WAT     OW10369   3.427   4.056   4.730
 3457WAT    HW110370   3.344   4.090   4.686
 3457WAT    HW210371   3.496   4.129   4.733
 3458WAT     OW10372   1.222   2.904   1.908
 3458WAT    HW110373   1.203   2.919   1.811
 3458WAT    HW210374   1.168   2.968   1.963
 3459WAT     OW10375   3.319   1.215   0.578
 3459WAT    HW110376   3.277   1.212   0.487
 3459WAT    HW210377   3.342   1.309   0.601
 3460WAT     OW10378   4.625   3.732   5.564
 3460WAT    HW110379   4.671   3.820   5.574
 3460WAT    HW210380   4.549   3.726   5.629
 3461WAT     OW10381   3.523   4.562   4.781
 3461WAT    HW110382   3.565   4.641   4.734
 3461WAT    HW210383   3.555   4.559   4.876
 3462WAT     OW10384   2.956   2.286   0.514
 3462WAT    HW110385   2.913   2.198   0.533
 3462WAT    HW210386   2.992   2.325   0.599
 3463WAT     OW10387   1.802   3.724   3.409
 3463WAT    HW110388   1.818   3.822   3.412
 3463WAT    HW210389   1.874   3.677   3.459
 3464WAT     OW10390   6.309   0.199   5.795
 3464WAT    HW110391   6.303   0.248   5.882
 3464WAT    HW210392   6.374   0.245   5.735
 3465WAT     OW10393   3.552   4.245   4.466
 3465WAT    HW110394   3.643   4.267   4.431
 3465WAT    HW210395   3.550   4.260   4.565
 3466WAT     OW10396   3.742   4.829   1.167
 3466WAT    HW110397   3.745   4.867   1.074
 3466WAT    HW210398   3.803   4.751   1.173
 3467WAT     OW10399   0.321   4.482   6.467
 3467WAT    HW110400   0.223   4.469   6.483
 3467WAT    HW210401   0.361   4.397   6.432
 3468WAT     OW10402   6.674   0.713   4.443
 3468WAT    HW110403   6.698   0.692   4.348
 3468WAT    HW210404   6.733   0.661   4.504
 3469WAT     OW10405   1.668   4.344   2.089
 3469WAT    HW110406   1.587   4.368   2.036
 3469WAT    HW210407   1.643   4.333   2.185
 3470WAT     OW10408   2.988   1.877   6.589
 3470WAT    HW110409   3.009   1.974   6.576
 3470WAT    HW210410   2.893   1.860   6.564
 3471WAT     OW10411   3.635   4.773   4.627
 3471WAT    HW110412   3.652   4.871   4.633
 3471WAT    HW210413   3.647   4.742   4.532
 3472WAT     OW10414   4.156   4.919   0.551
 3472WAT    HW110415   4.075   4.968   0.519
 3472WAT    HW210416   4.227   4.923   0.480
 3473WAT     OW10417   0.399   5.151   5.387
 3473WAT    HW110418   0.314   5.101   5.402
 3473WAT    HW210419   0.397   5.236   5.439
 3474WAT     OW10420   4.099   4.638   4.243
 3474WAT    HW110421   4.134   4.580   4.170
 3474WAT    HW210422   4.118   4.596   4.331
 3475WAT     OW10423   1.767   1.916   0.850
 3475WAT    HW110424   1.711   1.933   0.931
 3475WAT    HW210425   1.712   1.928   0.768
 3476WAT     OW10426   1.727   5.827   0.106
 3476WAT    HW110427   1.679   5.883   0.173
 3476WAT    HW210428   1.663   5.800   0.034
 3477WAT     OW10429   5.587   6.435   5.043
 3477WAT    HW110430   5.544   6.425   5.133
 3477WAT    HW210431   5.522   6.405   4.973
 3478WAT     OW10432   5.517   0.747   5.488
 3478WAT    HW110433   5.558   0.656   5.495
 3478WAT    HW210434   5.430   0.740   5.439
 3479WAT     OW10435   5.286   2.742   4.156
 3479WAT    HW110436   5.221   2.814   4.133
 3479WAT    HW210437   5.378   2.772   4.130
 3480WAT     OW10438   3.017   0.225   2.774
 3480WAT    HW110439   2.949   0.256   2.841
 3480WAT    HW210440   2.974   0.216   2.684
 3481WAT     OW10441   2.511   3.012   3.915
 3481WAT    HW110442   2.434   2.961   3.953
 3481WAT    HW210443   2.491   3.037   3.821
 3482WAT     OW10444   4.253   5.474   0.896
 3482WAT    HW110445   4.181   5.511   0.954
 3482WAT    HW210446   4.335   5.531   0.905
 3483WAT     OW10447   3.093   5.082   4.086
 3483WAT    HW110448   3.190   5.072   4.063
 3483WAT    HW210449   3.062   5.173   4.059
 3484WAT     OW10450   5.441   1.952   0.141
 3484WAT    HW110451   5.506   2.025   0.161
 3484WAT    HW210452   5.388   1.975   0.060
 3485WAT     OW10453   4.576   4.257   0.431
 3485WAT    HW110454   4.653   4.196   0.449
 3485WAT    HW210455   4.491   4.204   0.436
 3486WAT     OW10456   0.703   6.135   5.843
 3486WAT    HW110457   0.690   6.191   5.925
 3486WAT    HW210458   0.790   6.087   5.850
 3487WAT     OW10459   0.538   3.285   2.412
 3487WAT    HW110460   0.561   3.382   2.408
 3487WAT    HW210461   0.622   3.230   2.410
 3488WAT     OW10462   6.357   3.537   5.898
 3488WAT    HW110463   6.304   3.622   5.898
 3488WAT    HW210464   6.417   3.536   5.978
 3489WAT     OW10465   0.842   0.950   2.797
 3489WAT    HW110466   0.830   0.857   2.762
 3489WAT    HW210467   0.776   0.968   2.870
 3490WAT     OW10468   3.259   1.511   3.748
 3490WAT    HW110469   3.277   1.413   3.740
 3490WAT    HW210470   3.343   1.558   3.775
 3491WAT     OW10471   0.460   5.406   1.115
 3491WAT    HW110472   0.517   5.344   1.168
 3491WAT    HW210473   0.399   5.456   1.177
 3492WAT     OW10474   4.923   5.171   3.883
 3492WAT    HW110475   4.875   5.118   3.952
 3492WAT    HW210476   4.857   5.220   3.825
 3493WAT     OW10477   3.607   0.227   5.267
 3493WAT    HW110478   3.624   0.191   5.358
 3493WAT    HW210479   3.617   0.326   5.267
 3494WAT     OW10480   2.776   2.810   3.025
 3494WAT    HW110481   2.736   2.802   2.934
 3494WAT    HW210482   2.855   2.872   3.021
 3495WAT     OW10483   0.490   3.037   2.824
 3495WAT    HW110484   0.420   2.983   2.777
 3495WAT    HW210485   0.557   2.976   2.866
 3496WAT     OW10486   1.035   0.088   2.939
 3496WAT    HW110487   1.065   0.077   2.844
 3496WAT    HW210488   1.076   0.171   2.978
 3497WAT     OW10489   1.642   1.326   2.805
 3497WAT    HW110490   1.594   1.244   2.772
 3497WAT    HW210491   1.710   1.354   2.737
 3498WAT     OW10492   2.168   5.501   2.914
 3498WAT    HW110493   2.236   5.430   2.928
 3498WAT    HW210494   2.210   5.591   2.931
 3499WAT     OW10495   0.030   3.808   0.739
 3499WAT    HW110496   0.102   3.793   0.807
 3499WAT    HW210497  -0.000   3.903   0.743
 3500WAT     OW10498   0.560   2.393   0.514
 3500WAT    HW110499   0.489   2.457   0.543
 3500WAT    HW210500   0.600   2.424   0.428
 3501WAT     OW10501   1.971   6.656   4.526
 3501WAT    HW110502   1.981   6.725   4.598
 3501WAT    HW210503   1.928   6.574   4.564
 3502WAT     OW10504   6.029   1.376   4.792
 3502WAT    HW110505   6.025   1.282   4.828
 3502WAT    HW210506   6.075   1.375   4.704
 3503WAT     OW10507   0.784   3.669   4.665
 3503WAT    HW110508   0.690   3.642   4.642
 3503WAT    HW210509   0.791   3.769   4.663
 3504WAT     OW10510   6.409   0.532   5.379
 3504WAT    HW110511   6.476   0.545   5.452
 3504WAT    HW210512   6.325   0.493   5.417
 3505WAT     OW10513   2.132   1.752   0.431
 3505WAT    HW110514   2.106   1.846   0.411
 3505WAT    HW210515   2.218   1.731   0.385
 3506WAT     OW10516   2.470   5.427   6.052
 3506WAT    HW110517   2.433   5.492   6.117
 3506WAT    HW210518   2.560   5.396   6.083
 3507WAT     OW10519   0.986   1.283   5.808
 3507WAT    HW110520   1.019   1.376   5.824
 3507WAT    HW210521   1.029   1.247   5.726
 3508WAT     OW10522   0.613   1.129   2.180
 3508WAT    HW110523   0.536   1.096   2.126
 3508WAT    HW210524   0.580   1.163   2.268
 3509WAT     OW10525   0.119   4.894   1.815
 3509WAT    HW110526   0.188   4.892   1.743
 3509WAT    HW210527   0.123   4.809   1.868
 3510WAT     OW10528   6.277   4.437   5.808
 3510WAT    HW110529   6.298   4.486   5.892
 3510WAT    HW210530   6.267   4.339   5.827
 3511WAT     OW10531   5.849   6.382   5.104
 3511WAT    HW110532   5.900   6.351   5.024
 3511WAT    HW210533   5.753   6.398   5.078
 3512WAT     OW10534   6.015   4.818   2.752
 3512WAT    HW110535   5.972   4.744   2.700
 3512WAT    HW210536   5.945   4.887   2.774
 3513WAT     OW10537   6.314   3.134   3.458
 3513WAT    HW110538   6.359   3.222   3.472
 3513WAT    HW210539   6.295   3.122   3.360
 3514WAT     OW10540   5.333   4.912   4.951
 3514WAT    HW110541   5.341   4.868   5.040
 3514WAT    HW210542   5.423   4.943   4.921
 3515WAT     OW10543   1.432   4.487   1.132
 3515WAT    HW110544   1.426   4.422   1.055
 3515WAT    HW210545   1.405   4.578   1.101
 3516WAT     OW10546   3.741   4.655   1.525
 3516WAT    HW110547   3.757   4.731   1.588
 3516WAT    HW210548   3.828   4.627   1.485
 3517WAT     OW10549   4.544   2.175   5.559
 3517WAT    HW110550   4.594   2.188   5.645
 3517WAT    HW210551   4.581   2.237   5.490
 3518WAT     OW10552   0.415   1.604   3.480
 3518WAT    HW110553   0.384   1.576   3.390
 3518WAT    HW210554   0.515   1.599   3.484
 3519WAT     OW10555   2.774   5.404   1.786
 3519WAT    HW110556   2.696   5.365   1.738
 3519WAT    HW210557   2.854   5.346   1.772
 3520WAT     OW10558   3.490   4.781   0.319
 3520WAT    HW110559   3.502   4.794   0.220
 3520WAT    HW210560   3.466   4.685   0.337
 3521WAT     OW10561   6.607   1.716   1.814
 3521WAT    HW110562   6.676   1.776   1.776
 3521WAT    HW210563   6.518   1.762   1.813
 3522WAT     OW10564   2.095   3.157   1.505
 3522WAT    HW110565   2.132   3.208   1.583
 3522WAT    HW210566   2.169   3.137   1.440
 3523WAT     OW10567   2.338   6.352   5.080
 3523WAT    HW110568   2.358   6.434   5.026
 3523WAT    HW210569   2.391   6.353   5.165
 3524WAT     OW10570   3.236   0.128   2.901
 3524WAT    HW110571   3.165   0.167   2.842
 3524WAT    HW210572   3.218   0.032   2.918
 3525WAT     OW10573   6.012   0.372   3.243
 3525WAT    HW110574   6.110   0.386   3.230
 3525WAT    HW210575   5.967   0.460   3.258
 3526WAT     OW10576   2.461   6.163   1.090
 3526WAT    HW110577   2.480   6.245   1.145
 3526WAT    HW210578   2.381   6.179   1.033
 3527WAT     OW10579   1.849   5.186   2.840
 3527WAT    HW110580   1.844   5.172   2.741
 3527WAT    HW210581   1.838   5.098   2.887
 3528WAT     OW10582   5.312   1.841   1.283
 3528WAT    HW110583   5.359   1.844   1.195
 3528WAT    HW210584   5.280   1.747   1.300
 3529WAT     OW10585   1.109   6.287   3.830
 3529WAT    HW110586   1.187   6.256   3.884
 3529WAT    HW210587   1.072   6.371   3.869
 3530WAT     OW10588   0.720   4.519   5.092
 3530WAT    HW110589   0.715   4.475   5.181
 3530WAT    HW210590   0.740   4.616   5.104
 3531WAT     OW10591   0.899   1.032   4.346
 3531WAT    HW110592   0.817   0.991   4.305
 3531WAT    HW210593   0.980   1.003   4.296
 3532WAT     OW10594   5.050   4.315   1.529
 3532WAT    HW110595   5.121   4.351   1.469
 3532WAT    HW210596   5.084   4.234   1.578
 3533WAT     OW10597   4.432   1.551   2.395
 3533WAT    HW110598   4.337   1.567   2.367
 3533WAT    HW210599   4.494   1.593   2.329
 3534WAT     OW10600   0.960   6.036   2.290
 3534WAT    HW110601   1.018   6.112   2.262
 3534WAT    HW210602   1.001   5.950   2.262
 3535WAT     OW10603   3.326   4.435   1.663
 3535WAT    HW110604   3.333   4.349   1.612
 3535WAT    HW210605   3.405   4.443   1.725
 3536WAT     OW10606   1.205   0.521   3.883
 3536WAT    HW110607   1.223   0.512   3.785
 3536WAT    HW210608   1.150   0.603   3.899
 3537WAT     OW10609   4.091   5.504   4.705
 3537WAT    HW110610   4.015   5.532   4.764
 3537WAT    HW210611   4.176   5.546   4.738
 3538WAT     OW10612   5.196   5.400   1.831
 3538WAT    HW110613   5.236   5.473   1.775
 3538WAT    HW210614   5.256   5.379   1.907
 3539WAT     OW10615   3.462   0.912   5.435
 3539WAT    HW110616   3.496   0.885   5.525
 3539WAT    HW210617   3.524   0.980   5.395
 3540WAT     OW10618   5.101   1.849   2.296
 3540WAT    HW110619   5.194   1.856   2.333
 3540WAT    HW210620   5.083   1.926   2.235
 3541WAT     OW10621   4.439   1.554   5.633
 3541WAT    HW110622   4.432   1.469   5.686
 3541WAT    HW210623   4.533   1.588   5.637
 3542WAT     OW10624   4.548   6.113   5.083
 3542WAT    HW110625   4.587   6.104   4.991
 3542WAT    HW210626   4.518   6.024   5.116
 3543WAT     OW10627   1.625   1.801   3.014
 3543WAT    HW110628   1.646   1.703   3.007
 3543WAT    HW210629   1.529   1.816   2.991
 3544WAT     OW10630   2.139   5.763   4.034
 3544WAT    HW110631   2.094   5.676   4.054
 3544WAT    HW210632   2.076   5.822   3.983
 3545WAT     OW10633   4.501   3.665   5.335
 3545WAT    HW110634   4.556   3.674   5.418
 3545WAT    HW210635   4.489   3.568   5.313
 3546WAT     OW10636   2.743   1.222   0.488
 3546WAT    HW110637   2.707   1.191   0.399
 3546WAT    HW210638   2.819   1.163   0.515
 3547WAT     OW10639   3.744   5.752   3.454
 3547WAT    HW110640   3.820   5.688   3.466
 3547WAT    HW210641   3.768   5.821   3.386
 3548WAT     OW10642   0.225   5.945   4.240
 3548WAT    HW110643   0.160   5.875   4.212
 3548WAT    HW210644   0.176   6.020   4.285
 3549WAT     OW10645   4.296   0.790   3.491
 3549WAT    HW110646   4.231   0.748   3.554
 3549WAT    HW210647   4.303   0.733   3.408
 3550WAT     OW10648   4.530   5.299   3.327
 3550WAT    HW110649   4.536   5.366   3.253
 3550WAT    HW210650   4.604   5.232   3.317
 3551WAT     OW10651   0.369   4.095   4.147
 3551WAT    HW110652   0.397   4.161   4.078
 3551WAT    HW210653   0.441   4.026   4.158
 3552WAT     OW10654   3.010   2.017   3.655
 3552WAT    HW110655   2.999   1.980   3.747
 3552WAT    HW210656   2.962   1.959   3.590
 3553WAT     OW10657   4.749   3.129   5.901
 3553WAT    HW110658   4.830   3.188   5.903
 3553WAT    HW210659   4.678   3.171   5.844
 3554WAT     OW10660   5.917   5.614   1.898
 3554WAT    HW110661   5.900   5.713   1.899
 3554WAT    HW210662   5.952   5.586   1.987
 3555WAT     OW10663   1.835   4.006   3.376
 3555WAT    HW110664   1.895   4.080   3.347
 3555WAT    HW210665   1.767   3.988   3.305
 3556WAT     OW10666   3.552   6.046   5.364
 3556WAT    HW110667   3.564   5.962   5.310
 3556WAT    HW210668   3.596   6.122   5.317
 3557WAT     OW10669   1.918   1.647   2.512
 3557WAT    HW110670   1.849   1.691   2.454
 3557WAT    HW210671   1.997   1.622   2.456
 3558WAT     OW10672   2.442   4.452   6.214
 3558WAT    HW110673   2.409   4.545   6.230
 3558WAT    HW210674   2.525   4.455   6.159
 3559WAT     OW10675   5.321   5.478   4.012
 3559WAT    HW110676   5.389   5.419   4.054
 3559WAT    HW210677   5.251   5.422   3.966
 3560WAT     OW10678   0.270   2.408   0.880
 3560WAT    HW110679   0.308   2.407   0.973
 3560WAT    HW210680   0.280   2.317   0.839
 3561WAT     OW10681   5.168   5.314   0.671
 3561WAT    HW110682   5.216   5.308   0.583
 3561WAT    HW210683   5.226   5.275   0.743
 3562WAT     OW10684   0.582   3.912   4.138
 3562WAT    HW110685   0.612   3.950   4.051
 3562WAT    HW210686   0.609   3.816   4.144
 3563WAT     OW10687   3.970   3.146   1.599
 3563WAT    HW110688   4.010   3.064   1.640
 3563WAT    HW210689   3.944   3.210   1.671
 3564WAT     OW10690   4.443   0.328   1.795
 3564WAT    HW110691   4.398   0.247   1.758
 3564WAT    HW210692   4.375   0.388   1.837
 3565WAT     OW10693   3.492   1.871   5.424
 3565WAT    HW110694   3.578   1.902   5.384
 3565WAT    HW210695   3.432   1.950   5.440
 3566WAT     OW10696   1.318   0.342   6.103
 3566WAT    HW110697   1.228   0.341   6.059
 3566WAT    HW210698   1.343   0.249   6.129
 3567WAT     OW10699   4.660   4.376   4.996
 3567WAT    HW110700   4.595   4.303   4.973
 3567WAT    HW210701   4.741   4.335   5.039
 3568WAT     OW10702   1.828   5.504   3.890
 3568WAT    HW110703   1.766   5.474   3.962
 3568WAT    HW210704   1.780   5.563   3.826
 3569WAT     OW10705   2.365   5.315   5.387
 3569WAT    HW110706   2.383   5.396   5.443
 3569WAT    HW210707   2.286   5.332   5.327
 3570WAT     OW10708   2.551   6.457   6.004
 3570WAT    HW110709   2.571   6.367   5.964
 3570WAT    HW210710   2.573   6.529   5.939
 3571WAT     OW10711   0.177   2.638   5.635
 3571WAT    HW110712   0.232   2.556   5.650
 3571WAT    HW210713   0.136   2.634   5.543
 3572WAT     OW10714   6.684   0.490   0.891
 3572WAT    HW110715   6.627   0.476   0.972
 3572WAT    HW210716   6.637   0.550   0.826
 3573WAT     OW10717   0.095   1.477   1.180
 3573WAT    HW110718   0.112   1.402   1.243
 3573WAT    HW210719   0.060   1.556   1.230
 3574WAT     OW10720   5.819   0.446   1.944
 3574WAT    HW110721   5.917   0.460   1.953
 3574WAT    HW210722   5.773   0.469   2.030
 3575WAT     OW10723   4.895   1.186   6.450
 3575WAT    HW110724   4.806   1.193   6.495
 3575WAT    HW210725   4.887   1.214   6.354
 3576WAT     OW10726   3.818   2.938   4.890
 3576WAT    HW110727   3.761   2.879   4.832
 3576WAT    HW210728   3.856   3.012   4.835
 3577WAT     OW10729   4.564   4.730   4.209
 3577WAT    HW110730   4.610   4.815   4.236
 3577WAT    HW210731   4.465   4.742   4.215
 3578WAT     OW10732   1.665   6.296   5.067
 3578WAT    HW110733   1.703   6.205   5.048
 3578WAT    HW210734   1.666   6.312   5.166
 3579WAT     OW10735   0.153   0.092   2.746
 3579WAT    HW110736   0.249   0.075   2.771
 3579WAT    HW210737   0.095   0.066   2.823
 3580WAT     OW10738   6.535   5.819   6.643
 3580WAT    HW110739   6.554   5.750   6.713
 3580WAT    HW210740   6.477   5.890   6.682
 3581WAT     OW10741   4.716   5.198   1.640
 3581WAT    HW110742   4.729   5.128   1.570
 3581WAT    HW210743   4.628   5.244   1.625
 3582WAT     OW10744   5.225   1.580   1.334
 3582WAT    HW110745   5.310   1.531   1.352
 3582WAT    HW210746   5.176   1.595   1.420
 3583WAT     OW10747   6.379   3.927   3.527
 3583WAT    HW110748   6.463   3.909   3.477
 3583WAT    HW210749   6.362   3.853   3.593
 3584WAT     OW10750   1.222   3.123   3.041
 3584WAT    HW110751   1.264   3.062   3.109
 3584WAT    HW210752   1.161   3.187   3.088
 3585WAT     OW10753   3.592   1.136   4.968
 3585WAT    HW110754   3.675   1.188   4.987
 3585WAT    HW210755   3.566   1.147   4.872
 3586WAT     OW10756   0.160   2.770   4.530
 3586WAT    HW110757   0.108   2.696   4.488
 3586WAT    HW210758   0.215   2.816   4.461
 3587WAT     OW10759   2.305   5.211   6.049
 3587WAT    HW110760   2.360   5.295   6.046
 3587WAT    HW210761   2.344   5.148   6.117
 3588WAT     OW10762   0.619   4.538   4.831
 3588WAT    HW110763   0.657   4.519   4.922
 3588WAT    HW210764   0.624   4.636   4.812
 3589WAT     OW10765   4.075   0.818   2.101
 3589WAT    HW110766   3.987   0.864   2.086
 3589WAT    HW210767   4.144   0.858   2.041
 3590WAT     OW10768   3.339   2.156   1.903
 3590WAT    HW110769   3.391   2.072   1.921
 3590WAT    HW210770   3.361   2.189   1.811
 3591WAT     OW10771   1.922   0.561   3.095
 3591WAT    HW110772   1.917   0.465   3.067
 3591WAT    HW210773   1.918   0.567   3.195
 3592WAT     OW10774   4.618   1.472   1.211
 3592WAT    HW110775   4.646   1.544   1.148
 3592WAT    HW210776   4.668   1.481   1.297
 3593WAT     OW10777   2.351   0.554   5.508
 3593WAT    HW110778   2.362   0.457   5.484
 3593WAT    HW210779   2.438   0.592   5.538
 3594WAT     OW10780   1.724   6.282   1.576
 3594WAT    HW110781   1.779   6.213   1.530
 3594WAT    HW210782   1.720   6.365   1.520
 3595WAT     OW10783   6.328   4.249   6.617
 3595WAT    HW110784   6.373   4.186   6.680
 3595WAT    HW210785   6.397   4.301   6.566
 3596WAT     OW10786   0.273   4.675   4.223
 3596WAT    HW110787   0.332   4.608   4.178
 3596WAT    HW210788   0.272   4.759   4.170
 3597WAT     OW10789   6.675   5.542   6.370
 3597WAT    HW110790   6.643   5.550   6.276
 3597WAT    HW210791   6.712   5.630   6.401
 3598WAT     OW10792   3.684   1.077   4.266
 3598WAT    HW110793   3.758   1.127   4.311
 3598WAT    HW210794   3.662   0.995   4.319
 3599WAT     OW10795   6.461   0.600   4.194
 3599WAT    HW110796   6.559   0.620   4.195
 3599WAT    HW210797   6.410   0.684   4.214
 3600WAT     OW10798   5.357   1.347   2.442
 3600WAT    HW110799   5.373   1.421   2.378
 3600WAT    HW210800   5.418   1.271   2.421
 3601WAT     OW10801   0.404   2.616   4.056
 3601WAT    HW110802   0.441   2.681   4.123
 3601WAT    HW210803   0.455   2.530   4.061
 3602WAT     OW10804   2.803   4.093   2.668
 3602WAT    HW110805   2.887   4.133   2.704
 3602WAT    HW210806   2.735   4.084   2.741
 3603WAT     OW10807   1.593   2.629   3.209
 3603WAT    HW110808   1.596   2.701   3.140
 3603WAT    HW210809   1.654   2.554   3.181
 3604WAT     OW10810   5.410   3.553   2.525
 3604WAT    HW110811   5.436   3.497   2.446
 3604WAT    HW210812   5.425   3.650   2.503
 3605WAT     OW10813   6.212   0.083   0.552
 3605WAT    HW110814   6.254   0.060   0.464
 3605WAT    HW210815   6.175  -0.001   0.593
 3606WAT     OW10816   0.807   0.289   0.327
 3606WAT    HW110817   0.726   0.335   0.290
 3606WAT    HW210818   0.828   0.327   0.417
 3607WAT     OW10819   3.001   3.395   0.413
 3607WAT    HW110820   2.933   3.467   0.397
 3607WAT    HW210821   3.092   3.435   0.421
 3608WAT     OW10822   1.525   2.901   3.420
 3608WAT    HW110823   1.600   2.848   3.380
 3608WAT    HW210824   1.554   2.996   3.432
 3609WAT     OW10825   1.325   2.224   0.605
 3609WAT    HW110826   1.271   2.255   0.683
 3609WAT    HW210827   1.288   2.139   0.570
 3610WAT     OW10828   2.580   0.690   5.576
 3610WAT    HW110829   2.649   0.693   5.504
 3610WAT    HW210830   2.542   0.781   5.590
 3611WAT     OW10831   0.961   6.529   0.752
 3611WAT    HW110832   0.955   6.433   0.780
 3611WAT    HW210833   1.008   6.582   0.823
 3612WAT     OW10834   2.989   5.911   6.680
 3612WAT    HW110835   3.038   5.961   6.752
 3612WAT    HW210836   2.922   5.850   6.722
 3613WAT     OW10837   6.015   3.043   5.634
 3613WAT    HW110838   5.917   3.036   5.618
 3613WAT    HW210839   6.038   2.997   5.720
 3614WAT     OW10840   3.731   0.696   2.253
 3614WAT    HW110841   3.787   0.623   2.214
 3614WAT    HW210842   3.659   0.720   2.188
 3615WAT     OW10843   1.096   2.176   3.866
 3615WAT    HW110844   1.165   2.197   3.797
 3615WAT    HW210845   1.130   2.104   3.927
 3616WAT     OW10846   5.612   2.166   0.208
 3616WAT    HW110847   5.577   2.185   0.300
 3616WAT    HW210848   5.583   2.239   0.146
 3617WAT     OW10849   6.264   2.501   0.359
 3617WAT    HW110850   6.346   2.553   0.336
 3617WAT    HW210851   6.192   2.521   0.293
 3618WAT     OW10852   5.800   1.193   3.564
 3618WAT    HW110853   5.740   1.254   3.513
 3618WAT    HW210854   5.895   1.216   3.544
 3619WAT     OW10855   5.229   4.681   1.398
 3619WAT    HW110856   5.220   4.582   1.400
 3619WAT    HW210857   5.216   4.718   1.490
 3620WAT     OW10858   2.311   0.969   3.824
 3620WAT    HW110859   2.386   1.032   3.805
 3620WAT    HW210860   2.344   0.894   3.882
 3621WAT     OW10861   1.759   6.041   4.730
 3621WAT    HW110862   1.754   6.097   4.648
 3621WAT    HW210863   1.707   5.957   4.716
 3622WAT     OW10864   1.346   0.809   5.255
 3622WAT    HW110865   1.324   0.907   5.261
 3622WAT    HW210866   1.364   0.773   5.347
 3623WAT     OW10867   3.861   2.706   6.585
 3623WAT    HW110868   3.946   2.656   6.603
 3623WAT    HW210869   3.815   2.666   6.506
 3624WAT     OW10870   3.460   5.623   2.389
 3624WAT    HW110871   3.367   5.654   2.371
 3624WAT    HW210872   3.494   5.570   2.311
 3625WAT     OW10873   0.282   3.378   6.211
 3625WAT    HW110874   0.258   3.358   6.116
 3625WAT    HW210875   0.359   3.442   6.213
 3626WAT     OW10876   4.569   2.920   5.015
 3626WAT    HW110877   4.657   2.962   5.037
 3626WAT    HW210878   4.502   2.991   4.996
 3627WAT     OW10879   1.271   5.422   3.703
 3627WAT    HW110880   1.278   5.337   3.651
 3627WAT    HW210881   1.266   5.400   3.801
 3628WAT     OW10882   4.124   0.040   0.901
 3628WAT    HW110883   4.158  -0.022   0.972
 3628WAT    HW210884   4.028   0.062   0.920
 3629WAT     OW10885   0.481   0.768   2.835
 3629WAT    HW110886   0.448   0.832   2.766
 3629WAT    HW210887   0.419   0.769   2.914
 3630WAT     OW10888   1.830   1.570   6.071
 3630WAT    HW110889   1.788   1.483   6.097
 3630WAT    HW210890   1.763   1.626   6.022
 3631WAT     OW10891   2.527   1.818   0.505
 3631WAT    HW110892   2.511   1.769   0.591
 3631WAT    HW210893   2.484   1.908   0.510
 3632WAT     OW10894   2.101   4.268   2.381
 3632WAT    HW110895   2.036   4.214   2.326
 3632WAT    HW210896   2.051   4.336   2.434
 3633WAT     OW10897   2.483   6.457   4.224
 3633WAT    HW110898   2.576   6.427   4.202
 3633WAT    HW210899   2.480   6.490   4.318
 3634WAT     OW10900   5.485   4.157   0.353
 3634WAT    HW110901   5.394   4.195   0.366
 3634WAT    HW210902   5.546   4.190   0.425
 3635WAT     OW10903   4.212   4.369   0.232
 3635WAT    HW110904   4.223   4.450   0.175
 3635WAT    HW210905   4.216   4.395   0.328
 3636WAT     OW10906   3.232   6.246   1.590
 3636WAT    HW110907   3.179   6.326   1.564
 3636WAT    HW210908   3.196   6.165   1.543
 3637WAT     OW10909   5.077   3.283   0.698
 3637WAT    HW110910   4.986   3.321   0.714
 3637WAT    HW210911   5.116   3.252   0.785
 3638WAT     OW10912   3.125   0.221   5.738
 3638WAT    HW110913   3.089   0.303   5.694
 3638WAT    HW210914   3.210   0.243   5.785
 3639WAT     OW10915   6.325   0.702   3.813
 3639WAT    HW110916   6.384   0.776   3.843
 3639WAT    HW210917   6.342   0.621   3.870
 3640WAT     OW10918   3.968   4.990   3.920
 3640WAT    HW110919   4.037   4.989   3.848
 3640WAT    HW210920   3.954   5.084   3.952
 3641WAT     OW10921   2.115   5.519   1.903
 3641WAT    HW110922   2.144   5.516   1.998
 3641WAT    HW210923   2.175   5.463   1.847
 3642WAT     OW10924   1.245   4.101   5.505
 3642WAT    HW110925   1.330   4.145   5.477
 3642WAT    HW210926   1.183   4.095   5.427
 3643WAT     OW10927   2.599   2.759   5.820
 3643WAT    HW110928   2.693   2.776   5.792
 3643WAT    HW210929   2.599   2.709   5.907
 3644WAT     OW10930   3.636   5.583   4.820
 3644WAT    HW110931   3.598   5.557   4.731
 3644WAT    HW210932   3.623   5.507   4.884
 3645WAT     OW10933   4.327   0.724   6.108
 3645WAT    HW110934   4.255   0.681   6.162
 3645WAT    HW210935   4.331   0.682   6.017
 3646WAT     OW10936   4.611   4.249   1.344
 3646WAT    HW110937   4.674   4.287   1.411
 3646WAT    HW210938   4.645   4.161   1.312
 3647WAT     OW10939   4.607   6.284   2.521
 3647WAT    HW110940   4.692   6.261   2.473
 3647WAT    HW210941   4.571   6.371   2.485
 3648WAT     OW10942   4.434   0.906   5.560
 3648WAT    HW110943   4.339   0.879   5.543
 3648WAT    HW210944   4.475   0.844   5.627
 3649WAT     OW10945   5.572   4.475   5.590
 3649WAT    HW110946   5.510   4.485   5.513
 3649WAT    HW210947   5.600   4.379   5.598
 3650WAT     OW10948   2.377   3.649   1.370
 3650WAT    HW110949   2.431   3.722   1.412
 3650WAT    HW210950   2.287   3.645   1.413
 3651WAT     OW10951   3.357   1.287   1.254
 3651WAT    HW110952   3.264   1.262   1.280
 3651WAT    HW210953   3.358   1.382   1.222
 3652WAT     OW10954   0.286   4.024   5.680
 3652WAT    HW110955   0.255   4.100   5.623
 3652WAT    HW210956   0.303   3.944   5.622
 3653WAT     OW10957   2.073   2.403   1.517
 3653WAT    HW110958   2.156   2.429   1.567
 3653WAT    HW210959   2.066   2.458   1.434
 3654WAT     OW10960   0.771   0.781   3.149
 3654WAT    HW110961   0.800   0.694   3.111
 3654WAT    HW210962   0.848   0.824   3.197
 3655WAT     OW10963   3.007   2.577   0.938
 3655WAT    HW110964   2.913   2.608   0.953
 3655WAT    HW210965   3.037   2.522   1.017
 3656WAT     OW10966   4.543   3.271   3.144
 3656WAT    HW110967   4.598   3.285   3.226
 3656WAT    HW210968   4.534   3.172   3.127
 3657WAT     OW10969   2.834   0.626   3.261
 3657WAT    HW110970   2.828   0.652   3.357
 3657WAT    HW210971   2.854   0.708   3.206
 3658WAT     OW10972   5.848   2.190   0.051
 3658WAT    HW110973   5.931   2.146   0.084
 3658WAT    HW210974   5.775   2.177   0.118
 3659WAT     OW10975   6.657   6.198   4.729
 3659WAT    HW110976   6.620   6.281   4.687
 3659WAT    HW210977   6.601   6.171   4.807
 3660WAT     OW10978   2.585   5.201   5.762
 3660WAT    HW110979   2.656   5.218   5.694
 3660WAT    HW210980   2.543   5.287   5.789
 3661WAT     OW10981   5.925   3.260   1.592
 3661WAT    HW110982   5.988   3.311   1.534
 3661WAT    HW210983   5.902   3.173   1.548
 3662WAT     OW10984   5.272   0.718   5.373
 3662WAT    HW110985   5.229   0.630   5.393
 3662WAT    HW210986   5.273   0.733   5.274
 3663WAT     OW10987   2.490   0.456   2.056
 3663WAT    HW110988   2.510   0.553   2.072
 3663WAT    HW210989   2.398   0.436   2.089
 3664WAT     OW10990   2.838   4.431   1.145
 3664WAT    HW110991   2.920   4.467   1.188
 3664WAT    HW210992   2.791   4.370   1.209
 3665WAT     OW10993   5.714   0.926   5.406
 3665WAT    HW110994   5.668   1.005   5.367
 3665WAT    HW210995   5.646   0.863   5.444
 3666WAT     OW10996   0.493   5.307   0.648
 3666WAT    HW110997   0.491   5.404   0.627
 3666WAT    HW210998   0.476   5.293   0.746
 3667WAT     OW10999   0.211   3.440   1.674
 3667WAT    HW111000   0.273   3.398   1.740
 3667WAT    HW211001   0.153   3.507   1.721
 3668WAT     OW11002   3.705   0.190   6.366
 3668WAT    HW111003   3.620   0.156   6.325
 3668WAT    HW211004   3.699   0.289   6.376
 3669WAT     OW11005   0.748   4.022   3.041
 3669WAT    HW111006   0.684   3.975   3.100
 3669WAT    HW211007   0.749   4.120   3.063
 3670WAT     OW11008   1.493   3.732   1.669
 3670WAT    HW111009   1.591   3.728   1.691
 3670WAT    HW211010   1.441   3.687   1.742
 3671WAT     OW11011   1.388   5.129   6.452
 3671WAT    HW111012   1.432   5.202   6.400
 3671WAT    HW211013   1.389   5.044   6.399
 3672WAT     OW11014   6.046   5.464   0.232
 3672WAT    HW111015   6.086   5.377   0.203
 3672WAT    HW211016   6.109   5.539   0.210
 3673WAT     OW11017   6.364   4.423   4.052
 3673WAT    HW111018   6.281   4.467   4.087
 3673WAT    HW211019   6.399   4.359   4.120
 3674WAT     OW11020   0.309   5.700   5.647
 3674WAT    HW111021   0.286   5.661   5.558
 3674WAT    HW211022   0.397   5.662   5.677
 3675WAT     OW11023   3.625   4.938   6.320
 3675WAT    HW111024   3.624   4.937   6.220
 3675WAT    HW211025   3.622   4.844   6.354
 3676WAT     OW11026   2.564   3.033   6.111
 3676WAT    HW111027   2.529   3.015   6.019
 3676WAT    HW211028   2.533   3.122   6.143
 3677WAT     OW11029   5.940   1.770   2.628
 3677WAT    HW111030   6.005   1.845   2.623
 3677WAT    HW211031   5.858   1.793   2.576
 3678WAT     OW11032   2.785   6.672   5.165
 3678WAT    HW111033   2.843   6.591   5.156
 3678WAT    HW211034   2.794   6.710   5.257
 3679WAT     OW11035   0.338   3.793   5.539
 3679WAT    HW111036   0.398   3.798   5.459
 3679WAT    HW211037   0.383   3.741   5.612
 3680WAT     OW11038   5.038   6.300   1.975
 3680WAT    HW111039   5.127   6.255   1.984
 3680WAT    HW211040   5.037   6.355   1.891
 3681WAT     OW11041   0.173   5.187   5.751
 3681WAT    HW111042   0.229   5.265   5.778
 3681WAT    HW211043   0.078   5.203   5.779
 3682WAT     OW11044   4.198   3.940   4.286
 3682WAT    HW111045   4.247   3.867   4.332
 3682WAT    HW211046   4.261   4.015   4.265
 3683WAT     OW11047   1.043   5.923   5.543
 3683WAT    HW111048   1.118   5.900   5.605
 3683WAT    HW211049   0.962   5.871   5.567
 3684WAT     OW11050   4.204   4.508   4.035
 3684WAT    HW111051   4.302   4.488   4.029
 3684WAT    HW211052   4.168   4.525   3.943
 3685WAT     OW11053   3.526   6.398   6.322
 3685WAT    HW111054   3.448   6.367   6.268
 3685WAT    HW211055   3.498   6.474   6.381
 3686WAT     OW11056   6.508   3.290   1.427
 3686WAT    HW111057   6.483   3.385   1.449
 3686WAT    HW211058   6.600   3.271   1.463
 3687WAT     OW11059   2.834   2.303   6.390
 3687WAT    HW111060   2.746   2.351   6.382
 3687WAT    HW211061   2.838   2.229   6.323
 3688WAT     OW11062   0.030   3.115   0.951
 3688WAT    HW111063   0.039   3.187   0.881
 3688WAT    HW211064   0.049   3.154   1.041
 3689WAT     OW11065   5.522   6.148   0.105
 3689WAT    HW111066   5.455   6.077   0.126
 3689WAT    HW211067   5.479   6.219   0.050
 3690WAT     OW11068   5.343   0.588   6.043
 3690WAT    HW111069   5.337   0.519   6.115
 3690WAT    HW211070   5.304   0.674   6.076
 3691WAT     OW11071   4.316   1.070   2.829
 3691WAT    HW111072   4.267   1.001   2.776
 3691WAT    HW211073   4.392   1.105   2.775
 3692WAT     OW11074   2.391   1.208   1.884
 3692WAT    HW111075   2.341   1.121   1.876
 3692WAT    HW211076   2.478   1.192   1.929
 3693WAT     OW11077   5.523   0.315   4.466
 3693WAT    HW111078   5.567   0.226   4.452
 3693WAT    HW211079   5.452   0.306   4.536
 3694WAT     OW11080   2.167   2.698   2.963
 3694WAT    HW111081   2.149   2.727   3.057
 3694WAT    HW211082   2.110   2.750   2.901
 3695WAT     OW11083   6.038   3.116   0.794
 3695WAT    HW111084   6.064   3.080   0.883
 3695WAT    HW211085   5.975   3.052   0.749
 3696WAT     OW11086   2.787   3.651   3.993
 3696WAT    HW111087   2.842   3.673   4.073
 3696WAT    HW211088   2.819   3.704   3.914
 3697WAT     OW11089   2.259   3.917   0.414
 3697WAT    HW111090   2.345   3.911   0.465
 3697WAT    HW211091   2.274   3.967   0.329
 3698WAT     OW11092   3.200   1.399   3.325
 3698WAT    HW111093   3.295   1.429   3.312
 3698WAT    HW211094   3.177   1.330   3.257
 3699WAT     OW11095   1.631   1.725   5.965
 3699WAT    HW111096   1.558   1.676   5.919
 3699WAT    HW211097   1.593   1.776   6.042
 3700WAT     OW11098   4.931   0.182   2.338
 3700WAT    HW111099   4.878   0.193   2.254
 3700WAT    HW211100   4.959   0.087   2.348
 3701WAT     OW11101   2.431   2.201   4.109
 3701WAT    HW111102   2.343   2.206   4.157
 3701WAT    HW211103   2.422   2.244   4.019
 3702WAT     OW11104   5.107   3.687   0.065
 3702WAT    HW111105   5.063   3.721   0.148
 3702WAT    HW211106   5.204   3.711   0.067
 3703WAT     OW11107   0.219   5.398   6.491
 3703WAT    HW111108   0.305   5.433   6.454
 3703WAT    HW211109   0.142   5.442   6.445
 3704WAT     OW11110   5.881   1.743   2.946
 3704WAT    HW111111   5.947   1.673   2.973
 3704WAT    HW211112   5.929   1.819   2.903
 3705WAT     OW11113   1.642   5.201   4.772
 3705WAT    HW111114   1.705   5.177   4.699
 3705WAT    HW211115   1.674   5.284   4.818
 3706WAT     OW11116   0.115   5.880   3.033
 3706WAT    HW111117   0.103   5.808   2.965
 3706WAT    HW211118   0.211   5.883   3.062
 3707WAT     OW11119   0.944   5.483   3.299
 3707WAT    HW111120   0.873   5.476   3.228
 3707WAT    HW211121   1.033   5.459   3.260
 3708WAT     OW11122   1.658   4.290   3.023
 3708WAT    HW111123   1.687   4.380   2.993
 3708WAT    HW211124   1.620   4.296   3.116
 3709WAT     OW11125   2.858   1.034   1.917
 3709WAT    HW111126   2.877   1.042   2.015
 3709WAT    HW211127   2.916   1.098   1.867
 3710WAT     OW11128   5.035   0.347   4.470
 3710WAT    HW111129   5.055   0.249   4.471
 3710WAT    HW211130   5.116   0.397   4.440
 3711WAT     OW11131   1.811   4.774   0.956
 3711WAT    HW111132   1.770   4.711   1.022
 3711WAT    HW211133   1.866   4.722   0.891
 3712WAT     OW11134   2.766   2.004   5.762
 3712WAT    HW111135   2.785   1.906   5.757
 3712WAT    HW211136   2.699   2.029   5.691
 3713WAT     OW11137   1.861   0.318   2.961
 3713WAT    HW111138   1.777   0.360   2.929
 3713WAT    HW211139   1.901   0.263   2.888
 3714WAT     OW11140   5.518   5.609   4.447
 3714WAT    HW111141   5.510   5.695   4.496
 3714WAT    HW211142   5.450   5.606   4.373
 3715WAT     OW11143   2.015   5.583   6.655
 3715WAT    HW111144   1.994   5.488   6.629
 3715WAT    HW211145   1.972   5.602   6.743
 3716WAT     OW11146   1.805   1.097   5.670
 3716WAT    HW111147   1.824   1.103   5.572
 3716WAT    HW211148   1.791   1.002   5.696
 3717WAT     OW11149   1.115   5.929   6.368
 3717WAT    HW111150   1.132   5.879   6.283
 3717WAT    HW211151   1.020   5.915   6.396
 3718WAT     OW11152   3.710   2.790   0.102
 3718WAT    HW111153   3.767   2.764   0.023
 3718WAT    HW211154   3.704   2.712   0.165
 3719WAT     OW11155   6.622   2.961   1.655
 3719WAT    HW111156   6.545   3.021   1.680
 3719WAT    HW211157   6.672   2.935   1.738
 3720WAT     OW11158   3.995   5.619   2.316
 3720WAT    HW111159   4.003   5.519   2.321
 3720WAT    HW211160   4.034   5.659   2.399
 3721WAT     OW11161   3.259   2.268   6.530
 3721WAT    HW111162   3.290   2.332   6.460
 3721WAT    HW211163   3.272   2.309   6.621
 3722WAT     OW11164   1.955   4.968   3.699
 3722WAT    HW111165   1.867   5.013   3.681
 3722WAT    HW211166   2.017   5.034   3.743
 3723WAT     OW11167   1.081   3.812   1.456
 3723WAT    HW111168   1.097   3.777   1.549
 3723WAT    HW211169   0.983   3.825   1.442
 3724WAT     OW11170   2.870   3.838   1.196
 3724WAT    HW111171   2.826   3.834   1.106
 3724WAT    HW211172   2.960   3.794   1.191
 3725WAT     OW11173   3.414   2.201   1.645
 3725WAT    HW111174   3.456   2.278   1.597
 3725WAT    HW211175   3.475   2.122   1.640
 3726WAT     OW11176   2.587   2.139   0.338
 3726WAT    HW111177   2.650   2.074   0.296
 3726WAT    HW211178   2.633   2.226   0.353
 3727WAT     OW11179   4.409   4.047   2.064
 3727WAT    HW111180   4.323   4.042   2.114
 3727WAT    HW211181   4.391   4.058   1.967
 3728WAT     OW11182   6.684   0.252   0.496
 3728WAT    HW111183   6.751   0.199   0.446
 3728WAT    HW211184   6.706   0.251   0.594
 3729WAT     OW11185   2.984   1.183   4.625
 3729WAT    HW111186   2.904   1.242   4.625
 3729WAT    HW211187   3.018   1.172   4.719
 3730WAT     OW11188   1.385   3.114   2.438
 3730WAT    HW111189   1.355   3.029   2.393
 3730WAT    HW211190   1.463   3.151   2.388
 3731WAT     OW11191   3.725   5.528   1.089
 3731WAT    HW111192   3.773   5.600   1.039
 3731WAT    HW211193   3.722   5.445   1.033
 3732WAT     OW11194   6.556   3.315   5.381
 3732WAT    HW111195   6.501   3.272   5.453
 3732WAT    HW211196   6.627   3.371   5.424
 3733WAT     OW11197   4.939   6.435   2.851
 3733WAT    HW111198   4.843   6.465   2.851
 3733WAT    HW211199   4.971   6.426   2.946
 3734WAT     OW11200   2.339   3.083   5.630
 3734WAT    HW111201   2.375   3.077   5.537
 3734WAT    HW211202   2.242   3.056   5.630
 3735WAT     OW11203   0.553   4.719   3.795
 3735WAT    HW111204   0.461   4.685   3.815
 3735WAT    HW211205   0.550   4.781   3.717
 3736WAT     OW11206   5.925   0.665   2.334
 3736WAT    HW111207   5.864   0.736   2.369
 3736WAT    HW211208   6.018   0.701   2.325
 3737WAT     OW11209   6.585   1.716   2.097
 3737WAT    HW111210   6.595   1.710   1.997
 3737WAT    HW211211   6.489   1.724   2.120
 3738WAT     OW11212   2.647   5.931   3.048
 3738WAT    HW111213   2.730   5.981   3.022
 3738WAT    HW211214   2.620   5.958   3.141
 3739WAT     OW11215   6.103   3.407   1.433
 3739WAT    HW111216   6.129   3.503   1.438
 3739WAT    HW211217   6.108   3.376   1.338
 3740WAT     OW11218   2.360   5.108   3.673
 3740WAT    HW111219   2.399   5.057   3.596
 3740WAT    HW211220   2.409   5.194   3.685
 3741WAT     OW11221   6.377   3.304   6.272
 3741WAT    HW111222   6.449   3.242   6.239
 3741WAT    HW211223   6.372   3.299   6.372
 3742WAT     OW11224   4.542   0.521   5.056
 3742WAT    HW111225   4.608   0.471   5.112
 3742WAT    HW211226   4.586   0.553   4.973
 3743WAT     OW11227   6.047   1.558   3.086
 3743WAT    HW111228   6.123   1.510   3.042
 3743WAT    HW211229   5.983   1.492   3.124
 3744WAT     OW11230   1.309   2.072   0.900
 3744WAT    HW111231   1.339   1.976   0.902
 3744WAT    HW211232   1.388   2.132   0.915
 3745WAT     OW11233   1.681   5.437   5.871
 3745WAT    HW111234   1.589   5.432   5.834
 3745WAT    HW211235   1.715   5.531   5.862
 3746WAT     OW11236   4.624   5.285   1.942
 3746WAT    HW111237   4.676   5.281   1.857
 3746WAT    HW211238   4.685   5.302   2.019
 3747WAT     OW11239   1.613   5.912   6.017
 3747WAT    HW111240   1.639   5.881   6.108
 3747WAT    HW211241   1.664   5.994   5.993
 3748WAT     OW11242   1.657   4.990   4.943
 3748WAT    HW111243   1.645   5.065   4.877
 3748WAT    HW211244   1.571   4.977   4.993
 3749WAT     OW11245   4.839   6.438   6.149
 3749WAT    HW111246   4.931   6.420   6.113
 3749WAT    HW211247   4.776   6.452   6.074
 3750WAT     OW11248   1.665   6.545   2.990
 3750WAT    HW111249   1.633   6.624   3.043
 3750WAT    HW211250   1.587   6.490   2.961
 3751WAT     OW11251   6.644   6.329   6.569
 3751WAT    HW111252   6.692   6.258   6.517
 3751WAT    HW211253   6.710   6.393   6.608
 3752WAT     OW11254   2.145   4.709   3.987
 3752WAT    HW111255   2.074   4.664   3.933
 3752WAT    HW211256   2.189   4.780   3.932
 3753WAT     OW11257   4.256   0.131   4.982
 3753WAT    HW111258   4.289   0.040   4.957
 3753WAT    HW211259   4.248   0.187   4.900
 3754WAT     OW11260   5.723   2.311   1.101
 3754WAT    HW111261   5.689   2.321   1.007
 3754WAT    HW211262   5.655   2.262   1.156
 3755WAT     OW11263   6.271   6.504   3.563
 3755WAT    HW111264   6.278   6.446   3.482
 3755WAT    HW211265   6.363   6.518   3.602
 3756WAT     OW11266   3.505   6.193   4.330
 3756WAT    HW111267   3.597   6.198   4.367
 3756WAT    HW211268   3.439   6.186   4.405
 3757WAT     OW11269   0.133   4.384   1.895
 3757WAT    HW111270   0.043   4.348   1.920
 3757WAT    HW211271   0.204   4.319   1.924
 3758WAT     OW11272   3.139   5.736   0.743
 3758WAT    HW111273   3.155   5.656   0.685
 3758WAT    HW211274   3.061   5.787   0.708
 3759WAT     OW11275   3.437   2.783   2.544
 3759WAT    HW111276   3.396   2.698   2.510
 3759WAT    HW211277   3.368   2.856   2.543
 3760WAT     OW11278   5.728   5.601   3.828
 3760WAT    HW111279   5.777   5.683   3.799
 3760WAT    HW211280   5.630   5.620   3.834
 3761WAT     OW11281   4.562   3.645   3.486
 3761WAT    HW111282   4.579   3.699   3.568
 3761WAT    HW211283   4.546   3.550   3.511
 3762WAT     OW11284   6.009   5.240   6.354
 3762WAT    HW111285   6.077   5.265   6.285
 3762WAT    HW211286   5.955   5.163   6.320
 3763WAT     OW11287   1.579   5.259   1.206
 3763WAT    HW111288   1.626   5.292   1.288
 3763WAT    HW211289   1.487   5.299   1.203
 3764WAT     OW11290   0.482   0.562   4.854
 3764WAT    HW111291   0.462   0.573   4.951
 3764WAT    HW211292   0.495   0.465   4.834
 3765WAT     OW11293   0.312   0.179   5.413
 3765WAT    HW111294   0.294   0.267   5.369
 3765WAT    HW211295   0.241   0.114   5.386
 3766WAT     OW11296   2.160   3.667   0.430
 3766WAT    HW111297   2.185   3.763   0.419
 3766WAT    HW211298   2.161   3.642   0.527
 3767WAT     OW11299   2.082   1.429   3.753
 3767WAT    HW111300   2.116   1.450   3.661
 3767WAT    HW211301   2.113   1.338   3.780
 3768WAT     OW11302   5.299   1.287   6.048
 3768WAT    HW111303   5.259   1.263   6.137
 3768WAT    HW211304   5.361   1.214   6.019
 3769WAT     OW11305   5.104   3.259   4.867
 3769WAT    HW111306   5.174   3.190   4.883
 3769WAT    HW211307   5.138   3.327   4.801
 3770WAT     OW11308   3.283   6.074   0.889
 3770WAT    HW111309   3.356   6.045   0.951
 3770WAT    HW211310   3.198   6.026   0.914
 3771WAT     OW11311   5.371   2.936   2.558
 3771WAT    HW111312   5.334   2.920   2.466
 3771WAT    HW211313   5.341   2.863   2.619
 3772WAT     OW11314   0.796   2.946   1.342
 3772WAT    HW111315   0.886   2.927   1.380
 3772WAT    HW211316   0.763   3.033   1.376
 3773WAT     OW11317   2.591   4.905   4.477
 3773WAT    HW111318   2.678   4.891   4.431
 3773WAT    HW211319   2.516   4.889   4.413
 3774WAT     OW11320   1.222   0.218   5.269
 3774WAT    HW111321   1.252   0.183   5.358
 3774WAT    HW211322   1.297   0.211   5.204
 3775WAT     OW11323   5.118   0.233   5.047
 3775WAT    HW111324   5.034   0.215   5.098
 3775WAT    HW211325   5.095   0.270   4.957
 3776WAT     OW11326   5.540   3.057   1.690
 3776WAT    HW111327   5.557   3.075   1.593
 3776WAT    HW211328   5.561   3.138   1.744
 3777WAT     OW11329   6.084   2.139   2.416
 3777WAT    HW111330   6.103   2.065   2.480
 3777WAT    HW211331   6.021   2.205   2.460
 3778WAT     OW11332   2.024   3.173   4.352
 3778WAT    HW111333   2.098   3.126   4.305
 3778WAT    HW211334   1.945   3.112   4.360
 3779WAT     OW11335   1.347   6.404   3.210
 3779WAT    HW111336   1.317   6.497   3.232
 3779WAT    HW211337   1.381   6.358   3.292
 3780WAT     OW11338   5.273   6.323   3.412
 3780WAT    HW111339   5.331   6.247   3.384
 3780WAT    HW211340   5.315   6.410   3.386
 3781WAT     OW11341   4.213   2.441   0.950
 3781WAT    HW111342   4.159   2.358   0.963
 3781WAT    HW211343   4.169   2.517   0.999
 3782WAT     OW11344   1.585   4.689   1.592
 3782WAT    HW111345   1.527   4.617   1.553
 3782WAT    HW211346   1.613   4.663   1.684
 3783WAT     OW11347   6.531   2.764   1.237
 3783WAT    HW111348   6.594   2.749   1.162
 3783WAT    HW211349   6.566   2.837   1.296
 3784WAT     OW11350   5.025   2.895   1.277
 3784WAT    HW111351   5.055   2.921   1.369
 3784WAT    HW211352   5.009   2.796   1.274
 3785WAT     OW11353   2.857   0.192   1.234
 3785WAT    HW111354   2.776   0.157   1.282
 3785WAT    HW211355   2.856   0.292   1.235
 3786WAT     OW11356   5.687   5.972   2.037
 3786WAT    HW111357   5.715   6.045   2.099
 3786WAT    HW211358   5.767   5.938   1.987
 3787WAT     OW11359   0.429   4.492   4.079
 3787WAT    HW111360   0.491   4.500   4.156
 3787WAT    HW211361   0.445   4.405   4.031
 3788WAT     OW11362   1.205   2.639   1.944
 3788WAT    HW111363   1.285   2.596   1.901
 3788WAT    HW211364   1.216   2.738   1.941
 3789WAT     OW11365   4.131   3.280   1.435
 3789WAT    HW111366   4.069   3.237   1.500
 3789WAT    HW211367   4.096   3.269   1.342
 3790WAT     OW11368   2.908   3.713   2.916
 3790WAT    HW111369   2.832   3.699   2.979
 3790WAT    HW211370   2.924   3.811   2.905
 3791WAT     OW11371   0.743   0.541   6.092
 3791WAT    HW111372   0.648   0.522   6.066
 3791WAT    HW211373   0.798   0.554   6.009
 3792WAT     OW11374   1.627   6.641   1.617
 3792WAT    HW111375   1.664   6.590   1.539
 3792WAT    HW211376   1.695   6.646   1.690
 3793WAT     OW11377   5.725   1.205   0.823
 3793WAT    HW111378   5.712   1.245   0.914
 3793WAT    HW211379   5.769   1.271   0.763
 3794WAT     OW11380   4.110   2.640   4.640
 3794WAT    HW111381   4.070   2.702   4.572
 3794WAT    HW211382   4.147   2.560   4.594
 3795WAT     OW11383   1.664   2.938   2.018
 3795WAT    HW111384   1.702   3.018   2.064
 3795WAT    HW211385   1.717   2.919   1.936
 3796WAT     OW11386   6.579   0.394   4.521
 3796WAT    HW111387   6.486   0.407   4.488
 3796WAT    HW211388   6.577   0.342   4.606
 3797WAT     OW11389   5.170   1.646   5.848
 3797WAT    HW111390   5.176   1.592   5.764
 3797WAT    HW211391   5.221   1.731   5.835
 3798WAT     OW11392   1.282   4.112   2.878
 3798WAT    HW111393   1.184   4.095   2.883
 3798WAT    HW211394   1.330   4.051   2.940
 3799WAT     OW11395   2.322   1.279   1.630
 3799WAT    HW111396   2.357   1.260   1.721
 3799WAT    HW211397   2.247   1.345   1.635
 3800WAT     OW11398   3.325   3.596   6.145
 3800WAT    HW111399   3.335   3.651   6.062
 3800WAT    HW211400   3.415   3.581   6.185
 3801WAT     OW11401   2.884   2.234   1.235
 3801WAT    HW111402   2.871   2.179   1.152
 3801WAT    HW211403   2.794   2.261   1.271
 3802WAT     OW11404   1.127   6.134   1.119
 3802WAT    HW111405   1.180   6.179   1.047
 3802WAT    HW211406   1.188   6.076   1.173
 3803WAT     OW11407   2.666   3.447   3.616
 3803WAT    HW111408   2.701   3.354   3.618
 3803WAT    HW211409   2.741   3.510   3.595
 3804WAT     OW11410   5.612   4.704   3.032
 3804WAT    HW111411   5.645   4.628   2.975
 3804WAT    HW211412   5.542   4.755   2.982
 3805WAT     OW11413   0.570   3.854   0.719
 3805WAT    HW111414   0.541   3.903   0.637
 3805WAT    HW211415   0.521   3.891   0.798
 3806WAT     OW11416   2.902   6.610   3.247
 3806WAT    HW111417   2.919   6.535   3.311
 3806WAT    HW211418   2.888   6.572   3.156
 3807WAT     OW11419   0.045   2.480   4.701
 3807WAT    HW111420   0.047   2.540   4.780
 3807WAT    HW211421   0.090   2.394   4.723
 3808WAT     OW11422   0.487   2.063   3.634
 3808WAT    HW111423   0.400   2.090   3.676
 3808WAT    HW211424   0.469   1.998   3.561
 3809WAT     OW11425   6.062   2.556   0.180
 3809WAT    HW111426   6.098   2.647   0.162
 3809WAT    HW211427   5.965   2.562   0.205
 3810WAT     OW11428   4.926   5.563   4.218
 3810WAT    HW111429   4.922   5.467   4.247
 3810WAT    HW211430   4.994   5.611   4.272
 3811WAT     OW11431   1.444   3.403   4.880
 3811WAT    HW111432   1.439   3.463   4.801
 3811WAT    HW211433   1.413   3.452   4.961
 3812WAT     OW11434   4.691   0.216   5.466
 3812WAT    HW111435   4.763   0.147   5.452
 3812WAT    HW211436   4.678   0.230   5.564
 3813WAT     OW11437   4.865   2.830   2.364
 3813WAT    HW111438   4.829   2.790   2.279
 3813WAT    HW211439   4.923   2.908   2.342
 3814WAT     OW11440   4.658   2.124   3.774
 3814WAT    HW111441   4.749   2.134   3.814
 3814WAT    HW211442   4.657   2.045   3.713
 3815WAT     OW11443   2.433   0.988   4.491
 3815WAT    HW111444   2.367   0.941   4.432
 3815WAT    HW211445   2.387   1.017   4.575
 3816WAT     OW11446   6.549   2.525   3.422
 3816WAT    HW111447   6.639   2.568   3.416
 3816WAT    HW211448   6.548   2.461   3.499
 3817WAT     OW11449   0.520   5.049   6.453
 3817WAT    HW111450   0.545   4.961   6.493
 3817WAT    HW211451   0.423   5.067   6.470
 3818WAT     OW11452   1.546   1.954   2.617
 3818WAT    HW111453   1.500   2.042   2.630
 3818WAT    HW211454   1.484   1.880   2.643
 3819WAT     OW11455   3.256   4.597   4.716
 3819WAT    HW111456   3.198   4.550   4.783
 3819WAT    HW211457   3.352   4.583   4.740
 3820WAT     OW11458   5.411   1.576   5.530
 3820WAT    HW111459   5.328   1.530   5.562
 3820WAT    HW211460   5.486   1.556   5.593
 3821WAT     OW11461   4.884   3.763   1.245
 3821WAT    HW111462   4.870   3.672   1.284
 3821WAT    HW211463   4.955   3.811   1.296
 3822WAT     OW11464   2.391   6.091   6.404
 3822WAT    HW111465   2.457   6.044   6.463
 3822WAT    HW211466   2.438   6.128   6.324
 3823WAT     OW11467   0.499   0.289   4.839
 3823WAT    HW111468   0.492   0.215   4.772
 3823WAT    HW211469   0.552   0.257   4.918
 3824WAT     OW11470   2.912   3.849   2.590
 3824WAT    HW111471   2.879   3.942   2.606
 3824WAT    HW211472   2.907   3.828   2.492
 3825WAT     OW11473   2.795   3.452   1.203
 3825WAT    HW111474   2.839   3.431   1.291
 3825WAT    HW211475   2.720   3.388   1.186
 3826WAT     OW11476   3.974   5.329   2.658
 3826WAT    HW111477   3.888   5.348   2.706
 3826WAT    HW211478   3.996   5.232   2.665
 3827WAT     OW11479   4.965   3.213   1.928
 3827WAT    HW111480   5.027   3.271   1.876
 3827WAT    HW211481   5.015   3.134   1.965
 3828WAT     OW11482   3.465   6.672   0.075
 3828WAT    HW111483   3.456   6.760   0.120
 3828WAT    HW211484   3.392   6.610   0.107
 3829WAT     OW11485   5.235   5.570   3.488
 3829WAT    HW111486   5.189   5.657   3.470
 3829WAT    HW211487   5.186   5.522   3.562
 3830WAT     OW11488   5.067   1.598   3.007
 3830WAT    HW111489   5.005   1.521   2.993
 3830WAT    HW211490   5.090   1.639   2.919
 3831WAT     OW11491   6.465   1.437   1.372
 3831WAT    HW111492   6.372   1.463   1.345
 3831WAT    HW211493   6.497   1.362   1.315
 3832WAT     OW11494   0.056   1.945   1.722
 3832WAT    HW111495   0.120   1.973   1.794
 3832WAT    HW211496  -0.012   2.017   1.709
 3833WAT     OW11497   0.914   2.429   4.844
 3833WAT    HW111498   0.948   2.511   4.798
 3833WAT    HW211499   0.991   2.376   4.878
 3834WAT     OW11500   4.857   5.636   0.090
 3834WAT    HW111501   4.954   5.612   0.092
 3834WAT    HW211502   4.805   5.560   0.052
 3835WAT     OW11503   2.982   3.426   0.068
 3835WAT    HW111504   2.962   3.347   0.125
 3835WAT    HW211505   3.064   3.409   0.014
 3836WAT     OW11506   6.367   3.732   3.715
 3836WAT    HW111507   6.315   3.764   3.795
 3836WAT    HW211508   6.353   3.634   3.704
 3837WAT     OW11509   3.420   1.765   4.924
 3837WAT    HW111510   3.464   1.851   4.902
 3837WAT    HW211511   3.436   1.742   5.020
 3838WAT     OW11512   5.944   0.825   3.622
 3838WAT    HW111513   5.858   0.867   3.594
 3838WAT    HW211514   6.009   0.828   3.547
 3839WAT     OW11515   5.342   4.246   5.641
 3839WAT    HW111516   5.439   4.224   5.637
 3839WAT    HW211517   5.311   4.243   5.736
 3840WAT     OW11518   2.463   2.131   1.045
 3840WAT    HW111519   2.365   2.118   1.030
 3840WAT    HW211520   2.499   2.052   1.095
 3841WAT     OW11521   1.726   6.561   6.019
 3841WAT    HW111522   1.790   6.492   6.050
 3841WAT    HW211523   1.635   6.521   6.011
 3842WAT     OW11524   5.482   1.867   4.838
 3842WAT    HW111525   5.428   1.928   4.896
 3842WAT    HW211526   5.551   1.820   4.893
 3843WAT     OW11527   5.896   6.550   1.680
 3843WAT    HW111528   5.903   6.464   1.730
 3843WAT    HW211529   5.935   6.539   1.589
 3844WAT     OW11530   5.923   5.776   3.141
 3844WAT    HW111531   5.846   5.827   3.179
 3844WAT    HW211532   5.893   5.684   3.116
 3845WAT     OW11533   5.495   0.282   2.790
 3845WAT    HW111534   5.590   0.312   2.793
 3845WAT    HW211535   5.454   0.311   2.704
 3846WAT     OW11536   3.163   6.057   2.209
 3846WAT    HW111537   3.187   5.991   2.138
 3846WAT    HW211538   3.119   6.010   2.286
 3847WAT     OW11539   2.894   2.025   5.378
 3847WAT    HW111540   2.965   2.038   5.447
 3847WAT    HW211541   2.912   1.940   5.327
 3848WAT     OW11542   1.439   5.617   4.363
 3848WAT    HW111543   1.384   5.537   4.384
 3848WAT    HW211544   1.536   5.592   4.359
 3849WAT     OW11545   1.169   0.306   3.024
 3849WAT    HW111546   1.137   0.375   2.959
 3849WAT    HW211547   1.265   0.284   3.005
 3850WAT     OW11548   1.604   4.230   4.765
 3850WAT    HW111549   1.698   4.194   4.762
 3850WAT    HW211550   1.604   4.325   4.733
 3851WAT     OW11551   5.868   6.136   1.103
 3851WAT    HW111552   5.880   6.143   1.003
 3851WAT    HW211553   5.951   6.097   1.143
 3852WAT     OW11554   2.127   3.655   1.480
 3852WAT    HW111555   2.125   3.685   1.575
 3852WAT    HW211556   2.056   3.586   1.465
 3853WAT     OW11557   5.412   3.329   0.502
 3853WAT    HW111558   5.365   3.411   0.534
 3853WAT    HW211559   5.347   3.252   0.502
 3854WAT     OW11560   1.831   4.791   4.868
 3854WAT    HW111561   1.925   4.823   4.879
 3854WAT    HW211562   1.768   4.865   4.892
 3855WAT     OW11563   3.050   2.695   2.218
 3855WAT    HW111564   3.060   2.637   2.298
 3855WAT    HW211565   2.961   2.679   2.176
 3856WAT     OW11566   3.910   2.629   4.831
 3856WAT    HW111567   3.990   2.629   4.772
 3856WAT    HW211568   3.837   2.682   4.788
 3857WAT     OW11569   4.233   2.837   0.997
 3857WAT    HW111570   4.180   2.763   1.039
 3857WAT    HW211571   4.268   2.897   1.069
 3858WAT     OW11572   2.280   3.201   5.032
 3858WAT    HW111573   2.357   3.175   4.973
 3858WAT    HW211574   2.300   3.287   5.077
 3859WAT     OW11575   0.187   6.308   3.893
 3859WAT    HW111576   0.237   6.373   3.835
 3859WAT    HW211577   0.143   6.357   3.968
 3860WAT     OW11578   0.981   2.892   3.496
 3860WAT    HW111579   1.017   2.806   3.534
 3860WAT    HW211580   0.951   2.951   3.570
 3861WAT     OW11581   6.582   1.447   1.818
 3861WAT    HW111582   6.594   1.546   1.812
 3861WAT    HW211583   6.593   1.405   1.728
 3862WAT     OW11584   1.315   6.546   5.598
 3862WAT    HW111585   1.389   6.516   5.658
 3862WAT    HW211586   1.330   6.509   5.506
 3863WAT     OW11587   5.736   4.503   4.403
 3863WAT    HW111588   5.728   4.403   4.400
 3863WAT    HW211589   5.707   4.541   4.315
 3864WAT     OW11590   4.823   2.609   1.876
 3864WAT    HW111591   4.878   2.530   1.901
 3864WAT    HW211592   4.873   2.666   1.810
 3865WAT     OW11593   3.805   4.970   4.323
 3865WAT    HW111594   3.788   4.874   4.345
 3865WAT    HW211595   3.787   4.987   4.227
 3866WAT     OW11596   0.499   4.860   2.915
 3866WAT    HW111597   0.592   4.894   2.927
 3866WAT    HW211598   0.443   4.929   2.870
 3867WAT     OW11599   4.930   2.481   3.673
 3867WAT    HW111600   4.967   2.398   3.633
 3867WAT    HW211601   4.882   2.534   3.603
 3868WAT     OW11602   6.083   2.466   4.368
 3868WAT    HW111603   6.030   2.472   4.283
 3868WAT    HW211604   6.062   2.544   4.426
 3869WAT     OW11605   5.862   0.529   4.864
 3869WAT    HW111606   5.944   0.585   4.852
 3869WAT    HW211607   5.782   0.580   4.832
 3870WAT     OW11608   4.350   4.028   5.553
 3870WAT    HW111609   4.327   4.102   5.617
 3870WAT    HW211610   4.281   4.024   5.481
 3871WAT     OW11611   2.090   3.134   4.847
 3871WAT    HW111612   2.111   3.172   4.756
 3871WAT    HW211613   2.162   3.159   4.911
 3872WAT     OW11614   1.953   3.875   3.083
 3872WAT    HW111615   1.947   3.777   3.102
 3872WAT    HW211616   1.864   3.918   3.097
 3873WAT     OW11617   4.883   6.097   6.041
 3873WAT    HW111618   4.821   6.145   5.978
 3873WAT    HW211619   4.945   6.040   5.988
 3874WAT     OW11620   1.362   1.920   3.432
 3874WAT    HW111621   1.272   1.952   3.463
 3874WAT    HW211622   1.431   1.942   3.500
 3875WAT     OW11623   0.294   1.469   3.692
 3875WAT    HW111624   0.335   1.527   3.621
 3875WAT    HW211625   0.336   1.490   3.780
 3876WAT     OW11626   6.161   4.732   3.348
 3876WAT    HW111627   6.248   4.760   3.388
 3876WAT    HW211628   6.126   4.805   3.290
 3877WAT     OW11629   0.940   6.473   4.893
 3877WAT    HW111630   0.995   6.556   4.887
 3877WAT    HW211631   0.852   6.494   4.936
 3878WAT     OW11632   3.818   3.794   0.231
 3878WAT    HW111633   3.848   3.722   0.295
 3878WAT    HW211634   3.729   3.770   0.193
 3879WAT     OW11635   2.728   1.323   1.525
 3879WAT    HW111636   2.732   1.231   1.564
 3879WAT    HW211637   2.723   1.390   1.599
 3880WAT     OW11638   1.862   2.735   0.505
 3880WAT    HW111639   1.783   2.683   0.470
 3880WAT    HW211640   1.928   2.749   0.431
 3881WAT     OW11641   3.730   5.364   2.790
 3881WAT    HW111642   3.681   5.397   2.710
 3881WAT    HW211643   3.725   5.432   2.863
 3882WAT     OW11644   2.289   6.270   4.815
 3882WAT    HW111645   2.198   6.309   4.807
 3882WAT    HW211646   2.321   6.277   4.910
 3883WAT     OW11647   1.272   6.169   5.590
 3883WAT    HW111648   1.350   6.192   5.532
 3883WAT    HW211649   1.187   6.187   5.540
 3884WAT     OW11650   0.526   0.360   2.422
 3884WAT    HW111651   0.469   0.294   2.372
 3884WAT    HW211652   0.498   0.453   2.399
 3885WAT     OW11653   5.744   0.731   6.309
 3885WAT    HW111654   5.717   0.822   6.278
 3885WAT    HW211655   5.682   0.701   6.381
 3886WAT     OW11656   5.315   2.742   2.960
 3886WAT    HW111657   5.376   2.817   2.985
 3886WAT    HW211658   5.301   2.742   2.861
 3887WAT     OW11659   3.195   5.393   1.366
 3887WAT    HW111660   3.277   5.427   1.412
 3887WAT    HW211661   3.184   5.296   1.385
 3888WAT     OW11662   4.142   0.056   3.488
 3888WAT    HW111663   4.128   0.112   3.406
 3888WAT    HW211664   4.110   0.107   3.568
 3889WAT     OW11665   1.040   0.003   4.613
 3889WAT    HW111666   1.039   0.020   4.712
 3889WAT    HW211667   0.965  -0.060   4.590
 3890WAT     OW11668   0.310   3.226   6.453
 3890WAT    HW111669   0.235   3.160   6.453
 3890WAT    HW211670   0.309   3.277   6.367
 3891WAT     OW11671   6.139   5.166   3.062
 3891WAT    HW111672   6.220   5.223   3.070
 3891WAT    HW211673   6.057   5.221   3.079
 3892WAT     OW11674   5.695   3.378   6.618
 3892WAT    HW111675   5.721   3.367   6.522
 3892WAT    HW211676   5.772   3.416   6.669
 3893WAT     OW11677   0.643   3.657   1.654
 3893WAT    HW111678   0.605   3.606   1.731
 3893WAT    HW211679   0.573   3.719   1.618
 3894WAT     OW11680   0.454   3.953   0.950
 3894WAT    HW111681   0.439   4.046   0.983
 3894WAT    HW211682   0.531   3.913   0.999
 3895WAT     OW11683   5.494   2.266   3.593
 3895WAT    HW111684   5.459   2.262   3.687
 3895WAT    HW211685   5.471   2.355   3.553
 3896WAT     OW11686   5.753   1.108   2.061
 3896WAT    HW111687   5.662   1.149   2.058
 3896WAT    HW211688   5.754   1.023   2.008
 3897WAT     OW11689   4.011   5.091   5.534
 3897WAT    HW111690   3.917   5.063   5.553
 3897WAT    HW211691   4.072   5.013   5.545
 3898WAT     OW11692   0.226   1.878   4.777
 3898WAT    HW111693   0.191   1.834   4.695
 3898WAT    HW211694   0.163   1.863   4.853
 3899WAT     OW11695   4.327   1.833   5.391
 3899WAT    HW111696   4.301   1.737   5.389
 3899WAT    HW211697   4.250   1.888   5.425
 3900WAT     OW11698   2.047   1.456   2.784
 3900WAT    HW111699   2.120   1.482   2.720
 3900WAT    HW211700   1.968   1.422   2.733
 3901WAT     OW11701   5.941   6.062   2.860
 3901WAT    HW111702   6.037   6.070   2.833
 3901WAT    HW211703   5.915   6.142   2.915
 3902WAT     OW11704   4.070   1.144   2.035
 3902WAT    HW111705   3.983   1.096   2.041
 3902WAT    HW211706   4.137   1.086   1.987
 3903WAT     OW11707   3.627   1.092   5.320
 3903WAT    HW111708   3.683   1.164   5.362
 3903WAT    HW211709   3.627   1.104   5.221
 3904WAT     OW11710   4.532   0.189   5.986
 3904WAT    HW111711   4.466   0.239   6.042
 3904WAT    HW211712   4.510   0.092   5.988
 3905WAT     OW11713   2.800   4.170   2.409
 3905WAT    HW111714   2.797   4.146   2.506
 3905WAT    HW211715   2.759   4.260   2.396
 3906WAT     OW11716   1.220   0.544   2.187
 3906WAT    HW111717   1.167   0.545   2.102
 3906WAT    HW211718   1.292   0.613   2.182
 3907WAT     OW11719   0.460   6.310   5.288
 3907WAT    HW111720   0.549   6.323   5.331
 3907WAT    HW211721   0.471   6.259   5.202
 3908WAT     OW11722   1.560   5.422   5.340
 3908WAT    HW111723   1.551   5.521   5.351
 3908WAT    HW211724   1.633   5.388   5.399
 3909WAT     OW11725   1.673   5.430   4.096
 3909WAT    HW111726   1.692   5.474   4.183
 3909WAT    HW211727   1.633   5.339   4.112
 3910WAT     OW11728   6.426   3.001   5.020
 3910WAT    HW111729   6.475   3.033   5.101
 3910WAT    HW211730   6.459   3.050   4.939
 3911WAT     OW11731   3.715   2.344   4.451
 3911WAT    HW111732   3.750   2.263   4.499
 3911WAT    HW211733   3.782   2.373   4.383
 3912WAT     OW11734   3.507   1.429   0.403
 3912WAT    HW111735   3.593   1.479   0.405
 3912WAT    HW211736   3.455   1.449   0.487
 3913WAT     OW11737   2.470   2.386   1.145
 3913WAT    HW111738   2.493   2.447   1.069
 3913WAT    HW211739   2.463   2.292   1.112
 3914WAT     OW11740   6.064   6.327   0.808
 3914WAT    HW111741   6.115   6.291   0.886
 3914WAT    HW211742   5.974   6.284   0.804
 3915WAT     OW11743   4.110   0.387   1.465
 3915WAT    HW111744   4.191   0.434   1.430
 3915WAT    HW211745   4.115   0.290   1.444
 3916WAT     OW11746   2.888   5.228   5.036
 3916WAT    HW111747   2.796   5.189   5.044
 3916WAT    HW211748   2.902   5.295   5.109
 3917WAT     OW11749   0.831   4.972   3.640
 3917WAT    HW111750   0.848   5.068   3.664
 3917WAT    HW211751   0.839   4.915   3.721
 3918WAT     OW11752   0.129   6.308   3.588
 3918WAT    HW111753   0.196   6.362   3.638
 3918WAT    HW211754   0.052   6.287   3.648
 3919WAT     OW11755   1.414   5.165   0.627
 3919WAT    HW111756   1.453   5.241   0.679
 3919WAT    HW211757   1.456   5.162   0.536
 3920WAT     OW11758   0.518   0.724   4.378
 3920WAT    HW111759   0.476   0.713   4.468
 3920WAT    HW211760   0.448   0.713   4.307
 3921WAT     OW11761   2.299   1.706   4.838
 3921WAT    HW111762   2.295   1.798   4.799
 3921WAT    HW211763   2.216   1.656   4.814
 3922WAT     OW11764   0.534   1.753   2.082
 3922WAT    HW111765   0.471   1.728   2.009
 3922WAT    HW211766   0.627   1.762   2.045
 3923WAT     OW11767   5.181   3.593   3.486
 3923WAT    HW111768   5.143   3.502   3.467
 3923WAT    HW211769   5.198   3.641   3.401
 3924WAT     OW11770   0.444   3.750   4.363
 3924WAT    HW111771   0.347   3.745   4.388
 3924WAT    HW211772   0.463   3.840   4.323
 3925WAT     OW11773   0.118   4.863   3.197
 3925WAT    HW111774   0.205   4.826   3.166
 3925WAT    HW211775   0.097   4.827   3.288
 3926WAT     OW11776   6.683   3.425   2.433
 3926WAT    HW111777   6.673   3.326   2.441
 3926WAT    HW211778   6.745   3.458   2.505
 3927WAT     OW11779   6.010   0.790   1.952
 3927WAT    HW111780   5.915   0.820   1.946
 3927WAT    HW211781   6.044   0.770   1.860
 3928WAT     OW11782   2.125   1.460   1.683
 3928WAT    HW111783   2.077   1.494   1.602
 3928WAT    HW211784   2.151   1.537   1.741
 3929WAT     OW11785   1.635   3.751   5.710
 3929WAT    HW111786   1.664   3.822   5.646
 3929WAT    HW211787   1.699   3.745   5.786
 3930WAT     OW11788   6.522   4.576   0.905
 3930WAT    HW111789   6.423   4.589   0.911
 3930WAT    HW211790   6.567   4.637   0.971
 3931WAT     OW11791   0.177   6.245   2.335
 3931WAT    HW111792   0.211   6.319   2.276
 3931WAT    HW211793   0.123   6.181   2.281
 3932WAT     OW11794   5.337   5.366   2.299
 3932WAT    HW111795   5.364   5.443   2.358
 3932WAT    HW211796   5.361   5.280   2.344
 3933WAT     OW11797   5.329   1.518   3.101
 3933WAT    HW111798   5.385   1.520   3.019
 3933WAT    HW211799   5.235   1.542   3.078
 3934WAT     OW11800   1.838   5.102   5.121
 3934WAT    HW111801   1.774   5.056   5.060
 3934WAT    HW211802   1.839   5.054   5.209
 3935WAT     OW11803   1.340   0.957   0.728
 3935WAT    HW111804   1.391   0.875   0.703
 3935WAT    HW211805   1.403   1.035   0.735
 3936WAT     OW11806   3.639   5.474   2.551
 3936WAT    HW111807   3.572   5.517   2.490
 3936WAT    HW211808   3.697   5.545   2.592
 3937WAT     OW11809   5.964   1.444   6.189
 3937WAT    HW111810   5.883   1.488   6.227
 3937WAT    HW211811   5.955   1.438   6.089
 3938WAT     OW11812   3.272   0.616   6.573
 3938WAT    HW111813   3.355   0.612   6.518
 3938WAT    HW211814   3.279   0.690   6.639
 3939WAT     OW11815   3.362   2.664   0.752
 3939WAT    HW111816   3.390   2.613   0.834
 3939WAT    HW211817   3.353   2.601   0.675
 3940WAT     OW11818   5.994   3.683   2.680
 3940WAT    HW111819   5.919   3.665   2.745
 3940WAT    HW211820   6.040   3.767   2.706
 3941WAT     OW11821   2.285   4.686   4.652
 3941WAT    HW111822   2.263   4.643   4.565
 3941WAT    HW211823   2.375   4.654   4.684
 3942WAT     OW11824   1.861   1.092   5.401
 3942WAT    HW111825   1.943   1.046   5.434
 3942WAT    HW211826   1.867   1.103   5.301
 3943WAT     OW11827   4.365   4.457   0.848
 3943WAT    HW111828   4.276   4.490   0.879
 3943WAT    HW211829   4.425   4.535   0.828
 3944WAT     OW11830   3.500   3.013   1.069
 3944WAT    HW111831   3.531   3.036   1.162
 3944WAT    HW211832   3.464   3.095   1.025
 3945WAT     OW11833   1.619   0.724   3.427
 3945WAT    HW111834   1.532   0.744   3.381
 3945WAT    HW211835   1.652   0.806   3.473
 3946WAT     OW11836   2.596   5.938   3.704
 3946WAT    HW111837   2.687   5.978   3.702
 3946WAT    HW211838   2.527   6.011   3.705
 3947WAT     OW11839   1.943   2.325   5.066
 3947WAT    HW111840   1.939   2.357   4.971
 3947WAT    HW211841   2.038   2.325   5.097
 3948WAT     OW11842   5.496   4.662   3.475
 3948WAT    HW111843   5.541   4.629   3.392
 3948WAT    HW211844   5.444   4.745   3.453
 3949WAT     OW11845   3.939   4.560   6.031
 3949WAT    HW111846   3.930   4.615   6.115
 3949WAT    HW211847   3.848   4.536   5.998
 3950WAT     OW11848   4.676   4.587   6.617
 3950WAT    HW111849   4.742   4.605   6.544
 3950WAT    HW211850   4.585   4.617   6.588
 3951WAT     OW11851   0.221   0.040   3.766
 3951WAT    HW111852   0.158   0.099   3.816
 3951WAT    HW211853   0.316   0.062   3.792
 3952WAT     OW11854   2.698   0.831   3.952
 3952WAT    HW111855   2.720   0.753   3.893
 3952WAT    HW211856   2.739   0.913   3.914
 3953WAT     OW11857   3.255   6.543   4.154
 3953WAT    HW111858   3.351   6.571   4.151
 3953WAT    HW211859   3.229   6.505   4.065
 3954WAT     OW11860   1.117   6.233   4.365
 3954WAT    HW111861   1.145   6.138   4.346
 3954WAT    HW211862   1.143   6.257   4.458
 3955WAT     OW11863   6.379   5.214   0.660
 3955WAT    HW111864   6.305   5.163   0.616
 3955WAT    HW211865   6.341   5.291   0.710
 3956WAT     OW11866   3.559   0.306   0.748
 3956WAT    HW111867   3.591   0.232   0.689
 3956WAT    HW211868   3.574   0.394   0.703
 3957WAT     OW11869   1.956   5.942   2.044
 3957WAT    HW111870   1.869   5.991   2.053
 3957WAT    HW211871   2.030   6.008   2.037
 3958WAT     OW11872   1.332   3.366   1.968
 3958WAT    HW111873   1.267   3.350   2.043
 3958WAT    HW211874   1.315   3.301   1.894
 3959WAT     OW11875   4.451   4.672   6.471
 3959WAT    HW111876   4.353   4.653   6.464
 3959WAT    HW211877   4.467   4.769   6.452
 3960WAT     OW11878   5.379   1.436   3.955
 3960WAT    HW111879   5.336   1.511   3.904
 3960WAT    HW211880   5.325   1.353   3.944
 3961WAT     OW11881   4.548   4.298   0.708
 3961WAT    HW111882   4.542   4.302   0.608
 3961WAT    HW211883   4.471   4.349   0.747
 3962WAT     OW11884   1.224   6.100   0.730
 3962WAT    HW111885   1.138   6.057   0.755
 3962WAT    HW211886   1.256   6.158   0.805
 3963WAT     OW11887   0.941   0.958   1.292
 3963WAT    HW111888   1.035   0.949   1.257
 3963WAT    HW211889   0.881   0.989   1.219
 3964WAT     OW11890   0.612   4.415   2.954
 3964WAT    HW111891   0.526   4.449   2.994
 3964WAT    HW211892   0.660   4.360   3.022
 3965WAT     OW11893   4.160   1.203   4.396
 3965WAT    HW111894   4.203   1.133   4.454
 3965WAT    HW211895   4.223   1.227   4.322
 3966WAT     OW11896   1.782   3.091   5.378
 3966WAT    HW111897   1.799   3.006   5.429
 3966WAT    HW211898   1.798   3.074   5.280
 3967WAT     OW11899   3.448   3.245   2.313
 3967WAT    HW111900   3.361   3.246   2.363
 3967WAT    HW211901   3.499   3.162   2.336
 3968WAT     OW11902   2.220   2.106   3.115
 3968WAT    HW111903   2.207   2.108   3.214
 3968WAT    HW211904   2.131   2.097   3.070
 3969WAT     OW11905   2.977   3.272   0.658
 3969WAT    HW111906   3.018   3.341   0.719
 3969WAT    HW211907   2.981   3.305   0.564
 3970WAT     OW11908   1.218   1.716   1.426
 3970WAT    HW111909   1.164   1.636   1.450
 3970WAT    HW211910   1.215   1.782   1.501
 3971WAT     OW11911   4.029   5.353   2.390
 3971WAT    HW111912   4.006   5.358   2.488
 3971WAT    HW211913   4.110   5.296   2.378
 3972WAT     OW11914   3.899   5.398   6.109
 3972WAT    HW111915   3.872   5.368   6.018
 3972WAT    HW211916   3.877   5.495   6.121
 3973WAT     OW11917   0.169   3.728   2.360
 3973WAT    HW111918   0.222   3.643   2.361
 3973WAT    HW211919   0.078   3.711   2.397
 3974WAT     OW11920   0.532   4.026   2.433
 3974WAT    HW111921   0.597   4.091   2.393
 3974WAT    HW211922   0.542   4.026   2.532
 3975WAT     OW11923   3.426   4.111   1.899
 3975WAT    HW111924   3.445   4.014   1.890
 3975WAT    HW211925   3.512   4.160   1.917
 3976WAT     OW11926   2.135   2.249   4.470
 3976WAT    HW111927   2.183   2.335   4.489
 3976WAT    HW211928   2.044   2.251   4.510
 3977WAT     OW11929   5.106   5.309   0.035
 3977WAT    HW111930   5.066   5.234   0.087
 3977WAT    HW211931   5.125   5.279  -0.059
 3978WAT     OW11932   3.289   6.594   6.159
 3978WAT    HW111933   3.198   6.629   6.135
 3978WAT    HW211934   3.282   6.497   6.181
 3979WAT     OW11935   5.350   0.940   4.260
 3979WAT    HW111936   5.423   0.898   4.206
 3979WAT    HW211937   5.359   0.909   4.355
 3980WAT     OW11938   6.239   0.474   2.844
 3980WAT    HW111939   6.183   0.392   2.853
 3980WAT    HW211940   6.336   0.448   2.835
 3981WAT     OW11941   1.373   0.237   3.701
 3981WAT    HW111942   1.314   0.315   3.681
 3981WAT    HW211943   1.459   0.269   3.739
 3982WAT     OW11944   4.332   6.219   4.137
 3982WAT    HW111945   4.417   6.271   4.136
 3982WAT    HW211946   4.288   6.228   4.226
 3983WAT     OW11947   0.929   1.348   2.481
 3983WAT    HW111948   0.880   1.290   2.545
 3983WAT    HW211949   0.866   1.417   2.444
 3984WAT     OW11950   4.268   5.910   1.791
 3984WAT    HW111951   4.279   5.910   1.890
 3984WAT    HW211952   4.235   5.820   1.761
 3985WAT     OW11953   6.289   0.095   3.056
 3985WAT    HW111954   6.337   0.008   3.039
 3985WAT    HW211955   6.356   0.168   3.067
 3986WAT     OW11956   5.565   3.046   6.627
 3986WAT    HW111957   5.665   3.039   6.624
 3986WAT    HW211958   5.538   3.124   6.683
 3987WAT     OW11959   5.053   2.965   5.773
 3987WAT    HW111960   5.109   2.883   5.766
 3987WAT    HW211961   4.960   2.941   5.802
 3988WAT     OW11962   0.294   4.979   4.539
 3988WAT    HW111963   0.303   4.880   4.537
 3988WAT    HW211964   0.323   5.018   4.451
 3989WAT     OW11965   6.448   0.800   1.367
 3989WAT    HW111966   6.423   0.896   1.379
 3989WAT    HW211967   6.449   0.754   1.457
 3990WAT     OW11968   1.909   3.262   6.461
 3990WAT    HW111969   1.959   3.194   6.515
 3990WAT    HW211970   1.871   3.217   6.380
 3991WAT     OW11971   0.320   2.742   2.960
 3991WAT    HW111972   0.388   2.672   2.937
 3991WAT    HW211973   0.301   2.797   2.879
 3992WAT     OW11974   1.187   3.349   1.547
 3992WAT    HW111975   1.273   3.361   1.497
 3992WAT    HW211976   1.204   3.296   1.630
 3993WAT     OW11977   4.718   4.869   4.853
 3993WAT    HW111978   4.772   4.788   4.830
 3993WAT    HW211979   4.775   4.936   4.901
 3994WAT     OW11980   2.829   6.264   4.382
 3994WAT    HW111981   2.818   6.314   4.468
 3994WAT    HW211982   2.796   6.321   4.306
 3995WAT     OW11983   0.643   0.947   2.984
 3995WAT    HW111984   0.691   0.887   3.048
 3995WAT    HW211985   0.581   0.892   2.928
 3996WAT     OW11986   2.452   4.440   5.719
 3996WAT    HW111987   2.408   4.377   5.784
 3996WAT    HW211988   2.465   4.393   5.632
 3997WAT     OW11989   1.561   1.929   6.429
 3997WAT    HW111990   1.467   1.957   6.446
 3997WAT    HW211991   1.598   1.885   6.511
 3998WAT     OW11992   2.273   4.910   3.843
 3998WAT    HW111993   2.305   4.974   3.773
 3998WAT    HW211994   2.299   4.943   3.934
 3999WAT     OW11995   1.396   4.206   6.275
 3999WAT    HW111996   1.388   4.285   6.215
 3999WAT    HW211997   1.323   4.141   6.254
 4000WAT     OW11998   6.292   0.446   1.652
 4000WAT    HW111999   6.200   0.461   1.616
 4000WAT    HW212000   6.347   0.399   1.583
 4001WAT     OW12001   2.535   5.543   0.802
 4001WAT    HW112002   2.536   5.637   0.768
 4001WAT    HW212003   2.574   5.541   0.895
 4002WAT     OW12004   1.353   1.519   4.310
 4002WAT    HW112005   1.332   1.556   4.401
 4002WAT    HW212006   1.365   1.594   4.245
 4003WAT     OW12007   5.044   6.093   0.346
 4003WAT    HW112008   4.973   6.163   0.349
 4003WAT    HW212009   5.002   6.002   0.348
 4004WAT     OW12010   2.040   5.104   2.194
 4004WAT    HW112011   2.130   5.105   2.151
 4004WAT    HW212012   2.009   5.009   2.205
 4005WAT     OW12013   6.135   0.225   2.865
 4005WAT    HW112014   6.043   0.189   2.850
 4005WAT    HW212015   6.183   0.169   2.932
 4006WAT     OW12016   0.897   2.963   3.030
 4006WAT    HW112017   0.944   3.008   2.954
 4006WAT    HW212018   0.957   2.895   3.071
 4007WAT     OW12019   4.948   2.321   0.100
 4007WAT    HW112020   4.924   2.337   0.196
 4007WAT    HW212021   4.989   2.404   0.061
 4008WAT     OW12022   3.225   4.423   6.392
 4008WAT    HW112023   3.135   4.423   6.437
 4008WAT    HW212024   3.281   4.496   6.429
 4009WAT     OW12025   6.315   1.225   6.274
 4009WAT    HW112026   6.320   1.136   6.229
 4009WAT    HW212027   6.375   1.224   6.354
 4010WAT     OW12028   2.368   2.995   2.500
 4010WAT    HW112029   2.345   3.047   2.582
 4010WAT    HW212030   2.460   2.956   2.510
 4011WAT     OW12031   2.058   1.293   1.890
 4011WAT    HW112032   1.974   1.328   1.930
 4011WAT    HW212033   2.086   1.350   1.813
 4012WAT     OW12034   6.540   2.648   2.475
 4012WAT    HW112035   6.590   2.732   2.459
 4012WAT    HW212036   6.453   2.650   2.425
 4013WAT     OW12037   5.010   1.660   2.112
 4013WAT    HW112038   5.048   1.715   2.186
 4013WAT    HW212039   5.082   1.608   2.068
 4014WAT     OW12040   5.671   0.539   5.178
 4014WAT    HW112041   5.750   0.482   5.153
 4014WAT    HW212042   5.623   0.498   5.255
 4015WAT     OW12043   4.539   2.784   5.638
 4015WAT    HW112044   4.548   2.690   5.670
 4015WAT    HW212045   4.608   2.802   5.568
 4016WAT     OW12046   3.636   3.991   4.348
 4016WAT    HW112047   3.583   4.065   4.390
 4016WAT    HW212048   3.611   3.904   4.389
 4017WAT     OW12049   5.868   2.539   2.197
 4017WAT    HW112050   5.907   2.613   2.143
 4017WAT    HW212051   5.888   2.451   2.153
 4018WAT     OW12052   1.400   4.344   2.515
 4018WAT    HW112053   1.303   4.337   2.491
 4018WAT    HW212054   1.423   4.275   2.584
 4019WAT     OW12055   2.990   1.707   6.192
 4019WAT    HW112056   2.902   1.751   6.209
 4019WAT    HW212057   3.034   1.684   6.278
 4020WAT     OW12058   1.653   6.384   6.284
 4020WAT    HW112059   1.664   6.479   6.315
 4020WAT    HW212060   1.719   6.366   6.211
 4021WAT     OW12061   4.419   1.067   3.840
 4021WAT    HW112062   4.334   1.113   3.815
 4021WAT    HW212063   4.457   1.021   3.760
 4022WAT     OW12064   3.748   0.135   3.675
 4022WAT    HW112065   3.678   0.067   3.655
 4022WAT    HW212066   3.727   0.220   3.627
 4023WAT     OW12067   1.863   6.036   2.845
 4023WAT    HW112068   1.799   5.983   2.790
 4023WAT    HW212069   1.946   6.053   2.792
 4024WAT     OW12070   1.384   3.681   5.320
 4024WAT    HW112071   1.342   3.624   5.391
 4024WAT    HW212072   1.474   3.710   5.350
 4025WAT     OW12073   3.378   5.062   2.758
 4025WAT    HW112074   3.463   5.085   2.806
 4025WAT    HW212075   3.365   4.963   2.758
 4026WAT     OW12076   3.346   5.063   5.811
 4026WAT    HW112077   3.321   5.001   5.886
 4026WAT    HW212078   3.280   5.139   5.807
 4027WAT     OW12079   5.547   1.986   5.970
 4027WAT    HW112080   5.625   1.947   6.019
 4027WAT    HW212081   5.495   1.912   5.927
 4028WAT     OW12082   1.004   4.074   2.927
 4028WAT    HW112083   0.915   4.052   2.968
 4028WAT    HW212084   0.999   4.165   2.885
 4029WAT     OW12085   2.287   1.840   0.109
 4029WAT    HW112086   2.310   1.779   0.185
 4029WAT    HW212087   2.335   1.927   0.120
 4030WAT     OW12088   4.913   6.166   0.020
 4030WAT    HW112089   4.884   6.073   0.047
 4030WAT    HW212090   4.838   6.211  -0.028
 4031WAT     OW12091   2.137   0.594   2.917
 4031WAT    HW112092   2.072   0.588   2.992
 4031WAT    HW212093   2.186   0.507   2.909
 4032WAT     OW12094   3.521   2.298   4.949
 4032WAT    HW112095   3.471   2.364   5.003
 4032WAT    HW212096   3.611   2.335   4.926
 4033WAT     OW12097   6.137   6.614   2.687
 4033WAT    HW112098   6.040   6.612   2.660
 4033WAT    HW212099   6.181   6.694   2.647
 4034WAT     OW12100   1.630   0.296   3.352
 4034WAT    HW112101   1.603   0.207   3.388
 4034WAT    HW212102   1.718   0.287   3.306
 4035WAT     OW12103   5.579   3.393   4.993
 4035WAT    HW112104   5.546   3.431   4.907
 4035WAT    HW212105   5.625   3.306   4.976
 4036WAT     OW12106   1.122   5.652   3.677
 4036WAT    HW112107   1.165   5.563   3.691
 4036WAT    HW212108   1.189   5.717   3.641
 4037WAT     OW12109   4.868   1.277   6.197
 4037WAT    HW112110   4.862   1.377   6.191
 4037WAT    HW212111   4.885   1.239   6.106
 4038WAT     OW12112   4.955   1.302   3.856
 4038WAT    HW112113   4.912   1.321   3.768
 4038WAT    HW212114   4.940   1.379   3.918
 4039WAT     OW12115   2.866   2.101   2.352
 4039WAT    HW112116   2.898   2.087   2.258
 4039WAT    HW212117   2.916   2.177   2.393
 4040WAT     OW12118   4.390   0.158   4.553
 4040WAT    HW112119   4.377   0.059   4.551
 4040WAT    HW212120   4.383   0.195   4.460
 4041WAT     OW12121   4.429   4.511   3.193
 4041WAT    HW112122   4.367   4.588   3.175
 4041WAT    HW212123   4.454   4.467   3.107
 4042WAT     OW12124   1.805   4.154   0.814
 4042WAT    HW112125   1.863   4.075   0.834
 4042WAT    HW212126   1.798   4.166   0.715
 4043WAT     OW12127   6.018   3.469   5.103
 4043WAT    HW112128   5.941   3.434   5.157
 4043WAT    HW212129   5.984   3.536   5.037
 4044WAT     OW12130   3.447   0.244   3.352
 4044WAT    HW112131   3.465   0.301   3.271
 4044WAT    HW212132   3.519   0.259   3.420
 4045WAT     OW12133   1.229   4.429   5.873
 4045WAT    HW112134   1.210   4.338   5.836
 4045WAT    HW212135   1.243   4.494   5.798
 4046WAT     OW12136   5.119   3.434   0.345
 4046WAT    HW112137   5.192   3.445   0.277
 4046WAT    HW212138   5.153   3.463   0.434
 4047WAT     OW12139   4.980   4.465   5.320
 4047WAT    HW112140   4.911   4.537   5.317
 4047WAT    HW212141   5.064   4.497   5.275
 4048WAT     OW12142   1.610   2.052   5.114
 4048WAT    HW112143   1.644   2.085   5.026
 4048WAT    HW212144   1.512   2.035   5.108
 4049WAT     OW12145   5.603   0.604   6.508
 4049WAT    HW112146   5.514   0.558   6.502
 4049WAT    HW212147   5.675   0.537   6.522
 4050WAT     OW12148   6.454   3.318   0.702
 4050WAT    HW112149   6.418   3.357   0.786
 4050WAT    HW212150   6.392   3.246   0.670
 4051WAT     OW12151   1.828   0.146   1.058
 4051WAT    HW112152   1.781   0.145   0.970
 4051WAT    HW212153   1.880   0.230   1.067
 4052WAT     OW12154   3.566   2.046   4.244
 4052WAT    HW112155   3.511   2.056   4.161
 4052WAT    HW212156   3.507   2.060   4.324
 4053WAT     OW12157   0.724   2.667   2.461
 4053WAT    HW112158   0.807   2.643   2.511
 4053WAT    HW212159   0.748   2.696   2.368
 4054WAT     OW12160   1.832   0.919   4.131
 4054WAT    HW112161   1.762   0.982   4.165
 4054WAT    HW212162   1.799   0.825   4.139
 4055WAT     OW12163   0.797   0.281   2.439
 4055WAT    HW112164   0.813   0.200   2.495
 4055WAT    HW212165   0.699   0.298   2.431
 4056WAT     OW12166   1.352   4.870   6.359
 4056WAT    HW112167   1.336   4.780   6.318
 4056WAT    HW212168   1.398   4.859   6.447
 4057WAT     OW12169   2.705   2.217   4.094
 4057WAT    HW112170   2.755   2.158   4.157
 4057WAT    HW212171   2.607   2.212   4.113
 4058WAT     OW12172   4.766   2.735   2.114
 4058WAT    HW112173   4.791   2.691   2.028
 4058WAT    HW212174   4.726   2.824   2.096
 4059WAT     OW12175   1.878   2.211   3.750
 4059WAT    HW112176   1.801   2.269   3.724
 4059WAT    HW212177   1.861   2.170   3.839
 4060WAT     OW12178   2.460   6.459   0.490
 4060WAT    HW112179   2.557   6.479   0.509
 4060WAT    HW212180   2.406   6.477   0.572
 4061WAT     OW12181   6.387   5.965   0.425
 4061WAT    HW112182   6.467   6.023   0.438
 4061WAT    HW212183   6.307   6.021   0.402
 4062WAT     OW12184   3.576   2.329   6.224
 4062WAT    HW112185   3.559   2.251   6.165
 4062WAT    HW212186   3.657   2.379   6.192
 4063WAT     OW12187   3.469   3.546   5.779
 4063WAT    HW112188   3.531   3.575   5.706
 4063WAT    HW212189   3.397   3.488   5.741
 4064WAT     OW12190   1.705   4.084   2.863
 4064WAT    HW112191   1.690   4.165   2.920
 4064WAT    HW212192   1.792   4.093   2.815
 4065WAT     OW12193   0.961   5.798   1.386
 4065WAT    HW112194   1.015   5.718   1.360
 4065WAT    HW212195   0.980   5.823   1.481
 4066WAT     OW12196   4.960   3.371   1.047
 4066WAT    HW112197   5.025   3.435   1.088
 4066WAT    HW212198   4.885   3.353   1.111
 4067WAT     OW12199   0.881   0.079   2.615
 4067WAT    HW112200   0.980   0.086   2.632
 4067WAT    HW212201   0.851  -0.015   2.633
 4068WAT     OW12202   1.239   3.512   5.477
 4068WAT    HW112203   1.254   3.414   5.466
 4068WAT    HW212204   1.234   3.534   5.574
 4069WAT     OW12205   1.410   1.700   3.881
 4069WAT    HW112206   1.457   1.641   3.816
 4069WAT    HW212207   1.327   1.737   3.839
 4070WAT     OW12208   2.140   4.399   1.998
 4070WAT    HW112209   2.168   4.422   2.091
 4070WAT    HW212210   2.053   4.350   2.001
 4071WAT     OW12211   4.333   5.473   3.705
 4071WAT    HW112212   4.271   5.417   3.761
 4071WAT    HW212213   4.376   5.543   3.763
 4072WAT     OW12214   5.931   3.859   1.737
 4072WAT    HW112215   5.886   3.775   1.765
 4072WAT    HW212216   5.941   3.919   1.817
 4073WAT     OW12217   5.693   2.402   5.537
 4073WAT    HW112218   5.762   2.332   5.521
 4073WAT    HW212219   5.737   2.491   5.550
 4074WAT     OW12220   1.176   5.223   5.506
 4074WAT    HW112221   1.203   5.303   5.453
 4074WAT    HW212222   1.077   5.213   5.503
 4075WAT     OW12223   6.076   4.841   6.218
 4075WAT    HW112224   6.073   4.742   6.204
 4075WAT    HW212225   6.131   4.861   6.299
 4076WAT     OW12226   5.128   0.086   3.913
 4076WAT    HW112227   5.186   0.090   3.995
 4076WAT    HW212228   5.183   0.056   3.835
 4077WAT     OW12229   6.668   6.108   1.419
 4077WAT    HW112230   6.738   6.104   1.348
 4077WAT    HW212231   6.588   6.056   1.390
 4078WAT     OW12232   0.509   6.503   6.586
 4078WAT    HW112233   0.427   6.528   6.536
 4078WAT    HW212234   0.542   6.582   6.638
 4079WAT     OW12235   3.469   5.211   3.589
 4079WAT    HW112236   3.423   5.152   3.523
 4079WAT    HW212237   3.565   5.220   3.565
 4080WAT     OW12238   0.186   1.125   5.387
 4080WAT    HW112239   0.266   1.076   5.420
 4080WAT    HW212240   0.143   1.173   5.464
 4081WAT     OW12241   4.055   5.857   6.413
 4081WAT    HW112242   4.134   5.867   6.472
 4081WAT    HW212243   3.990   5.932   6.430
 4082WAT     OW12244   4.600   1.648   0.515
 4082WAT    HW112245   4.617   1.653   0.417
 4082WAT    HW212246   4.687   1.654   0.565
 4083WAT     OW12247   5.568   0.621   0.255
 4083WAT    HW112248   5.597   0.672   0.175
 4083WAT    HW212249   5.649   0.589   0.305
 4084WAT     OW12250   5.326   4.422   0.080
 4084WAT    HW112251   5.229   4.440   0.095
 4084WAT    HW212252   5.362   4.489   0.015
 4085WAT     OW12253   5.039   3.033   2.299
 4085WAT    HW112254   5.073   3.121   2.334
 4085WAT    HW212255   5.051   3.030   2.200
 4086WAT     OW12256   1.113   4.382   4.418
 4086WAT    HW112257   1.083   4.434   4.499
 4086WAT    HW212258   1.172   4.307   4.447
 4087WAT     OW12259   4.263   4.522   2.115
 4087WAT    HW112260   4.312   4.551   2.197
 4087WAT    HW212261   4.205   4.444   2.136
 4088WAT     OW12262   1.665   2.994   1.108
 4088WAT    HW112263   1.600   2.939   1.055
 4088WAT    HW212264   1.734   3.032   1.047
 4089WAT     OW12265   4.240   1.238   1.665
 4089WAT    HW112266   4.233   1.326   1.712
 4089WAT    HW212267   4.301   1.177   1.717
 4090WAT     OW12268   5.141   2.952   1.036
 4090WAT    HW112269   5.211   2.882   1.024
 4090WAT    HW212270   5.096   2.940   1.124
 4091WAT     OW12271   6.172   3.109   3.938
 4091WAT    HW112272   6.135   3.201   3.952
 4091WAT    HW212273   6.107   3.055   3.886
 4092WAT     OW12274   2.346   4.484   1.635
 4092WAT    HW112275   2.330   4.448   1.543
 4092WAT    HW212276   2.337   4.410   1.701
 4093WAT     OW12277   4.182   4.012   5.342
 4093WAT    HW112278   4.085   4.023   5.321
 4093WAT    HW212279   4.215   3.925   5.305
 4094WAT     OW12280   4.669   0.121   5.051
 4094WAT    HW112281   4.593   0.135   5.115
 4094WAT    HW212282   4.755   0.149   5.095
 4095WAT     OW12283   3.790   3.830   5.632
 4095WAT    HW112284   3.731   3.753   5.610
 4095WAT    HW212285   3.884   3.799   5.641
 4096WAT     OW12286   4.782   6.318   4.022
 4096WAT    HW112287   4.854   6.260   3.983
 4096WAT    HW212288   4.749   6.382   3.952
 4097WAT     OW12289   0.959   3.879   0.118
 4097WAT    HW112290   1.027   3.951   0.108
 4097WAT    HW212291   0.869   3.915   0.092
 4098WAT     OW12292   1.089   0.531   1.931
 4098WAT    HW112293   1.029   0.452   1.944
 4098WAT    HW212294   1.039   0.615   1.952
 4099WAT     OW12295   3.339   2.946   0.561
 4099WAT    HW112296   3.260   2.913   0.613
 4099WAT    HW212297   3.423   2.920   0.608
 4100WAT     OW12298   6.366   3.181   1.218
 4100WAT    HW112299   6.415   3.161   1.134
 4100WAT    HW212300   6.430   3.217   1.286
 4101WAT     OW12301   2.464   5.082   4.647
 4101WAT    HW112302   2.380   5.033   4.668
 4101WAT    HW212303   2.525   5.023   4.595
 4102WAT     OW12304   1.631   2.396   4.618
 4102WAT    HW112305   1.575   2.321   4.585
 4102WAT    HW212306   1.621   2.405   4.717
 4103WAT     OW12307   4.618   5.888   2.248
 4103WAT    HW112308   4.674   5.909   2.328
 4103WAT    HW212309   4.538   5.948   2.246
 4104WAT     OW12310   4.016   0.827   6.397
 4104WAT    HW112311   4.089   0.760   6.410
 4104WAT    HW212312   4.056   0.915   6.372
 4105WAT     OW12313   0.359   5.899   3.151
 4105WAT    HW112314   0.335   5.831   3.221
 4105WAT    HW212315   0.453   5.884   3.120
 4106WAT     OW12316   4.067   3.673   5.440
 4106WAT    HW112317   4.061   3.576   5.461
 4106WAT    HW212318   4.069   3.726   5.525
 4107WAT     OW12319   6.470   3.165   0.295
 4107WAT    HW112320   6.533   3.111   0.350
 4107WAT    HW212321   6.444   3.248   0.345
 4108WAT     OW12322   3.932   1.089   0.055
 4108WAT    HW112323   3.952   1.026   0.130
 4108WAT    HW212324   3.954   1.182   0.083
 4109WAT     OW12325   3.859   1.132   3.263
 4109WAT    HW112326   3.901   1.110   3.175
 4109WAT    HW212327   3.771   1.084   3.271
 4110WAT     OW12328   1.313   0.633   3.129
 4110WAT    HW112329   1.293   0.646   3.032
 4110WAT    HW212330   1.378   0.557   3.140
 4111WAT     OW12331   4.302   3.165   1.806
 4111WAT    HW112332   4.369   3.211   1.864
 4111WAT    HW212333   4.334   3.072   1.785
 4112WAT     OW12334   5.284   0.009   6.266
 4112WAT    HW112335   5.309   0.023   6.362
 4112WAT    HW212336   5.272  -0.089   6.249
 4113WAT     OW12337   1.726   3.834   2.589
 4113WAT    HW112338   1.654   3.891   2.549
 4113WAT    HW212339   1.815   3.875   2.569
 4114WAT     OW12340   3.043   0.217   0.871
 4114WAT    HW112341   3.056   0.121   0.899
 4114WAT    HW212342   3.097   0.276   0.931
 4115WAT     OW12343   1.367   2.710   5.625
 4115WAT    HW112344   1.323   2.750   5.545
 4115WAT    HW212345   1.456   2.672   5.598
 4116WAT     OW12346   0.778   2.463   5.082
 4116WAT    HW112347   0.829   2.455   4.996
 4116WAT    HW212348   0.680   2.467   5.062
 4117WAT     OW12349   1.478   6.584   0.761
 4117WAT    HW112350   1.472   6.677   0.724
 4117WAT    HW212351   1.473   6.518   0.685
 4118WAT     OW12352   5.653   5.972   0.803
 4118WAT    HW112353   5.650   5.893   0.864
 4118WAT    HW212354   5.561   6.013   0.798
 4119WAT     OW12355   3.460   0.271   5.038
 4119WAT    HW112356   3.536   0.279   4.973
 4119WAT    HW212357   3.496   0.245   5.127
 4120WAT     OW12358   6.442   3.071   3.902
 4120WAT    HW112359   6.470   2.988   3.855
 4120WAT    HW212360   6.342   3.075   3.905
 4121WAT     OW12361   5.958   4.299   0.547
 4121WAT    HW112362   5.910   4.215   0.568
 4121WAT    HW212363   5.968   4.308   0.448
 4122WAT     OW12364   4.891   5.406   6.426
 4122WAT    HW112365   4.891   5.501   6.393
 4122WAT    HW212366   4.849   5.347   6.357
 4123WAT     OW12367   6.151   3.454   6.214
 4123WAT    HW112368   6.123   3.465   6.119
 4123WAT    HW212369   6.225   3.387   6.219
 4124WAT     OW12370   4.354   4.907   3.990
 4124WAT    HW112371   4.336   4.867   4.080
 4124WAT    HW212372   4.342   5.006   3.994
 4125WAT     OW12373   1.299   1.992   6.505
 4125WAT    HW112374   1.240   1.915   6.529
 4125WAT    HW212375   1.244   2.068   6.472
 4126WAT     OW12376   2.857   3.038   6.677
 4126WAT    HW112377   2.893   3.118   6.724
 4126WAT    HW212378   2.887   2.955   6.725
 4127WAT     OW12379   3.257   1.772   4.051
 4127WAT    HW112380   3.163   1.739   4.054
 4127WAT    HW212381   3.308   1.732   4.128
 4128WAT     OW12382   4.992   5.036   5.376
 4128WAT    HW112383   5.011   5.007   5.470
 4128WAT    HW212384   5.078   5.040   5.325
 4129WAT     OW12385   3.205   3.847   0.045
 4129WAT    HW112386   3.262   3.903  -0.015
 4129WAT    HW212387   3.253   3.832   0.132
 4130WAT     OW12388   1.818   1.414   2.618
 4130WAT    HW112389   1.788   1.362   2.538
 4130WAT    HW212390   1.848   1.505   2.589
 4131WAT     OW12391   2.482   0.939   5.628
 4131WAT    HW112392   2.495   0.999   5.549
 4131WAT    HW212393   2.538   0.971   5.704
 4132WAT     OW12394   4.948   5.721   3.230
 4132WAT    HW112395   4.857   5.702   3.264
 4132WAT    HW212396   4.970   5.658   3.155
 4133WAT     OW12397   1.186   5.400   3.204
 4133WAT    HW112398   1.205   5.400   3.106
 4133WAT    HW212399   1.258   5.450   3.252
 4134WAT     OW12400   6.429   5.370   4.532
 4134WAT    HW112401   6.339   5.327   4.518
 4134WAT    HW212402   6.467   5.397   4.444
 4135WAT     OW12403   1.235   3.995   6.218
 4135WAT    HW112404   1.230   3.939   6.135
 4135WAT    HW212405   1.144   4.000   6.260
 4136WAT     OW12406   3.470   1.077   1.769
 4136WAT    HW112407   3.505   1.148   1.707
 4136WAT    HW212408   3.404   1.020   1.721
 4137WAT     OW12409   1.618   0.929   1.314
 4137WAT    HW112410   1.525   0.920   1.350
 4137WAT    HW212411   1.616   0.921   1.214
 4138WAT     OW12412   2.971   3.402   3.558
 4138WAT    HW112413   2.938   3.496   3.551
 4138WAT    HW212414   2.997   3.383   3.653
 4139WAT     OW12415   2.082   2.552   0.692
 4139WAT    HW112416   2.129   2.503   0.766
 4139WAT    HW212417   2.120   2.644   0.683
 4140WAT     OW12418   4.857   2.635   4.144
 4140WAT    HW112419   4.828   2.564   4.208
 4140WAT    HW212420   4.819   2.618   4.054
 4141WAT     OW12421   5.086   2.527   5.967
 4141WAT    HW112422   5.015   2.554   6.032
 4141WAT    HW212423   5.176   2.545   6.006
 4142WAT     OW12424   6.600   4.938   5.820
 4142WAT    HW112425   6.605   5.037   5.825
 4142WAT    HW212426   6.691   4.899   5.834
 4143WAT     OW12427   6.019   2.240   6.135
 4143WAT    HW112428   5.952   2.197   6.196
 4143WAT    HW212429   5.979   2.250   6.044
 4144WAT     OW12430   0.516   0.842   3.505
 4144WAT    HW112431   0.510   0.795   3.417
 4144WAT    HW212432   0.469   0.930   3.499
 4145WAT     OW12433   1.596   5.034   2.506
 4145WAT    HW112434   1.618   4.948   2.552
 4145WAT    HW212435   1.505   5.065   2.534
 4146WAT     OW12436   5.661   2.784   0.333
 4146WAT    HW112437   5.636   2.841   0.412
 4146WAT    HW212438   5.605   2.810   0.254
 4147WAT     OW12439   1.121   0.273   6.638
 4147WAT    HW112440   1.126   0.362   6.591
 4147WAT    HW212441   1.094   0.287   6.733
 4148WAT     OW12442   1.130   5.825   2.535
 4148WAT    HW112443   1.191   5.896   2.499
 4148WAT    HW212444   1.039   5.864   2.549
 4149WAT     OW12445   1.089   0.013   0.920
 4149WAT    HW112446   1.089   0.040   1.016
 4149WAT    HW212447   1.131   0.085   0.865
 4150WAT     OW12448   1.330   6.189   3.966
 4150WAT    HW112449   1.334   6.117   4.035
 4150WAT    HW212450   1.404   6.254   3.983
 4151WAT     OW12451   2.359   4.796   0.060
 4151WAT    HW112452   2.380   4.892   0.039
 4151WAT    HW212453   2.366   4.742  -0.024
 4152WAT     OW12454   4.763   6.010   1.799
 4152WAT    HW112455   4.756   5.956   1.882
 4152WAT    HW212456   4.830   5.968   1.737
 4153WAT     OW12457   2.643   5.125   5.037
 4153WAT    HW112458   2.570   5.167   4.984
 4153WAT    HW212459   2.648   5.027   5.015
 4154WAT     OW12460   0.735   5.338   3.929
 4154WAT    HW112461   0.755   5.415   3.990
 4154WAT    HW212462   0.656   5.361   3.872
 4155WAT     OW12463   2.917   2.046   4.515
 4155WAT    HW112464   2.918   2.136   4.560
 4155WAT    HW212465   2.856   1.985   4.565
 4156WAT     OW12466   5.380   0.173   3.165
 4156WAT    HW112467   5.431   0.133   3.089
 4156WAT    HW212468   5.282   0.171   3.146
 4157WAT     OW12469   2.077   5.783   1.854
 4157WAT    HW112470   2.090   5.686   1.873
 4157WAT    HW212471   2.036   5.828   1.934
 4158WAT     OW12472   4.232   5.520   6.542
 4158WAT    HW112473   4.143   5.538   6.500
 4158WAT    HW212474   4.305   5.547   6.479
 4159WAT     OW12475   3.803   5.651   2.962
 4159WAT    HW112476   3.712   5.670   2.998
 4159WAT    HW212477   3.860   5.733   2.969
 4160WAT     OW12478   1.053   0.308   0.216
 4160WAT    HW112479   0.961   0.289   0.248
 4160WAT    HW212480   1.074   0.405   0.229
 4161WAT     OW12481   1.222   3.753   2.750
 4161WAT    HW112482   1.317   3.722   2.739
 4161WAT    HW212483   1.207   3.781   2.845
 4162WAT     OW12484   3.751   0.745   3.301
 4162WAT    HW112485   3.758   0.694   3.215
 4162WAT    HW212486   3.707   0.834   3.283
 4163WAT     OW12487   3.517   6.616   4.181
 4163WAT    HW112488   3.492   6.633   4.276
 4163WAT    HW212489   3.549   6.702   4.139
 4164WAT     OW12490   2.097   3.688   5.604
 4164WAT    HW112491   2.068   3.603   5.647
 4164WAT    HW212492   2.063   3.765   5.658
 4165WAT     OW12493   5.340   3.043   5.641
 4165WAT    HW112494   5.362   3.026   5.737
 4165WAT    HW212495   5.334   2.956   5.592
 4166WAT     OW12496   1.484   4.161   0.222
 4166WAT    HW112497   1.443   4.081   0.266
 4166WAT    HW212498   1.531   4.133   0.139
 4167WAT     OW12499   3.209   0.449   1.605
 4167WAT    HW112500   3.117   0.439   1.568
 4167WAT    HW212501   3.252   0.359   1.611
 4168WAT     OW12502   2.778   0.146   3.350
 4168WAT    HW112503   2.749   0.115   3.441
 4168WAT    HW212504   2.819   0.070   3.300
 4169WAT     OW12505   0.878   0.817   5.423
 4169WAT    HW112506   0.970   0.788   5.447
 4169WAT    HW212507   0.855   0.784   5.331
 4170WAT     OW12508   6.426   3.946   4.695
 4170WAT    HW112509   6.364   3.909   4.627
 4170WAT    HW212510   6.424   3.889   4.778
 4171WAT     OW12511   4.666   1.083   1.691
 4171WAT    HW112512   4.704   1.173   1.671
 4171WAT    HW212513   4.619   1.048   1.610
 4172WAT     OW12514   3.009   4.812   6.643
 4172WAT    HW112515   2.928   4.794   6.587
 4172WAT    HW212516   3.086   4.836   6.584
 4173WAT     OW12517   0.437   6.063   4.110
 4173WAT    HW112518   0.491   6.118   4.173
 4173WAT    HW212519   0.353   6.033   4.156
 4174WAT     OW12520   2.927   2.279   2.731
 4174WAT    HW112521   2.861   2.336   2.782
 4174WAT    HW212522   3.000   2.250   2.792
 4175WAT     OW12523   3.936   2.774   2.127
 4175WAT    HW112524   3.948   2.811   2.219
 4175WAT    HW212525   3.921   2.850   2.063
 4176WAT     OW12526   3.767   1.885   1.618
 4176WAT    HW112527   3.803   1.977   1.601
 4176WAT    HW212528   3.805   1.850   1.704
 4177WAT     OW12529   2.229   1.199   5.477
 4177WAT    HW112530   2.259   1.203   5.381
 4177WAT    HW212531   2.177   1.115   5.492
 4178WAT     OW12532   3.584   1.487   0.991
 4178WAT    HW112533   3.660   1.446   1.042
 4178WAT    HW212534   3.617   1.565   0.939
 4179WAT     OW12535   3.106   4.669   5.774
 4179WAT    HW112536   3.103   4.681   5.873
 4179WAT    HW212537   3.055   4.586   5.749
 4180WAT     OW12538   5.961   4.006   1.954
 4180WAT    HW112539   5.903   4.079   1.989
 4180WAT    HW212540   6.006   3.959   2.031
 4181WAT     OW12541   6.360   6.592   4.855
 4181WAT    HW112542   6.341   6.669   4.795
 4181WAT    HW212543   6.275   6.558   4.895
 4182WAT     OW12544   3.770   5.667   2.687
 4182WAT    HW112545   3.795   5.650   2.782
 4182WAT    HW212546   3.736   5.761   2.678
 4183WAT     OW12547   2.976   1.253   1.807
 4183WAT    HW112548   2.892   1.291   1.847
 4183WAT    HW212549   3.054   1.310   1.833
 4184WAT     OW12550   3.910   0.986   6.004
 4184WAT    HW112551   3.878   0.932   6.082
 4184WAT    HW212552   3.983   1.048   6.034
 4185WAT     OW12553   2.758   4.511   5.037
 4185WAT    HW112554   2.792   4.438   5.098
 4185WAT    HW212555   2.785   4.600   5.074
 4186WAT     OW12556   2.301   0.002   5.264
 4186WAT    HW112557   2.251   0.089   5.258
 4186WAT    HW212558   2.383   0.007   5.208
 4187WAT     OW12559   0.978   3.608   3.912
 4187WAT    HW112560   1.000   3.703   3.933
 4187WAT    HW212561   1.019   3.548   3.980
 4188WAT     OW12562   3.914   1.920   5.613
 4188WAT    HW112563   3.887   1.849   5.548
 4188WAT    HW212564   3.910   1.883   5.706
 4189WAT     OW12565   0.234   5.382   4.418
 4189WAT    HW112566   0.163   5.312   4.416
 4189WAT    HW212567   0.273   5.387   4.510
 4190WAT     OW12568   2.558   1.196   0.683
 4190WAT    HW112569   2.469   1.191   0.638
 4190WAT    HW212570   2.630   1.205   0.614
 4191WAT     OW12571   6.090   6.047   6.330
 4191WAT    HW112572   6.133   6.024   6.243
 4191WAT    HW212573   6.161   6.059   6.400
 4192WAT     OW12574   1.205   4.807   5.690
 4192WAT    HW112575   1.114   4.766   5.693
 4192WAT    HW212576   1.215   4.869   5.769
 4193WAT     OW12577   4.388   1.722   3.206
 4193WAT    HW112578   4.318   1.683   3.266
 4193WAT    HW212579   4.441   1.648   3.164
 4194WAT     OW12580   6.240   1.979   5.863
 4194WAT    HW112581   6.244   2.029   5.949
 4194WAT    HW212582   6.147   1.947   5.847
 4195WAT     OW12583   6.594   5.228   5.817
 4195WAT    HW112584   6.498   5.215   5.789
 4195WAT    HW212585   6.610   5.324   5.837
 4196WAT     OW12586   4.357   5.706   4.126
 4196WAT    HW112587   4.378   5.804   4.122
 4196WAT    HW212588   4.350   5.677   4.221
 4197WAT     OW12589   6.684   4.499   5.215
 4197WAT    HW112590   6.585   4.515   5.204
 4197WAT    HW212591   6.727   4.491   5.126
 4198WAT     OW12592   0.205   3.380   5.927
 4198WAT    HW112593   0.195   3.336   5.838
 4198WAT    HW212594   0.174   3.475   5.921
 4199WAT     OW12595   6.127   5.736   2.950
 4199WAT    HW112596   6.082   5.739   2.861
 4199WAT    HW212597   6.062   5.758   3.022
 4200WAT     OW12598   5.511   5.417   1.138
 4200WAT    HW112599   5.481   5.487   1.202
 4200WAT    HW212600   5.527   5.458   1.048
 4201WAT     OW12601   5.729   0.533   2.192
 4201WAT    HW112602   5.809   0.579   2.229
 4201WAT    HW212603   5.679   0.488   2.266
 4202WAT     OW12604   0.744   3.287   1.025
 4202WAT    HW112605   0.752   3.215   0.957
 4202WAT    HW212606   0.691   3.363   0.988
 4203WAT     OW12607   6.165   4.310   2.384
 4203WAT    HW112608   6.217   4.331   2.301
 4203WAT    HW212609   6.217   4.339   2.464
 4204WAT     OW12610   4.322   3.954   0.171
 4204WAT    HW112611   4.261   3.955   0.251
 4204WAT    HW212612   4.303   3.873   0.116
 4205WAT     OW12613   0.892   1.740   4.099
 4205WAT    HW112614   0.974   1.797   4.112
 4205WAT    HW212615   0.852   1.758   4.009
 4206WAT     OW12616   2.291   2.464   5.621
 4206WAT    HW112617   2.322   2.448   5.715
 4206WAT    HW212618   2.192   2.479   5.622
 4207WAT     OW12619   1.066   0.294   6.001
 4207WAT    HW112620   1.037   0.201   6.023
 4207WAT    HW212621   1.033   0.319   5.910
 4208WAT     OW12622   6.201   2.708   6.569
 4208WAT    HW112623   6.187   2.726   6.667
 4208WAT    HW212624   6.262   2.630   6.559
 4209WAT     OW12625   3.143   2.921   6.074
 4209WAT    HW112626   3.224   2.865   6.055
 4209WAT    HW212627   3.155   2.969   6.161
 4210WAT     OW12628   1.165   5.278   0.569
 4210WAT    HW112629   1.077   5.231   0.574
 4210WAT    HW212630   1.238   5.218   0.601
 4211WAT     OW12631   0.291   4.679   6.270
 4211WAT    HW112632   0.322   4.612   6.337
 4211WAT    HW212633   0.343   4.668   6.185
 4212WAT     OW12634   6.496   4.260   0.568
 4212WAT    HW112635   6.469   4.165   0.557
 4212WAT    HW212636   6.493   4.286   0.664
 4213WAT     OW12637   1.708   0.583   2.137
 4213WAT    HW112638   1.751   0.651   2.197
 4213WAT    HW212639   1.751   0.494   2.150
 4214WAT     OW12640   3.819   0.634   3.996
 4214WAT    HW112641   3.895   0.575   3.968
 4214WAT    HW212642   3.829   0.658   4.093
 4215WAT     OW12643   0.861   2.763   2.238
 4215WAT    HW112644   0.922   2.689   2.208
 4215WAT    HW212645   0.915   2.845   2.255
 4216WAT     OW12646   4.900   5.897   3.606
 4216WAT    HW112647   4.882   5.993   3.587
 4216WAT    HW212648   4.815   5.844   3.593
 4217WAT     OW12649   4.956   0.454   3.401
 4217WAT    HW112650   4.884   0.521   3.423
 4217WAT    HW212651   4.958   0.383   3.472
 4218WAT     OW12652   2.124   5.804   5.338
 4218WAT    HW112653   2.060   5.866   5.294
 4218WAT    HW212654   2.169   5.748   5.269
 4219WAT     OW12655   2.201   1.753   3.410
 4219WAT    HW112656   2.225   1.722   3.318
 4219WAT    HW212657   2.261   1.828   3.437
 4220WAT     OW12658   2.320   3.123   1.357
 4220WAT    HW112659   2.344   3.218   1.336
 4220WAT    HW212660   2.292   3.076   1.274
 4221WAT     OW12661   3.321   2.549   2.457
 4221WAT    HW112662   3.223   2.560   2.472
 4221WAT    HW212663   3.337   2.514   2.364
 4222WAT     OW12664   2.320   5.852   5.804
 4222WAT    HW112665   2.321   5.848   5.704
 4222WAT    HW212666   2.227   5.837   5.837
 4223WAT     OW12667   0.848   4.129   5.672
 4223WAT    HW112668   0.899   4.043   5.681
 4223WAT    HW212669   0.881   4.180   5.593
 4224WAT     OW12670   6.446   4.574   4.947
 4224WAT    HW112671   6.465   4.487   4.901
 4224WAT    HW212672   6.436   4.559   5.045
 4225WAT     OW12673   0.633   5.848   1.644
 4225WAT    HW112674   0.704   5.827   1.711
 4225WAT    HW212675   0.601   5.941   1.658
 4226WAT     OW12676   6.532   6.010   4.041
 4226WAT    HW112677   6.456   5.978   3.984
 4226WAT    HW212678   6.514   5.986   4.136
 4227WAT     OW12679   4.454   1.992   0.814
 4227WAT    HW112680   4.521   2.042   0.759
 4227WAT    HW212681   4.466   2.017   0.911
 4228WAT     OW12682   2.002   4.300   1.578
 4228WAT    HW112683   1.955   4.368   1.635
 4228WAT    HW212684   2.019   4.339   1.487
 4229WAT     OW12685   5.899   0.604   5.862
 4229WAT    HW112686   5.863   0.520   5.822
 4229WAT    HW212687   5.840   0.634   5.936
 4230WAT     OW12688   2.420   2.893   6.583
 4230WAT    HW112689   2.477   2.940   6.651
 4230WAT    HW212690   2.366   2.822   6.627
 4231WAT     OW12691   5.235   1.945   0.528
 4231WAT    HW112692   5.332   1.958   0.552
 4231WAT    HW212693   5.218   1.849   0.510
 4232WAT     OW12694   5.726   3.666   0.549
 4232WAT    HW112695   5.813   3.619   0.562
 4232WAT    HW212696   5.687   3.689   0.638
 4233WAT     OW12697   0.778   3.537   2.975
 4233WAT    HW112698   0.868   3.527   3.017
 4233WAT    HW212699   0.769   3.629   2.937
 4234WAT     OW12700   4.808   4.900   5.222
 4234WAT    HW112701   4.816   4.946   5.134
 4234WAT    HW212702   4.865   4.948   5.290
 4235WAT     OW12703   5.772   1.770   3.192
 4235WAT    HW112704   5.680   1.731   3.200
 4235WAT    HW212705   5.807   1.753   3.100
 4236WAT     OW12706   4.148   1.719   2.549
 4236WAT    HW112707   4.203   1.710   2.632
 4236WAT    HW212708   4.074   1.651   2.551
 4237WAT     OW12709   5.881   5.962   0.114
 4237WAT    HW112710   5.854   5.903   0.038
 4237WAT    HW212711   5.807   6.026   0.135
 4238WAT     OW12712   2.843   3.279   5.656
 4238WAT    HW112713   2.811   3.199   5.605
 4238WAT    HW212714   2.767   3.315   5.711
 4239WAT     OW12715   3.444   1.308   5.123
 4239WAT    HW112716   3.497   1.249   5.063
 4239WAT    HW212717   3.501   1.386   5.152
 4240WAT     OW12718   4.087   1.569   1.384
 4240WAT    HW112719   4.022   1.643   1.399
 4240WAT    HW212720   4.135   1.584   1.297
 4241WAT     OW12721   5.790   4.160   0.994
 4241WAT    HW112722   5.804   4.076   0.941
 4241WAT    HW212723   5.773   4.236   0.932
 4242WAT     OW12724   5.520   5.318   4.099
 4242WAT    HW112725   5.607   5.360   4.070
 4242WAT    HW212726   5.494   5.248   4.033
 4243WAT     OW12727   2.578   5.555   1.537
 4243WAT    HW112728   2.506   5.564   1.468
 4243WAT    HW212729   2.566   5.468   1.586
 4244WAT     OW12730   5.359   5.068   5.650
 4244WAT    HW112731   5.433   5.012   5.688
 4244WAT    HW212732   5.395   5.129   5.580
 4245WAT     OW12733   3.204   5.782   1.450
 4245WAT    HW112734   3.301   5.763   1.464
 4245WAT    HW212735   3.179   5.759   1.356
 4246WAT     OW12736   5.199   5.876   5.676
 4246WAT    HW112737   5.240   5.929   5.601
 4246WAT    HW212738   5.177   5.784   5.644
 4247WAT     OW12739   0.714   5.560   5.484
 4247WAT    HW112740   0.642   5.544   5.551
 4247WAT    HW212741   0.706   5.493   5.410
 4248WAT     OW12742   2.652   3.492   5.245
 4248WAT    HW112743   2.747   3.513   5.220
 4248WAT    HW212744   2.649   3.411   5.303
 4249WAT     OW12745   0.029   0.752   2.511
 4249WAT    HW112746  -0.044   0.772   2.577
 4249WAT    HW212747  -0.012   0.714   2.428
 4250WAT     OW12748   6.358   4.871   0.530
 4250WAT    HW112749   6.365   4.865   0.430
 4250WAT    HW212750   6.405   4.793   0.571
 4251WAT     OW12751   0.365   5.756   1.689
 4251WAT    HW112752   0.346   5.790   1.781
 4251WAT    HW212753   0.462   5.770   1.667
 4252WAT     OW12754   2.530   4.720   2.038
 4252WAT    HW112755   2.576   4.808   2.021
 4252WAT    HW212756   2.474   4.696   1.960
 4253WAT     OW12757   0.977   1.473   4.046
 4253WAT    HW112758   1.036   1.429   4.114
 4253WAT    HW212759   0.945   1.560   4.082
 4254WAT     OW12760   0.439   5.233   0.907
 4254WAT    HW112761   0.451   5.296   0.984
 4254WAT    HW212762   0.341   5.215   0.894
 4255WAT     OW12763   5.100   3.775   2.754
 4255WAT    HW112764   5.128   3.763   2.849
 4255WAT    HW212765   5.104   3.688   2.706
 4256WAT     OW12766   2.151   2.737   4.969
 4256WAT    HW112767   2.127   2.788   4.887
 4256WAT    HW212768   2.170   2.642   4.945
 4257WAT     OW12769   5.805   5.877   2.415
 4257WAT    HW112770   5.735   5.928   2.466
 4257WAT    HW212771   5.889   5.931   2.410
 4258WAT     OW12772   1.889   5.283   1.598
 4258WAT    HW112773   1.910   5.209   1.533
 4258WAT    HW212774   1.880   5.245   1.690
 4259WAT     OW12775   3.643   1.305   6.069
 4259WAT    HW112776   3.551   1.271   6.050
 4259WAT    HW212777   3.669   1.282   6.163
 4260WAT     OW12778   0.480   6.030   0.476
 4260WAT    HW112779   0.500   6.111   0.531
 4260WAT    HW212780   0.501   5.948   0.528
 4261WAT     OW12781   1.718   2.917   6.424
 4261WAT    HW112782   1.759   2.986   6.365
 4261WAT    HW212783   1.756   2.827   6.402
 4262WAT     OW12784   2.064   3.671   2.736
 4262WAT    HW112785   2.116   3.593   2.771
 4262WAT    HW212786   1.971   3.642   2.714
 4263WAT     OW12787   2.409   6.138   2.048
 4263WAT    HW112788   2.417   6.044   2.014
 4263WAT    HW212789   2.425   6.202   1.972
 4264WAT     OW12790   0.270   5.700   4.962
 4264WAT    HW112791   0.212   5.636   4.911
 4264WAT    HW212792   0.218   5.783   4.982
 4265WAT     OW12793   3.265   4.477   2.120
 4265WAT    HW112794   3.177   4.496   2.164
 4265WAT    HW212795   3.253   4.410   2.047
 4266WAT     OW12796   3.401   4.694   1.565
 4266WAT    HW112797   3.457   4.683   1.482
 4266WAT    HW212798   3.362   4.606   1.591
 4267WAT     OW12799   1.938   4.726   4.170
 4267WAT    HW112800   1.960   4.728   4.267
 4267WAT    HW212801   2.023   4.718   4.117
 4268WAT     OW12802   0.300   0.152   0.824
 4268WAT    HW112803   0.359   0.212   0.770
 4268WAT    HW212804   0.353   0.110   0.897
 4269WAT     OW12805   1.517   0.032   3.156
 4269WAT    HW112806   1.424   0.005   3.181
 4269WAT    HW212807   1.572   0.041   3.238
 4270WAT     OW12808   3.066   4.427   3.715
 4270WAT    HW112809   3.079   4.525   3.697
 4270WAT    HW212810   3.122   4.374   3.652
 4271WAT     OW12811   5.655   1.353   3.394
 4271WAT    HW112812   5.731   1.367   3.330
 4271WAT    HW212813   5.574   1.322   3.345
 4272WAT     OW12814   0.334   5.430   3.980
 4272WAT    HW112815   0.407   5.420   3.912
 4272WAT    HW212816   0.305   5.526   3.983
 4273WAT     OW12817   1.950   2.773   6.095
 4273WAT    HW112818   1.945   2.715   6.014
 4273WAT    HW212819   1.948   2.869   6.068
 4274WAT     OW12820   4.445   1.956   5.178
 4274WAT    HW112821   4.411   1.912   5.261
 4274WAT    HW212822   4.369   1.989   5.123
 4275WAT     OW12823   5.278   4.219   2.983
 4275WAT    HW112824   5.219   4.194   3.060
 4275WAT    HW212825   5.268   4.317   2.965
 4276WAT     OW12826   0.762   3.454   1.515
 4276WAT    HW112827   0.700   3.523   1.553
 4276WAT    HW212828   0.852   3.464   1.558
 4277WAT     OW12829   2.242   6.302   0.402
 4277WAT    HW112830   2.255   6.285   0.304
 4277WAT    HW212831   2.313   6.366   0.434
 4278WAT     OW12832   1.506   5.820   1.825
 4278WAT    HW112833   1.532   5.838   1.730
 4278WAT    HW212834   1.565   5.749   1.863
 4279WAT     OW12835   1.855   1.194   0.874
 4279WAT    HW112836   1.944   1.210   0.832
 4279WAT    HW212837   1.801   1.279   0.871
 4280WAT     OW12838   5.628   1.757   2.045
 4280WAT    HW112839   5.625   1.728   1.950
 4280WAT    HW212840   5.659   1.681   2.102
 4281WAT     OW12841   4.431   4.595   5.439
 4281WAT    HW112842   4.489   4.577   5.359
 4281WAT    HW212843   4.335   4.595   5.411
 4282WAT     OW12844   2.574   3.735   0.345
 4282WAT    HW112845   2.548   3.781   0.430
 4282WAT    HW212846   2.581   3.802   0.271
 4283WAT     OW12847   6.208   3.932   0.722
 4283WAT    HW112848   6.195   3.854   0.661
 4283WAT    HW212849   6.171   3.910   0.812
 4284WAT     OW12850   6.464   0.909   0.646
 4284WAT    HW112851   6.471   0.981   0.714
 4284WAT    HW212852   6.368   0.881   0.636
 4285WAT     OW12853   0.257   1.166   4.212
 4285WAT    HW112854   0.234   1.139   4.305
 4285WAT    HW212855   0.255   1.266   4.205
 4286WAT     OW12856   2.138   0.686   0.364
 4286WAT    HW112857   2.110   0.595   0.394
 4286WAT    HW212858   2.063   0.729   0.314
 4287WAT     OW12859   0.463   0.161   1.692
 4287WAT    HW112860   0.514   0.124   1.615
 4287WAT    HW212861   0.511   0.139   1.777
 4288WAT     OW12862   0.463   3.835   1.554
 4288WAT    HW112863   0.500   3.918   1.596
 4288WAT    HW212864   0.368   3.851   1.528
 4289WAT     OW12865   3.588   5.796   3.677
 4289WAT    HW112866   3.495   5.814   3.648
 4289WAT    HW212867   3.648   5.788   3.597
 4290WAT     OW12868   6.200   1.917   4.688
 4290WAT    HW112869   6.223   2.000   4.739
 4290WAT    HW212870   6.170   1.941   4.596
 4291WAT     OW12871   1.873   4.687   1.299
 4291WAT    HW112872   1.810   4.643   1.235
 4291WAT    HW212873   1.824   4.753   1.354
 4292WAT     OW12874   0.739   6.015   2.810
 4292WAT    HW112875   0.645   5.988   2.793
 4292WAT    HW212876   0.799   5.970   2.744
 4293WAT     OW12877   0.311   2.914   4.350
 4293WAT    HW112878   0.386   2.859   4.314
 4293WAT    HW212879   0.280   2.978   4.280
 4294WAT     OW12880   0.131   4.461   0.997
 4294WAT    HW112881   0.037   4.471   1.028
 4294WAT    HW212882   0.146   4.520   0.917
 4295WAT     OW12883   1.067   1.428   6.278
 4295WAT    HW112884   1.030   1.473   6.359
 4295WAT    HW212885   1.160   1.461   6.261
 4296WAT     OW12886   0.428   3.447   0.604
 4296WAT    HW112887   0.395   3.484   0.517
 4296WAT    HW212888   0.508   3.498   0.634
 4297WAT     OW12889   2.205   6.497   2.255
 4297WAT    HW112890   2.215   6.449   2.342
 4297WAT    HW212891   2.155   6.583   2.270
 4298WAT     OW12892   1.490   4.398   3.842
 4298WAT    HW112893   1.492   4.495   3.818
 4298WAT    HW212894   1.423   4.382   3.914
 4299WAT     OW12895   4.806   3.056   1.223
 4299WAT    HW112896   4.881   2.993   1.238
 4299WAT    HW212897   4.726   3.005   1.190
 4300WAT     OW12898   2.980   1.925   3.921
 4300WAT    HW112899   2.977   1.830   3.950
 4300WAT    HW212900   3.039   1.978   3.982
 4301WAT     OW12901   5.691   5.913   3.226
 4301WAT    HW112902   5.698   6.012   3.214
 4301WAT    HW212903   5.636   5.893   3.307
 4302WAT     OW12904   5.292   1.071   5.651
 4302WAT    HW112905   5.252   1.135   5.716
 4302WAT    HW212906   5.342   1.123   5.581
 4303WAT     OW12907   0.413   6.192   2.782
 4303WAT    HW112908   0.444   6.238   2.866
 4303WAT    HW212909   0.434   6.095   2.788
 4304WAT     OW12910   5.111   3.630   0.826
 4304WAT    HW112911   5.068   3.689   0.895
 4304WAT    HW212912   5.180   3.573   0.870
 4305WAT     OW12913   1.117   4.944   1.980
 4305WAT    HW112914   1.134   4.899   1.892
 4305WAT    HW212915   1.037   5.002   1.973
 4306WAT     OW12916   4.053   3.709   4.520
 4306WAT    HW112917   4.012   3.681   4.607
 4306WAT    HW212918   3.982   3.713   4.450
 4307WAT     OW12919   2.079   5.872   2.359
 4307WAT    HW112920   2.042   5.791   2.403
 4307WAT    HW212921   2.134   5.844   2.280
 4308WAT     OW12922   3.363   0.768   5.051
 4308WAT    HW112923   3.319   0.824   5.122
 4308WAT    HW212924   3.455   0.802   5.035
 4309WAT     OW12925   3.375   5.849   4.008
 4309WAT    HW112926   3.351   5.928   4.065
 4309WAT    HW212927   3.291   5.806   3.975
 4310WAT     OW12928   1.786   2.218   1.089
 4310WAT    HW112929   1.753   2.269   1.168
 4310WAT    HW212930   1.832   2.135   1.120
 4311WAT     OW12931   0.798   1.789   3.845
 4311WAT    HW112932   0.771   1.698   3.814
 4311WAT    HW212933   0.844   1.837   3.770
 4312WAT     OW12934   4.809   0.130   0.760
 4312WAT    HW112935   4.893   0.139   0.813
 4312WAT    HW212936   4.772   0.221   0.739
 4313WAT     OW12937   2.133   4.743   1.242
 4313WAT    HW112938   2.181   4.732   1.329
 4313WAT    HW212939   2.034   4.736   1.257
 4314WAT     OW12940   3.903   0.524   5.327
 4314WAT    HW112941   3.986   0.534   5.272
 4314WAT    HW212942   3.921   0.462   5.404
 4315WAT     OW12943   6.550   3.980   6.250
 4315WAT    HW112944   6.541   3.954   6.346
 4315WAT    HW212945   6.514   4.073   6.237
 4316WAT     OW12946   5.966   2.419   6.645
 4316WAT    HW112947   5.917   2.338   6.676
 4316WAT    HW212948   6.008   2.464   6.724
 4317WAT     OW12949   4.093   3.137   0.116
 4317WAT    HW112950   4.151   3.078   0.061
 4317WAT    HW212951   4.002   3.097   0.123
 4318WAT     OW12952   2.922   6.230   0.318
 4318WAT    HW112953   2.911   6.241   0.417
 4318WAT    HW212954   2.905   6.318   0.273
 4319WAT     OW12955   6.619   1.282   3.027
 4319WAT    HW112956   6.702   1.235   2.997
 4319WAT    HW212957   6.594   1.352   2.960
 4320WAT     OW12958   4.039   6.223   0.150
 4320WAT    HW112959   4.119   6.257   0.201
 4320WAT    HW212960   3.957   6.233   0.207
 4321WAT     OW12961   4.041   1.314   0.179
 4321WAT    HW112962   4.017   1.288   0.273
 4321WAT    HW212963   4.106   1.391   0.182
 4322WAT     OW12964   3.148   5.481   1.106
 4322WAT    HW112965   3.054   5.457   1.083
 4322WAT    HW212966   3.172   5.441   1.195
 4323WAT     OW12967   2.230   2.445   6.489
 4323WAT    HW112968   2.294   2.509   6.447
 4323WAT    HW212969   2.155   2.496   6.532
 4324WAT     OW12970   0.403   0.372   1.128
 4324WAT    HW112971   0.463   0.409   1.058
 4324WAT    HW212972   0.458   0.344   1.207
 4325WAT     OW12973   2.933   2.574   4.699
 4325WAT    HW112974   2.876   2.533   4.770
 4325WAT    HW212975   3.029   2.553   4.717
 4326WAT     OW12976   0.615   1.492   0.033
 4326WAT    HW112977   0.589   1.440   0.114
 4326WAT    HW212978   0.699   1.455  -0.006
 4327WAT     OW12979   3.393   4.747   3.611
 4327WAT    HW112980   3.434   4.693   3.537
 4327WAT    HW212981   3.459   4.758   3.685
 4328WAT     OW12982   3.738   6.093   5.568
 4328WAT    HW112983   3.659   6.086   5.508
 4328WAT    HW212984   3.713   6.146   5.650
 4329WAT     OW12985   5.177   4.280   3.995
 4329WAT    HW112986   5.105   4.338   4.034
 4329WAT    HW212987   5.266   4.315   4.022
 4330WAT     OW12988   2.993   4.481   2.199
 4330WAT    HW112989   2.999   4.391   2.157
 4330WAT    HW212990   2.919   4.533   2.156
 4331WAT     OW12991   5.902   0.638   1.377
 4331WAT    HW112992   5.805   0.615   1.385
 4331WAT    HW212993   5.911   0.731   1.342
 4332WAT     OW12994   4.491   3.467   1.453
 4332WAT    HW112995   4.533   3.556   1.471
 4332WAT    HW212996   4.422   3.448   1.523
 4333WAT     OW12997   3.050   1.463   4.898
 4333WAT    HW112998   3.076   1.444   4.993
 4333WAT    HW212999   3.124   1.513   4.853
 4334WAT     OW13000   2.612   2.747   6.465
 4334WAT    HW113001   2.548   2.814   6.503
 4334WAT    HW213002   2.649   2.781   6.378
 4335WAT     OW13003   3.086   0.705   2.173
 4335WAT    HW113004   3.083   0.748   2.264
 4335WAT    HW213005   3.008   0.737   2.119
 4336WAT     OW13006   5.638   4.215   5.616
 4336WAT    HW113007   5.696   4.182   5.541
 4336WAT    HW213008   5.675   4.184   5.703
 4337WAT     OW13009   2.941   5.143   0.518
 4337WAT    HW113010   2.935   5.242   0.528
 4337WAT    HW213011   2.853   5.102   0.543
 4338WAT     OW13012   0.969   0.331   5.733
 4338WAT    HW113013   0.923   0.246   5.706
 4338WAT    HW213014   0.975   0.392   5.654
 4339WAT     OW13015   1.154   3.519   4.358
 4339WAT    HW113016   1.064   3.526   4.399
 4339WAT    HW213017   1.212   3.459   4.414
 4340WAT     OW13018   2.336   3.434   3.071
 4340WAT    HW113019   2.432   3.439   3.043
 4340WAT    HW213020   2.327   3.471   3.163
 4341WAT     OW13021   5.822   4.198   2.089
 4341WAT    HW113022   5.862   4.281   2.052
 4341WAT    HW213023   5.861   4.179   2.179
 4342WAT     OW13024   4.144   3.233   2.610
 4342WAT    HW113025   4.194   3.156   2.648
 4342WAT    HW213026   4.197   3.273   2.535
 4343WAT     OW13027   5.659   0.671   4.758
 4343WAT    HW113028   5.661   0.616   4.674
 4343WAT    HW213029   5.629   0.764   4.736
 4344WAT     OW13030   0.666   4.313   6.021
 4344WAT    HW113031   0.720   4.345   5.944
 4344WAT    HW213032   0.569   4.329   6.002
 4345WAT     OW13033   3.657   2.260   2.775
 4345WAT    HW113034   3.626   2.220   2.689
 4345WAT    HW213035   3.734   2.322   2.758
 4346WAT     OW13036   6.504   5.525   0.821
 4346WAT    HW113037   6.525   5.559   0.729
 4346WAT    HW213038   6.410   5.491   0.822
 4347WAT     OW13039   3.941   2.348   5.622
 4347WAT    HW113040   3.918   2.443   5.642
 4347WAT    HW213041   3.958   2.299   5.708
 4348WAT     OW13042   5.637   0.259   0.236
 4348WAT    HW113043   5.558   0.316   0.261
 4348WAT    HW213044   5.675   0.218   0.319
 4349WAT     OW13045   3.447   2.156   0.337
 4349WAT    HW113046   3.468   2.067   0.378
 4349WAT    HW213047   3.349   2.162   0.319
 4350WAT     OW13048   5.521   5.857   1.850
 4350WAT    HW113049   5.570   5.901   1.925
 4350WAT    HW213050   5.578   5.786   1.809
 4351WAT     OW13051   0.416   2.330   3.122
 4351WAT    HW113052   0.323   2.358   3.100
 4351WAT    HW213053   0.450   2.383   3.200
 4352WAT     OW13054   1.909   1.759   6.645
 4352WAT    HW113055   1.955   1.799   6.566
 4352WAT    HW213056   1.810   1.774   6.638
 4353WAT     OW13057   2.385   4.702   1.796
 4353WAT    HW113058   2.381   4.621   1.738
 4353WAT    HW213059   2.404   4.782   1.740
 4354WAT     OW13060   5.702   1.339   5.880
 4354WAT    HW113061   5.666   1.284   5.805
 4354WAT    HW213062   5.684   1.292   5.967
 4355WAT     OW13063   1.999   2.763   1.979
 4355WAT    HW113064   1.945   2.835   1.937
 4355WAT    HW213065   2.045   2.798   2.060
 4356WAT     OW13066   3.559   5.216   3.970
 4356WAT    HW113067   3.620   5.276   4.023
 4356WAT    HW213068   3.504   5.272   3.908
 4357WAT     OW13069   1.491   0.428   3.158
 4357WAT    HW113070   1.534   0.387   3.238
 4357WAT    HW213071   1.464   0.356   3.094
 4358WAT     OW13072   6.446   1.851   5.163
 4358WAT    HW113073   6.504   1.805   5.230
 4358WAT    HW213074   6.351   1.823   5.175
 4359WAT     OW13075   0.071   3.252   1.526
 4359WAT    HW113076   0.110   3.324   1.583
 4359WAT    HW213077   0.135   3.175   1.522
 4360WAT     OW13078   3.845   4.642   3.828
 4360WAT    HW113079   3.920   4.580   3.806
 4360WAT    HW213080   3.865   4.691   3.913
 4361WAT     OW13081   4.818   3.887   4.407
 4361WAT    HW113082   4.811   3.801   4.357
 4361WAT    HW213083   4.867   3.873   4.492
 4362WAT     OW13084   1.145   5.895   3.388
 4362WAT    HW113085   1.120   5.856   3.299
 4362WAT    HW213086   1.086   5.973   3.407
 4363WAT     OW13087   2.770   3.955   2.052
 4363WAT    HW113088   2.705   3.970   2.127
 4363WAT    HW213089   2.852   3.910   2.088
 4364WAT     OW13090   1.573   0.251   2.021
 4364WAT    HW113091   1.601   0.290   1.933
 4364WAT    HW213092   1.560   0.153   2.011
 4365WAT     OW13093   5.157   5.306   3.851
 4365WAT    HW113094   5.132   5.389   3.801
 4365WAT    HW213095   5.075   5.254   3.874
 4366WAT     OW13096   4.549   0.074   0.855
 4366WAT    HW113097   4.643   0.073   0.820
 4366WAT    HW213098   4.547   0.118   0.945
 4367WAT     OW13099   4.930   0.328   3.163
 4367WAT    HW113100   4.918   0.395   3.090
 4367WAT    HW213101   4.947   0.376   3.249
 4368WAT     OW13102   1.528   1.181   6.486
 4368WAT    HW113103   1.596   1.110   6.468
 4368WAT    HW213104   1.503   1.227   6.400
 4369WAT     OW13105   3.595   2.875   4.296
 4369WAT    HW113106   3.642   2.879   4.384
 4369WAT    HW213107   3.518   2.940   4.298
 4370WAT     OW13108   4.746   1.162   5.730
 4370WAT    HW113109   4.807   1.090   5.697
 4370WAT    HW213110   4.664   1.167   5.673
 4371WAT     OW13111   1.262   3.680   2.333
 4371WAT    HW113112   1.191   3.615   2.362
 4371WAT    HW213113   1.257   3.762   2.389
 4372WAT     OW13114   3.302   2.033   6.391
 4372WAT    HW113115   3.301   2.115   6.449
 4372WAT    HW213116   3.225   2.037   6.327
 4373WAT     OW13117   6.074   6.327   3.226
 4373WAT    HW113118   6.170   6.341   3.252
 4373WAT    HW213119   6.035   6.254   3.282
 4374WAT     OW13120   4.807   4.122   0.488
 4374WAT    HW113121   4.839   4.086   0.400
 4374WAT    HW213122   4.869   4.195   0.518
 4375WAT     OW13123   4.506   1.364   3.357
 4375WAT    HW113124   4.566   1.366   3.277
 4375WAT    HW213125   4.427   1.306   3.337
 4376WAT     OW13126   2.549   6.217   0.111
 4376WAT    HW113127   2.606   6.148   0.156
 4376WAT    HW213128   2.587   6.238   0.021
 4377WAT     OW13129   4.201   5.500   5.251
 4377WAT    HW113130   4.196   5.409   5.293
 4377WAT    HW213131   4.296   5.523   5.233
 4378WAT     OW13132   3.644   4.301   3.000
 4378WAT    HW113133   3.581   4.359   2.949
 4378WAT    HW213134   3.717   4.269   2.939
 4379WAT     OW13135   2.684   0.993   6.335
 4379WAT    HW113136   2.616   0.994   6.408
 4379WAT    HW213137   2.765   1.045   6.363
 4380WAT     OW13138   1.450   0.938   6.202
 4380WAT    HW113139   1.444   1.014   6.137
 4380WAT    HW213140   1.544   0.905   6.206
 4381WAT     OW13141   4.815   0.072   3.458
 4381WAT    HW113142   4.731   0.050   3.408
 4381WAT    HW213143   4.871  -0.010   3.468
 4382WAT     OW13144   4.321   2.660   3.097
 4382WAT    HW113145   4.383   2.636   3.023
 4382WAT    HW213146   4.356   2.625   3.183
 4383WAT     OW13147   6.683   3.701   5.651
 4383WAT    HW113148   6.618   3.755   5.704
 4383WAT    HW213149   6.707   3.750   5.567
 4384WAT     OW13150   5.763   5.240   2.469
 4384WAT    HW113151   5.706   5.158   2.464
 4384WAT    HW213152   5.852   5.215   2.507
 4385WAT     OW13153   2.241   5.402   0.515
 4385WAT    HW113154   2.255   5.411   0.614
 4385WAT    HW213155   2.144   5.416   0.494
 4386WAT     OW13156   1.694   2.625   1.242
 4386WAT    HW113157   1.714   2.645   1.146
 4386WAT    HW213158   1.610   2.673   1.269
 4387WAT     OW13159   0.184   3.742   4.444
 4387WAT    HW113160   0.149   3.649   4.432
 4387WAT    HW213161   0.115   3.808   4.415
 4388WAT     OW13162   0.991   3.254   0.374
 4388WAT    HW113163   0.940   3.230   0.457
 4388WAT    HW213164   1.020   3.350   0.379
 4389WAT     OW13165   6.238   2.139   2.787
 4389WAT    HW113166   6.320   2.157   2.734
 4389WAT    HW213167   6.218   2.218   2.846
 4390WAT     OW13168   1.536   3.131   6.179
 4390WAT    HW113169   1.492   3.048   6.213
 4390WAT    HW213170   1.474   3.208   6.190
 4391WAT     OW13171   4.608   0.499   0.930
 4391WAT    HW113172   4.565   0.590   0.928
 4391WAT    HW213173   4.689   0.502   0.988
 4392WAT     OW13174   2.408   3.137   0.434
 4392WAT    HW113175   2.429   3.230   0.404
 4392WAT    HW213176   2.472   3.073   0.392
 4393WAT     OW13177   2.049   2.881   4.475
 4393WAT    HW113178   1.962   2.929   4.459
 4393WAT    HW213179   2.034   2.783   4.469
 4394WAT     OW13180   3.893   3.483   0.006
 4394WAT    HW113181   3.808   3.524   0.038
 4394WAT    HW213182   3.945   3.450   0.085
 4395WAT     OW13183   4.773   1.041   1.122
 4395WAT    HW113184   4.781   0.987   1.038
 4395WAT    HW213185   4.707   1.114   1.107
 4396WAT     OW13186   6.440   2.245   4.931
 4396WAT    HW113187   6.360   2.201   4.889
 4396WAT    HW213188   6.472   2.319   4.871
 4397WAT     OW13189   0.952   3.917   4.858
 4397WAT    HW113190   1.016   3.994   4.857
 4397WAT    HW213191   0.880   3.933   4.791
 4398WAT     OW13192   3.383   6.596   0.835
 4398WAT    HW113193   3.303   6.575   0.779
 4398WAT    HW213194   3.375   6.690   0.870
 4399WAT     OW13195   3.299   3.355   3.284
 4399WAT    HW113196   3.263   3.406   3.206
 4399WAT    HW213197   3.223   3.309   3.331
 4400WAT     OW13198   2.361   0.170   3.250
 4400WAT    HW113199   2.445   0.223   3.241
 4400WAT    HW213200   2.309   0.202   3.330
 4401WAT     OW13201   6.407   0.505   6.201
 4401WAT    HW113202   6.408   0.414   6.243
 4401WAT    HW213203   6.370   0.571   6.267
 4402WAT     OW13204   3.145   6.080   4.937
 4402WAT    HW113205   3.142   6.037   5.027
 4402WAT    HW213206   3.199   6.164   4.943
 4403WAT     OW13207   0.492   5.585   2.280
 4403WAT    HW113208   0.434   5.641   2.340
 4403WAT    HW213209   0.494   5.491   2.314
 4404WAT     OW13210   5.369   4.160   3.375
 4404WAT    HW113211   5.408   4.236   3.427
 4404WAT    HW213212   5.423   4.145   3.291
 4405WAT     OW13213   4.419   0.923   5.930
 4405WAT    HW113214   4.491   0.983   5.965
 4405WAT    HW213215   4.384   0.866   6.004
 4406WAT     OW13216   1.415   4.042   5.842
 4406WAT    HW113217   1.455   4.033   5.933
 4406WAT    HW213218   1.478   4.091   5.782
 4407WAT     OW13219   3.554   5.769   6.022
 4407WAT    HW113220   3.550   5.670   6.015
 4407WAT    HW213221   3.632   5.804   5.970
 4408WAT     OW13222   0.587   4.825   1.862
 4408WAT    HW113223   0.515   4.774   1.908
 4408WAT    HW213224   0.553   4.916   1.839
 4409WAT     OW13225   6.400   1.025   5.874
 4409WAT    HW113226   6.485   0.977   5.894
 4409WAT    HW213227   6.347   0.972   5.807
 4410WAT     OW13228   4.649   5.090   5.946
 4410WAT    HW113229   4.688   5.063   6.034
 4410WAT    HW213230   4.614   5.010   5.899
 4411WAT     OW13231   4.086   5.504   5.771
 4411WAT    HW113232   4.112   5.513   5.675
 4411WAT    HW213233   4.077   5.408   5.795
 4412WAT     OW13234   3.078   0.553   4.588
 4412WAT    HW113235   3.064   0.572   4.685
 4412WAT    HW213236   3.009   0.601   4.535
 4413WAT     OW13237   2.003   6.131   2.405
 4413WAT    HW113238   2.028   6.036   2.384
 4413WAT    HW213239   1.997   6.183   2.320
 4414WAT     OW13240   4.135   3.366   2.141
 4414WAT    HW113241   4.121   3.284   2.087
 4414WAT    HW213242   4.071   3.366   2.218
 4415WAT     OW13243   3.182   3.250   1.102
 4415WAT    HW113244   3.133   3.338   1.099
 4415WAT    HW213245   3.270   3.260   1.055
 4416WAT     OW13246   4.384   1.500   0.603
 4416WAT    HW113247   4.466   1.547   0.570
 4416WAT    HW213248   4.368   1.525   0.699
 4417WAT     OW13249   6.010   3.277   5.794
 4417WAT    HW113250   6.014   3.207   5.721
 4417WAT    HW213251   5.918   3.280   5.832
 4418WAT     OW13252   2.646   2.181   0.845
 4418WAT    HW113253   2.731   2.162   0.893
 4418WAT    HW213254   2.569   2.162   0.906
 4419WAT     OW13255   1.799   3.735   5.925
 4419WAT    HW113256   1.830   3.641   5.941
 4419WAT    HW213257   1.748   3.767   6.005
 4420WAT     OW13258   2.447   1.029   1.625
 4420WAT    HW113259   2.409   1.118   1.601
 4420WAT    HW213260   2.392   0.988   1.698
 4421WAT     OW13261   4.080   4.948   5.830
 4421WAT    HW113262   4.101   4.935   5.733
 4421WAT    HW213263   4.112   4.868   5.881
 4422WAT     OW13264   4.860   4.036   0.227
 4422WAT    HW113265   4.914   3.952   0.233
 4422WAT    HW213266   4.764   4.013   0.215
 4423WAT     OW13267   4.065   6.376   5.742
 4423WAT    HW113268   4.086   6.449   5.808
 4423WAT    HW213269   4.112   6.292   5.769
 4424WAT     OW13270   4.417   4.783   1.237
 4424WAT    HW113271   4.379   4.737   1.318
 4424WAT    HW213272   4.351   4.782   1.163
 4425WAT     OW13273   3.623   4.685   6.415
 4425WAT    HW113274   3.682   4.665   6.494
 4425WAT    HW213275   3.639   4.617   6.344
 4426WAT     OW13276   5.034   2.860   3.829
 4426WAT    HW113277   4.956   2.870   3.768
 4426WAT    HW213278   5.066   2.765   3.826
 4427WAT     OW13279   0.553   2.628   2.843
 4427WAT    HW113280   0.592   2.714   2.875
 4427WAT    HW213281   0.609   2.552   2.876
 4428WAT     OW13282   5.994   1.868   0.270
 4428WAT    HW113283   6.037   1.945   0.224
 4428WAT    HW213284   5.904   1.895   0.304
 4429WAT     OW13285   1.450   3.411   3.973
 4429WAT    HW113286   1.379   3.369   3.916
 4429WAT    HW213287   1.484   3.343   4.038
 4430WAT     OW13288   0.788   2.217   5.479
 4430WAT    HW113289   0.835   2.253   5.398
 4430WAT    HW213290   0.855   2.174   5.539
 4431WAT     OW13291   2.141   2.476   2.530
 4431WAT    HW113292   2.074   2.425   2.583
 4431WAT    HW213293   2.217   2.503   2.590
 4432WAT     OW13294   4.207   1.674   5.716
 4432WAT    HW113295   4.137   1.655   5.646
 4432WAT    HW213296   4.295   1.638   5.685
 4433WAT     OW13297   5.238   0.970   3.828
 4433WAT    HW113298   5.318   0.953   3.771
 4433WAT    HW213299   5.155   0.951   3.776
 4434WAT     OW13300   4.548   0.748   0.220
 4434WAT    HW113301   4.575   0.652   0.233
 4434WAT    HW213302   4.497   0.757   0.135
 4435WAT     OW13303   2.637   6.167   2.674
 4435WAT    HW113304   2.580   6.208   2.603
 4435WAT    HW213305   2.579   6.135   2.749
 4436WAT     OW13306   2.483   4.068   3.999
 4436WAT    HW113307   2.525   4.013   3.926
 4436WAT    HW213308   2.384   4.055   3.998
 4437WAT     OW13309   4.716   0.334   1.739
 4437WAT    HW113310   4.771   0.361   1.818
 4437WAT    HW213311   4.620   0.326   1.766
 4438WAT     OW13312   2.632   6.541   5.462
 4438WAT    HW113313   2.669   6.495   5.543
 4438WAT    HW213314   2.692   6.617   5.436
 4439WAT     OW13315   6.179   1.811   5.218
 4439WAT    HW113316   6.120   1.732   5.202
 4439WAT    HW213317   6.176   1.835   5.315
 4440WAT     OW13318   5.036   5.001   3.700
 4440WAT    HW113319   5.002   5.051   3.779
 4440WAT    HW213320   4.985   5.028   3.618
 4441WAT     OW13321   5.241   3.700   4.821
 4441WAT    HW113322   5.254   3.790   4.863
 4441WAT    HW213323   5.284   3.699   4.730
 4442WAT     OW13324   3.221   2.998   4.075
 4442WAT    HW113325   3.140   3.055   4.067
 4442WAT    HW213326   3.194   2.902   4.089
 4443WAT     OW13327   2.622   4.012   2.276
 4443WAT    HW113328   2.597   3.933   2.332
 4443WAT    HW213329   2.691   4.066   2.323
 4444WAT     OW13330   4.411   3.013   5.645
 4444WAT    HW113331   4.400   3.040   5.550
 4444WAT    HW213332   4.457   2.924   5.649
 4445WAT     OW13333   4.196   3.002   4.721
 4445WAT    HW113334   4.240   3.092   4.733
 4445WAT    HW213335   4.166   2.968   4.810
 4446WAT     OW13336   4.199   3.954   4.741
 4446WAT    HW113337   4.272   3.902   4.697
 4446WAT    HW213338   4.199   3.935   4.839
 4447WAT     OW13339   2.027   1.977   4.784
 4447WAT    HW113340   2.027   1.963   4.883
 4447WAT    HW213341   2.121   1.974   4.750
 4448WAT     OW13342   4.784   4.271   3.119
 4448WAT    HW113343   4.768   4.293   3.023
 4448WAT    HW213344   4.706   4.220   3.155
 4449WAT     OW13345   1.830   5.143   4.587
 4449WAT    HW113346   1.921   5.152   4.627
 4449WAT    HW213347   1.826   5.061   4.530
 4450WAT     OW13348   2.062   2.877   4.753
 4450WAT    HW113349   2.074   2.885   4.654
 4450WAT    HW213350   2.065   2.969   4.794
 4451WAT     OW13351   6.311   0.822   4.239
 4451WAT    HW113352   6.334   0.908   4.193
 4451WAT    HW213353   6.289   0.841   4.335
 4452WAT     OW13354   3.555   5.248   1.352
 4452WAT    HW113355   3.559   5.174   1.419
 4452WAT    HW213356   3.520   5.331   1.395
 4453WAT     OW13357   5.425   3.163   4.433
 4453WAT    HW113358   5.438   3.168   4.532
 4453WAT    HW213359   5.490   3.224   4.388
 4454WAT     OW13360   3.933   2.234   5.909
 4454WAT    HW113361   3.876   2.315   5.898
 4454WAT    HW213362   3.921   2.198   6.002
 4455WAT     OW13363   4.091   1.647   4.290
 4455WAT    HW113364   4.160   1.715   4.314
 4455WAT    HW213365   4.079   1.582   4.365
 4456WAT     OW13366   5.158   3.512   1.161
 4456WAT    HW113367   5.205   3.468   1.237
 4456WAT    HW213368   5.218   3.514   1.081
 4457WAT     OW13369   2.368   0.585   2.535
 4457WAT    HW113370   2.302   0.519   2.571
 4457WAT    HW213371   2.446   0.535   2.496
 4458WAT     OW13372   0.921   6.123   6.119
 4458WAT    HW113373   0.849   6.188   6.095
 4458WAT    HW213374   0.927   6.115   6.218
 4459WAT     OW13375   1.804   3.010   4.419
 4459WAT    HW113376   1.759   3.035   4.505
 4459WAT    HW213377   1.750   2.941   4.371
 4460WAT     OW13378   1.899   5.642   0.207
 4460WAT    HW113379   1.845   5.565   0.242
 4460WAT    HW213380   1.837   5.714   0.175
 4461WAT     OW13381   0.693   6.307   6.518
 4461WAT    HW113382   0.766   6.317   6.585
 4461WAT    HW213383   0.633   6.387   6.520
 4462WAT     OW13384   2.892   5.901   5.951
 4462WAT    HW113385   2.856   5.859   5.868
 4462WAT    HW213386   2.921   5.830   6.015
 4463WAT     OW13387   2.464   1.559   5.343
 4463WAT    HW113388   2.385   1.527   5.396
 4463WAT    HW213389   2.432   1.604   5.260
 4464WAT     OW13390   3.668   6.293   6.533
 4464WAT    HW113391   3.614   6.315   6.452
 4464WAT    HW213392   3.643   6.203   6.567
 4465WAT     OW13393   1.262   4.538   4.245
 4465WAT    HW113394   1.205   4.481   4.305
 4465WAT    HW213395   1.216   4.624   4.227
 4466WAT     OW13396   4.856   1.459   4.816
 4466WAT    HW113397   4.943   1.452   4.864
 4466WAT    HW213398   4.847   1.384   4.751
 4467WAT     OW13399   0.942   2.613   2.939
 4467WAT    HW113400   0.865   2.551   2.924
 4467WAT    HW213401   0.960   2.664   2.855
 4468WAT     OW13402   1.005   0.060   6.514
 4468WAT    HW113403   1.042   0.143   6.555
 4468WAT    HW213404   0.972  -0.001   6.586
 4469WAT     OW13405   2.413   4.327   3.224
 4469WAT    HW113406   2.465   4.292   3.301
 4469WAT    HW213407   2.428   4.268   3.144
 4470WAT     OW13408   3.109   0.700   0.510
 4470WAT    HW113409   3.078   0.790   0.480
 4470WAT    HW213410   3.045   0.664   0.578
 4471WAT     OW13411   5.212   5.391   4.834
 4471WAT    HW113412   5.149   5.325   4.793
 4471WAT    HW213413   5.172   5.482   4.831
 4472WAT     OW13414   0.184   0.286   4.844
 4472WAT    HW113415   0.182   0.257   4.940
 4472WAT    HW213416   0.279   0.300   4.816
 4473WAT     OW13417   3.610   6.337   3.718
 4473WAT    HW113418   3.550   6.406   3.759
 4473WAT    HW213419   3.640   6.273   3.788
 4474WAT     OW13420   5.801   6.180   2.174
 4474WAT    HW113421   5.895   6.147   2.167
 4474WAT    HW213422   5.785   6.217   2.266
 4475WAT     OW13423   4.769   1.657   3.336
 4475WAT    HW113424   4.848   1.687   3.390
 4475WAT    HW213425   4.700   1.618   3.397
 4476WAT     OW13426   0.921   1.791   6.086
 4476WAT    HW113427   0.984   1.823   6.156
 4476WAT    HW213428   0.914   1.691   6.089
 4477WAT     OW13429   4.741   4.410   2.162
 4477WAT    HW113430   4.693   4.323   2.176
 4477WAT    HW213431   4.676   4.486   2.175
 4478WAT     OW13432   5.507   3.643   0.383
 4478WAT    HW113433   5.580   3.648   0.452
 4478WAT    HW213434   5.468   3.735   0.370
 4479WAT     OW13435   2.901   3.312   1.415
 4479WAT    HW113436   2.995   3.321   1.447
 4479WAT    HW213437   2.889   3.224   1.369
 4480WAT     OW13438   6.447   3.113   0.963
 4480WAT    HW113439   6.546   3.106   0.955
 4480WAT    HW213440   6.404   3.036   0.917
 4481WAT     OW13441   4.646   0.431   2.317
 4481WAT    HW113442   4.613   0.344   2.353
 4481WAT    HW213443   4.689   0.484   2.390
 4482WAT     OW13444   5.154   0.731   1.136
 4482WAT    HW113445   5.203   0.807   1.092
 4482WAT    HW213446   5.207   0.647   1.126
 4483WAT     OW13447   6.495   2.645   0.321
 4483WAT    HW113448   6.527   2.682   0.234
 4483WAT    HW213449   6.574   2.618   0.376
 4484WAT     OW13450   1.995   5.318   3.024
 4484WAT    HW113451   2.047   5.392   2.981
 4484WAT    HW213452   1.941   5.270   2.956
 4485WAT     OW13453   0.858   2.695   6.015
 4485WAT    HW113454   0.795   2.638   6.067
 4485WAT    HW213455   0.809   2.737   5.938
 4486WAT     OW13456   4.644   0.263   5.752
 4486WAT    HW113457   4.601   0.236   5.838
 4486WAT    HW213458   4.735   0.299   5.770
 4487WAT     OW13459   2.767   1.739   4.876
 4487WAT    HW113460   2.866   1.756   4.876
 4487WAT    HW213461   2.744   1.679   4.953
 4488WAT     OW13462   4.367   5.227   0.929
 4488WAT    HW113463   4.322   5.317   0.927
 4488WAT    HW213464   4.312   5.161   0.878
 4489WAT     OW13465   3.354   0.209   1.620
 4489WAT    HW113466   3.294   0.150   1.674
 4489WAT    HW213467   3.448   0.199   1.652
 4490WAT     OW13468   6.340   5.105   4.149
 4490WAT    HW113469   6.289   5.188   4.128
 4490WAT    HW213470   6.389   5.116   4.235
 4491WAT     OW13471   1.849   6.326   5.550
 4491WAT    HW113472   1.906   6.301   5.472
 4491WAT    HW213473   1.900   6.309   5.634
 4492WAT     OW13474   3.610   5.370   4.988
 4492WAT    HW113475   3.534   5.313   4.956
 4492WAT    HW213476   3.696   5.323   4.972
 4493WAT     OW13477   4.893   3.415   6.538
 4493WAT    HW113478   4.990   3.436   6.544
 4493WAT    HW213479   4.861   3.432   6.445
 4494WAT     OW13480   3.477   0.229   0.203
 4494WAT    HW113481   3.520   0.250   0.116
 4494WAT    HW213482   3.403   0.294   0.221
 4495WAT     OW13483   3.218   3.252   2.454
 4495WAT    HW113484   3.220   3.305   2.538
 4495WAT    HW213485   3.146   3.287   2.394
 4496WAT     OW13486   4.731   5.844   5.587
 4496WAT    HW113487   4.815   5.820   5.539
 4496WAT    HW213488   4.687   5.922   5.541
 4497WAT     OW13489   1.754   5.155   6.491
 4497WAT    HW113490   1.739   5.078   6.428
 4497WAT    HW213491   1.759   5.240   6.439
 4498WAT     OW13492   2.431   2.134   6.006
 4498WAT    HW113493   2.410   2.143   5.909
 4498WAT    HW213494   2.353   2.093   6.053
 4499WAT     OW13495   3.356   3.830   0.272
 4499WAT    HW113496   3.309   3.802   0.356
 4499WAT    HW213497   3.392   3.923   0.284
 4500WAT     OW13498   6.326   3.799   1.963
 4500WAT    HW113499   6.328   3.846   2.051
 4500WAT    HW213500   6.261   3.724   1.966
 4501WAT     OW13501   4.433   2.051   2.079
 4501WAT    HW113502   4.479   2.129   2.121
 4501WAT    HW213503   4.488   2.017   2.002
 4502WAT     OW13504   0.986   4.607   3.085
 4502WAT    HW113505   1.046   4.544   3.133
 4502WAT    HW213506   1.036   4.690   3.060
 4503WAT     OW13507   0.704   4.065   3.927
 4503WAT    HW113508   0.775   4.065   3.997
 4503WAT    HW213509   0.729   4.131   3.855
 4504WAT     OW13510   2.752   2.122   6.656
 4504WAT    HW113511   2.845   2.137   6.623
 4504WAT    HW213512   2.700   2.207   6.648
 4505WAT     OW13513   2.905   6.431   1.267
 4505WAT    HW113514   2.961   6.368   1.212
 4505WAT    HW213515   2.878   6.509   1.211
 4506WAT     OW13516   1.932   5.053   1.454
 4506WAT    HW113517   2.008   5.021   1.511
 4506WAT    HW213518   1.860   4.983   1.454
 4507WAT     OW13519   5.138   2.461   4.673
 4507WAT    HW113520   5.140   2.556   4.642
 4507WAT    HW213521   5.137   2.400   4.594
 4508WAT     OW13522   4.024   0.116   5.412
 4508WAT    HW113523   3.991   0.204   5.445
 4508WAT    HW213524   3.970   0.043   5.454
 4509WAT     OW13525   4.193   5.196   2.118
 4509WAT    HW113526   4.272   5.174   2.061
 4509WAT    HW213527   4.217   5.186   2.214
 4510WAT     OW13528   1.933   5.054   0.570
 4510WAT    HW113529   2.028   5.082   0.557
 4510WAT    HW213530   1.924   4.957   0.544
 4511WAT     OW13531   0.892   3.832   5.375
 4511WAT    HW113532   0.933   3.741   5.372
 4511WAT    HW213533   0.882   3.867   5.282
 4512WAT     OW13534   3.694   5.000   3.864
 4512WAT    HW113535   3.652   5.082   3.902
 4512WAT    HW213536   3.791   4.998   3.887
 4513WAT     OW13537   3.515   2.716   5.007
 4513WAT    HW113538   3.488   2.784   5.075
 4513WAT    HW213539   3.476   2.627   5.032
 4514WAT     OW13540   4.501   2.102   1.060
 4514WAT    HW113541   4.536   2.186   1.018
 4514WAT    HW213542   4.412   2.119   1.101
 4515WAT     OW13543   2.857   0.123   4.637
 4515WAT    HW113544   2.850   0.094   4.732
 4515WAT    HW213545   2.936   0.183   4.626
 4516WAT     OW13546   5.156   3.470   6.584
 4516WAT    HW113547   5.250   3.487   6.556
 4516WAT    HW213548   5.130   3.537   6.653
 4517WAT     OW13549   2.915   5.405   0.602
 4517WAT    HW113550   2.903   5.374   0.696
 4517WAT    HW213551   2.860   5.487   0.587
 4518WAT     OW13552   3.353   2.122   1.057
 4518WAT    HW113553   3.414   2.082   0.989
 4518WAT    HW213554   3.370   2.078   1.146
 4519WAT     OW13555   4.674   1.916   1.157
 4519WAT    HW113556   4.765   1.950   1.135
 4519WAT    HW213557   4.605   1.980   1.122
 4520WAT     OW13558   2.202   1.659   1.848
 4520WAT    HW113559   2.229   1.746   1.807
 4520WAT    HW213560   2.166   1.675   1.940
 4521WAT     OW13561   3.356   0.007   3.253
 4521WAT    HW113562   3.428  -0.029   3.194
 4521WAT    HW213563   3.387   0.092   3.296
 4522WAT     OW13564   3.060   0.025   5.557
 4522WAT    HW113565   3.120  -0.055   5.565
 4522WAT    HW213566   3.084   0.092   5.627
 4523WAT     OW13567   4.579   3.596   2.205
 4523WAT    HW113568   4.488   3.568   2.177
 4523WAT    HW213569   4.584   3.696   2.209
 4524WAT     OW13570   0.688   1.605   3.487
 4524WAT    HW113571   0.743   1.553   3.421
 4524WAT    HW213572   0.703   1.703   3.472
 4525WAT     OW13573   2.355   1.457   6.047
 4525WAT    HW113574   2.265   1.499   6.037
 4525WAT    HW213575   2.373   1.438   6.143
 4526WAT     OW13576   1.655   3.551   0.815
 4526WAT    HW113577   1.596   3.606   0.874
 4526WAT    HW213578   1.677   3.464   0.860
 4527WAT     OW13579   5.799   0.019   3.036
 4527WAT    HW113580   5.787   0.104   3.088
 4527WAT    HW213581   5.853  -0.046   3.090
 4528WAT     OW13582   5.425   3.755   3.822
 4528WAT    HW113583   5.330   3.736   3.797
 4528WAT    HW213584   5.479   3.768   3.739
 4529WAT     OW13585   3.160   3.772   2.681
 4529WAT    HW113586   3.068   3.796   2.650
 4529WAT    HW213587   3.154   3.709   2.759
 4530WAT     OW13588   1.139   1.523   2.485
 4530WAT    HW113589   1.221   1.466   2.497
 4530WAT    HW213590   1.058   1.466   2.489
 4531WAT     OW13591   2.194   4.970   2.568
 4531WAT    HW113592   2.283   4.965   2.523
 4531WAT    HW213593   2.142   5.047   2.530
 4532WAT     OW13594   5.608   0.639   3.916
 4532WAT    HW113595   5.688   0.647   3.857
 4532WAT    HW213596   5.532   0.600   3.864
 4533WAT     OW13597   3.077   3.358   4.455
 4533WAT    HW113598   3.127   3.332   4.537
 4533WAT    HW213599   3.130   3.332   4.374
 4534WAT     OW13600   1.083   1.074   2.779
 4534WAT    HW113601   1.067   1.149   2.715
 4534WAT    HW213602   0.997   1.027   2.798
 4535WAT     OW13603   5.414   2.824   1.417
 4535WAT    HW113604   5.403   2.752   1.349
 4535WAT    HW213605   5.326   2.869   1.432
 4536WAT     OW13606   6.475   4.638   0.627
 4536WAT    HW113607   6.523   4.631   0.714
 4536WAT    HW213608   6.394   4.581   0.629
 4537WAT     OW13609   5.124   0.237   0.618
 4537WAT    HW113610   5.100   0.217   0.713
 4537WAT    HW213611   5.137   0.152   0.568
 4538WAT     OW13612   2.481   5.089   1.856
 4538WAT    HW113613   2.414   5.106   1.929
 4538WAT    HW213614   2.558   5.037   1.893
 4539WAT     OW13615   2.540   1.052   1.360
 4539WAT    HW113616   2.541   1.037   1.459
 4539WAT    HW213617   2.484   1.132   1.338
 4540WAT     OW13618   0.049   0.248   0.767
 4540WAT    HW113619   0.139   0.212   0.793
 4540WAT    HW213620   0.036   0.339   0.807
 4541WAT     OW13621   0.472   2.049   4.509
 4541WAT    HW113622   0.546   1.986   4.532
 4541WAT    HW213623   0.431   2.084   4.594
 4542WAT     OW13624   3.158   5.213   2.816
 4542WAT    HW113625   3.236   5.158   2.786
 4542WAT    HW213626   3.089   5.215   2.743
 4543WAT     OW13627   6.453   4.231   6.211
 4543WAT    HW113628   6.356   4.226   6.188
 4543WAT    HW213629   6.499   4.296   6.150
 4544WAT     OW13630   2.567   4.765   3.911
 4544WAT    HW113631   2.598   4.847   3.960
 4544WAT    HW213632   2.558   4.690   3.976
 4545WAT     OW13633   2.319   5.983   0.784
 4545WAT    HW113634   2.395   5.919   0.795
 4545WAT    HW213635   2.330   6.033   0.698
 4546WAT     OW13636   4.762   2.351   4.697
 4546WAT    HW113637   4.838   2.382   4.755
 4546WAT    HW213638   4.728   2.427   4.643
 4547WAT     OW13639   0.896   3.155   1.801
 4547WAT    HW113640   0.874   3.251   1.818
 4547WAT    HW213641   0.815   3.109   1.764
 4548WAT     OW13642   3.558   5.766   4.501
 4548WAT    HW113643   3.546   5.673   4.535
 4548WAT    HW213644   3.474   5.818   4.514
 4549WAT     OW13645   5.165   3.513   2.054
 4549WAT    HW113646   5.081   3.478   2.094
 4549WAT    HW213647   5.176   3.609   2.079
 4550WAT     OW13648   3.856   0.871   0.708
 4550WAT    HW113649   3.775   0.828   0.746
 4550WAT    HW213650   3.929   0.870   0.777
 4551WAT     OW13651   1.309   1.617   3.131
 4551WAT    HW113652   1.332   1.693   3.070
 4551WAT    HW213653   1.363   1.624   3.215
 4552WAT     OW13654   2.750   0.939   5.057
 4552WAT    HW113655   2.750   1.035   5.086
 4552WAT    HW213656   2.841   0.900   5.072
 4553WAT     OW13657   5.532   5.646   5.621
 4553WAT    HW113658   5.602   5.611   5.559
 4553WAT    HW213659   5.552   5.741   5.644
 4554WAT     OW13660   1.643   4.772   2.272
 4554WAT    HW113661   1.552   4.745   2.239
 4554WAT    HW213662   1.655   4.871   2.258
 4555WAT     OW13663   3.136   4.690   3.683
 4555WAT    HW113664   3.106   4.746   3.760
 4555WAT    HW213665   3.232   4.712   3.661
 4556WAT     OW13666   5.884   4.612   2.612
 4556WAT    HW113667   5.784   4.608   2.604
 4556WAT    HW213668   5.925   4.590   2.524
 4557WAT     OW13669   4.234   3.957   2.715
 4557WAT    HW113670   4.213   3.872   2.764
 4557WAT    HW213671   4.182   4.033   2.755
 4558WAT     OW13672   1.732   1.090   6.064
 4558WAT    HW113673   1.812   1.104   6.005
 4558WAT    HW213674   1.734   0.996   6.100
 4559WAT     OW13675   5.546   0.415   5.381
 4559WAT    HW113676   5.506   0.433   5.471
 4559WAT    HW213677   5.526   0.320   5.355
 4560WAT     OW13678   4.437   5.570   6.359
 4560WAT    HW113679   4.491   5.490   6.385
 4560WAT    HW213680   4.418   5.567   6.261
 4561WAT     OW13681   3.349   3.962   6.089
 4561WAT    HW113682   3.438   3.987   6.126
 4561WAT    HW213683   3.359   3.882   6.029
 4562WAT     OW13684   0.982   1.126   0.946
 4562WAT    HW113685   0.903   1.098   1.001
 4562WAT    HW213686   1.031   1.045   0.914
 4563WAT     OW13687   5.049   4.048   0.909
 4563WAT    HW113688   5.040   4.119   0.978
 4563WAT    HW213689   5.022   3.960   0.948
 4564WAT     OW13690   4.358   5.242   5.743
 4564WAT    HW113691   4.373   5.332   5.704
 4564WAT    HW213692   4.412   5.174   5.693
 4565WAT     OW13693   1.000   1.802   2.829
 4565WAT    HW113694   0.910   1.846   2.838
 4565WAT    HW213695   0.994   1.707   2.860
 4566WAT     OW13696   0.177   0.629   0.457
 4566WAT    HW113697   0.079   0.611   0.449
 4566WAT    HW213698   0.215   0.579   0.535
 4567WAT     OW13699   1.038   3.173   4.086
 4567WAT    HW113700   1.057   3.118   4.168
 4567WAT    HW213701   1.074   3.126   4.005
 4568WAT     OW13702   1.772   5.557   0.571
 4568WAT    HW113703   1.849   5.543   0.509
 4568WAT    HW213704   1.795   5.520   0.661
 4569WAT     OW13705   5.374   2.686   3.757
 4569WAT    HW113706   5.287   2.645   3.784
 4569WAT    HW213707   5.365   2.786   3.761
 4570WAT     OW13708   4.444   2.511   0.816
 4570WAT    HW113709   4.364   2.480   0.868
 4570WAT    HW213710   4.442   2.611   0.810
 4571WAT     OW13711   5.763   0.038   6.186
 4571WAT    HW113712   5.788   0.134   6.189
 4571WAT    HW213713   5.736   0.007   6.277
 4572WAT     OW13714   5.348   3.599   1.448
 4572WAT    HW113715   5.332   3.507   1.411
 4572WAT    HW213716   5.427   3.598   1.508
 4573WAT     OW13717   3.643   4.993   1.938
 4573WAT    HW113718   3.729   4.944   1.951
 4573WAT    HW213719   3.577   4.932   1.894
 4574WAT     OW13720   0.887   5.930   2.591
 4574WAT    HW113721   0.822   5.931   2.515
 4574WAT    HW213722   0.918   6.023   2.609
 4575WAT     OW13723   6.431   3.545   1.494
 4575WAT    HW113724   6.345   3.589   1.470
 4575WAT    HW213725   6.507   3.601   1.463
 4576WAT     OW13726   4.752   0.769   2.779
 4576WAT    HW113727   4.713   0.823   2.854
 4576WAT    HW213728   4.703   0.682   2.773
 4577WAT     OW13729   2.140   1.412   0.275
 4577WAT    HW113730   2.127   1.316   0.249
 4577WAT    HW213731   2.077   1.469   0.222
 4578WAT     OW13732   0.344   3.825   0.352
 4578WAT    HW113733   0.408   3.882   0.404
 4578WAT    HW213734   0.251   3.841   0.383
 4579WAT     OW13735   0.736   6.440   2.166
 4579WAT    HW113736   0.734   6.540   2.159
 4579WAT    HW213737   0.656   6.408   2.217
 4580WAT     OW13738   0.872   1.050   2.171
 4580WAT    HW113739   0.778   1.083   2.182
 4580WAT    HW213740   0.899   1.059   2.075
 4581WAT     OW13741   4.065   5.953   2.474
 4581WAT    HW113742   4.078   5.949   2.375
 4581WAT    HW213743   4.095   5.867   2.515
 4582WAT     OW13744   6.398   2.015   0.218
 4582WAT    HW113745   6.373   2.065   0.134
 4582WAT    HW213746   6.364   1.921   0.212
 4583WAT     OW13747   5.405   2.310   3.191
 4583WAT    HW113748   5.478   2.254   3.151
 4583WAT    HW213749   5.421   2.406   3.169
 4584WAT     OW13750   6.562   5.334   2.879
 4584WAT    HW113751   6.631   5.347   2.950
 4584WAT    HW213752   6.574   5.244   2.837
 4585WAT     OW13753   1.439   5.153   4.387
 4585WAT    HW113754   1.463   5.058   4.406
 4585WAT    HW213755   1.479   5.180   4.299
 4586WAT     OW13756   6.293   5.515   6.131
 4586WAT    HW113757   6.255   5.423   6.141
 4586WAT    HW213758   6.267   5.571   6.210
 4587WAT     OW13759   4.480   2.263   2.502
 4587WAT    HW113760   4.446   2.172   2.481
 4587WAT    HW213761   4.562   2.256   2.558
 4588WAT     OW13762   4.773   2.021   2.167
 4588WAT    HW113763   4.723   1.973   2.239
 4588WAT    HW213764   4.726   2.106   2.144
 4589WAT     OW13765   4.074   2.184   0.219
 4589WAT    HW113766   3.979   2.169   0.247
 4589WAT    HW213767   4.128   2.212   0.298
 4590WAT     OW13768   0.898   2.955   0.635
 4590WAT    HW113769   0.944   2.943   0.723
 4590WAT    HW213770   0.832   2.880   0.622
 4591WAT     OW13771   3.364   0.896   2.456
 4591WAT    HW113772   3.320   0.823   2.509
 4591WAT    HW213773   3.355   0.983   2.504
 4592WAT     OW13774   0.606   6.207   3.519
 4592WAT    HW113775   0.660   6.218   3.603
 4592WAT    HW213776   0.542   6.132   3.530
 4593WAT     OW13777   4.408   2.783   0.800
 4593WAT    HW113778   4.339   2.796   0.870
 4593WAT    HW213779   4.480   2.853   0.810
 4594WAT     OW13780   0.137   2.234   4.766
 4594WAT    HW113781   0.230   2.198   4.766
 4594WAT    HW213782   0.086   2.196   4.842
 4595WAT     OW13783   0.261   0.824   0.861
 4595WAT    HW113784   0.271   0.737   0.909
 4595WAT    HW213785   0.271   0.899   0.926
 4596WAT     OW13786   3.711   4.980   3.591
 4596WAT    HW113787   3.726   5.072   3.556
 4596WAT    HW213788   3.695   4.984   3.690
 4597WAT     OW13789   4.742   3.210   4.395
 4597WAT    HW113790   4.771   3.190   4.302
 4597WAT    HW213791   4.662   3.270   4.393
 4598WAT     OW13792   4.221   4.771   1.047
 4598WAT    HW113793   4.188   4.679   1.030
 4598WAT    HW213794   4.155   4.838   1.013
 4599WAT     OW13795   4.259   4.933   5.329
 4599WAT    HW113796   4.319   5.012   5.321
 4599WAT    HW213797   4.194   4.932   5.253
 4600WAT     OW13798   0.217   6.027   0.401
 4600WAT    HW113799   0.196   5.997   0.308
 4600WAT    HW213800   0.315   6.013   0.419
 4601WAT     OW13801   3.567   1.984   4.617
 4601WAT    HW113802   3.495   2.014   4.554
 4601WAT    HW213803   3.537   1.998   4.711
 4602WAT     OW13804   5.411   0.838   5.721
 4602WAT    HW113805   5.367   0.927   5.707
 4602WAT    HW213806   5.460   0.811   5.638
 4603WAT     OW13807   4.256   1.033   6.563
 4603WAT    HW113808   4.211   0.955   6.606
 4603WAT    HW213809   4.272   1.105   6.631
 4604WAT     OW13810   1.754   5.041   6.039
 4604WAT    HW113811   1.690   5.052   5.963
 4604WAT    HW213812   1.835   4.992   6.006
 4605WAT     OW13813   0.047   6.599   2.180
 4605WAT    HW113814   0.127   6.539   2.186
 4605WAT    HW213815   0.062   6.680   2.236
 4606WAT     OW13816   2.924   3.408   6.025
 4606WAT    HW113817   3.013   3.381   6.062
 4606WAT    HW213818   2.855   3.401   6.097
 4607WAT     OW13819   1.919   0.359   2.391
 4607WAT    HW113820   1.872   0.344   2.304
 4607WAT    HW213821   2.015   0.333   2.382
 4608WAT     OW13822   6.250   4.068   0.267
 4608WAT    HW113823   6.263   4.161   0.301
 4608WAT    HW213824   6.312   4.052   0.190
 4609WAT     OW13825   2.798   5.757   0.107
 4609WAT    HW113826   2.700   5.749   0.123
 4609WAT    HW213827   2.847   5.697   0.171
 4610WAT     OW13828   6.676   4.136   3.489
 4610WAT    HW113829   6.665   4.193   3.570
 4610WAT    HW213830   6.614   4.168   3.417
 4611WAT     OW13831   1.571   3.907   0.494
 4611WAT    HW113832   1.505   3.914   0.420
 4611WAT    HW213833   1.571   3.815   0.532
 4612WAT     OW13834   3.017   1.487   0.778
 4612WAT    HW113835   3.086   1.533   0.834
 4612WAT    HW213836   3.053   1.473   0.686
 4613WAT     OW13837   4.722   1.795   4.105
 4613WAT    HW113838   4.662   1.806   4.183
 4613WAT    HW213839   4.813   1.768   4.136
 4614WAT     OW13840   0.574   0.298   1.335
 4614WAT    HW113841   0.576   0.219   1.395
 4614WAT    HW213842   0.591   0.381   1.388
 4615WAT     OW13843   5.057   5.205   4.710
 4615WAT    HW113844   4.976   5.249   4.670
 4615WAT    HW213845   5.108   5.158   4.637
 4616WAT     OW13846   0.730   2.348   4.655
 4616WAT    HW113847   0.758   2.385   4.566
 4616WAT    HW213848   0.793   2.381   4.726
 4617WAT     OW13849   1.528   1.530   3.692
 4617WAT    HW113850   1.466   1.491   3.624
 4617WAT    HW213851   1.571   1.456   3.744
 4618WAT     OW13852   4.219   2.037   5.049
 4618WAT    HW113853   4.185   2.093   5.125
 4618WAT    HW213854   4.201   2.084   4.963
 4619WAT     OW13855   4.124   4.361   5.978
 4619WAT    HW113856   4.181   4.349   6.059
 4619WAT    HW213857   4.062   4.438   5.991
 4620WAT     OW13858   5.770   0.539   0.417
 4620WAT    HW113859   5.755   0.621   0.473
 4620WAT    HW213860   5.752   0.458   0.472
 4621WAT     OW13861   1.671   2.643   6.686
 4621WAT    HW113862   1.649   2.568   6.749
 4621WAT    HW213863   1.694   2.725   6.738
 4622WAT     OW13864   2.304   3.920   5.341
 4622WAT    HW113865   2.347   3.944   5.428
 4622WAT    HW213866   2.287   3.822   5.337
 4623WAT     OW13867   3.342   6.047   5.175
 4623WAT    HW113868   3.410   6.056   5.248
 4623WAT    HW213869   3.285   5.966   5.191
 4624WAT     OW13870   6.612   4.876   3.849
 4624WAT    HW113871   6.659   4.794   3.882
 4624WAT    HW213872   6.524   4.886   3.895
 4625WAT     OW13873   5.964   1.173   1.477
 4625WAT    HW113874   5.928   1.179   1.384
 4625WAT    HW213875   5.918   1.240   1.535
 4626WAT     OW13876   3.322   5.293   3.202
 4626WAT    HW113877   3.298   5.196   3.206
 4626WAT    HW213878   3.263   5.344   3.265
 4627WAT     OW13879   4.272   0.676   3.232
 4627WAT    HW113880   4.258   0.767   3.194
 4627WAT    HW213881   4.282   0.610   3.157
 4628WAT     OW13882   5.956   4.371   3.494
 4628WAT    HW113883   5.949   4.470   3.499
 4628WAT    HW213884   5.978   4.334   3.584
 4629WAT     OW13885   6.579   6.660   5.934
 4629WAT    HW113886   6.661   6.613   5.966
 4629WAT    HW213887   6.510   6.660   6.006
 4630WAT     OW13888   2.511   3.677   3.941
 4630WAT    HW113889   2.605   3.669   3.975
 4630WAT    HW213890   2.484   3.590   3.900
 4631WAT     OW13891   0.485   3.370   0.238
 4631WAT    HW113892   0.414   3.426   0.281
 4631WAT    HW213893   0.568   3.425   0.226
 4632WAT     OW13894   6.447   3.700   0.173
 4632WAT    HW113895   6.444   3.685   0.074
 4632WAT    HW213896   6.354   3.716   0.207
 4633WAT     OW13897   3.031   0.927   4.543
 4633WAT    HW113898   3.108   0.926   4.480
 4633WAT    HW213899   3.005   1.022   4.563
 4634WAT     OW13900   0.662   5.581   3.385
 4634WAT    HW113901   0.750   5.600   3.430
 4634WAT    HW213902   0.596   5.652   3.410
 4635WAT     OW13903   4.175   1.184   3.791
 4635WAT    HW113904   4.156   1.173   3.888
 4635WAT    HW213905   4.113   1.125   3.738
 4636WAT     OW13906   6.306   6.198   1.319
 4636WAT    HW113907   6.293   6.262   1.395
 4636WAT    HW213908   6.342   6.247   1.240
 4637WAT     OW13909   4.205   6.463   5.242
 4637WAT    HW113910   4.125   6.520   5.222
 4637WAT    HW213911   4.193   6.419   5.331
 4638WAT     OW13912   0.639   0.696   1.109
 4638WAT    HW113913   0.565   0.728   1.168
 4638WAT    HW213914   0.608   0.618   1.055
 4639WAT     OW13915   4.430   1.125   4.742
 4639WAT    HW113916   4.390   1.217   4.744
 4639WAT    HW213917   4.414   1.080   4.829
 4640WAT     OW13918   0.769   1.042   1.096
 4640WAT    HW113919   0.703   1.103   1.139
 4640WAT    HW213920   0.724   0.986   1.027
 4641WAT     OW13921   2.589   1.082   6.096
 4641WAT    HW113922   2.632   1.046   6.179
 4641WAT    HW213923   2.491   1.063   6.099
 4642WAT     OW13924   0.762   2.688   4.322
 4642WAT    HW113925   0.795   2.737   4.242
 4642WAT    HW213926   0.785   2.739   4.405
 4643WAT     OW13927   6.322   3.447   2.135
 4643WAT    HW113928   6.276   3.402   2.212
 4643WAT    HW213929   6.255   3.502   2.085
 4644WAT     OW13930   0.921   1.702   1.762
 4644WAT    HW113931   0.920   1.788   1.711
 4644WAT    HW213932   1.016   1.674   1.778
 4645WAT     OW13933   1.391   2.046   1.756
 4645WAT    HW113934   1.467   2.110   1.766
 4645WAT    HW213935   1.355   2.024   1.847
 4646WAT     OW13936   1.878   5.516   2.306
 4646WAT    HW113937   1.939   5.557   2.374
 4646WAT    HW213938   1.865   5.580   2.231
 4647WAT     OW13939   4.840   2.283   1.051
 4647WAT    HW113940   4.759   2.302   0.995
 4647WAT    HW213941   4.917   2.337   1.018
 4648WAT     OW13942   3.943   3.810   4.958
 4648WAT    HW113943   3.935   3.790   5.056
 4648WAT    HW213944   3.884   3.888   4.936
 4649WAT     OW13945   4.128   3.433   1.030
 4649WAT    HW113946   4.049   3.435   0.968
 4649WAT    HW213947   4.178   3.520   1.022
 4650WAT     OW13948   2.486   3.277   0.044
 4650WAT    HW113949   2.529   3.338  -0.021
 4650WAT    HW213950   2.402   3.318   0.079
 4651WAT     OW13951   0.718   6.140   3.045
 4651WAT    HW113952   0.642   6.205   3.038
 4651WAT    HW213953   0.735   6.099   2.956
 4652WAT     OW13954   6.023   1.120   4.898
 4652WAT    HW113955   6.118   1.107   4.926
 4652WAT    HW213956   5.963   1.077   4.965
 4653WAT     OW13957   5.416   4.380   4.091
 4653WAT    HW113958   5.484   4.308   4.103
 4653WAT    HW213959   5.451   4.451   4.029
 4654WAT     OW13960   3.094   3.494   5.356
 4654WAT    HW113961   3.032   3.515   5.281
 4654WAT    HW213962   3.046   3.503   5.443
 4655WAT     OW13963   2.959   4.230   5.919
 4655WAT    HW113964   2.945   4.271   6.009
 4655WAT    HW213965   3.026   4.156   5.926
 4656WAT     OW13966   6.593   6.131   0.479
 4656WAT    HW113967   6.553   6.219   0.505
 4656WAT    HW213968   6.663   6.105   0.546
 4657WAT     OW13969   5.449   3.193   4.706
 4657WAT    HW113970   5.459   3.291   4.728
 4657WAT    HW213971   5.393   3.149   4.776
 4658WAT     OW13972   4.077   6.528   2.869
 4658WAT    HW113973   3.994   6.505   2.817
 4658WAT    HW213974   4.157   6.522   2.808
 4659WAT     OW13975   5.460   4.461   2.788
 4659WAT    HW113976   5.541   4.450   2.844
 4659WAT    HW213977   5.380   4.478   2.846
 4660WAT     OW13978   2.296   2.299   0.625
 4660WAT    HW113979   2.226   2.324   0.558
 4660WAT    HW213980   2.260   2.312   0.718
 4661WAT     OW13981   4.507   4.946   6.397
 4661WAT    HW113982   4.474   5.023   6.342
 4661WAT    HW213983   4.564   4.887   6.339
 4662WAT     OW13984   4.531   3.377   4.399
 4662WAT    HW113985   4.442   3.333   4.414
 4662WAT    HW213986   4.562   3.420   4.484
 4663WAT     OW13987   2.759   3.555   2.463
 4663WAT    HW113988   2.794   3.545   2.556
 4663WAT    HW213989   2.678   3.497   2.451
 4664WAT     OW13990   5.142   6.163   3.688
 4664WAT    HW113991   5.181   6.254   3.683
 4664WAT    HW213992   5.204   6.097   3.644
 4665WAT     OW13993   2.721   4.710   6.251
 4665WAT    HW113994   2.658   4.771   6.203
 4665WAT    HW213995   2.731   4.741   6.345
 4666WAT     OW13996   3.101   1.065   2.499
 4666WAT    HW113997   3.096   1.101   2.406
 4666WAT    HW213998   3.185   1.096   2.543
 4667WAT     OW13999   0.310   0.364   6.401
 4667WAT    HW114000   0.285   0.329   6.311
 4667WAT    HW214001   0.252   0.321   6.470
 4668WAT     OW14002   2.032   0.614   1.491
 4668WAT    HW114003   2.027   0.536   1.553
 4668WAT    HW214004   2.000   0.697   1.538
 4669WAT     OW14005   5.470   1.453   1.362
 4669WAT    HW114006   5.540   1.515   1.327
 4669WAT    HW214007   5.447   1.385   1.293
 4670WAT     OW14008   2.251   4.915   1.072
 4670WAT    HW114009   2.210   4.854   1.139
 4670WAT    HW214010   2.322   4.866   1.022
 4671WAT     OW14011   1.157   4.750   4.484
 4671WAT    HW114012   1.187   4.787   4.572
 4671WAT    HW214013   1.058   4.737   4.486
 4672WAT     OW14014   6.268   4.077   1.201
 4672WAT    HW114015   6.262   4.138   1.123
 4672WAT    HW214016   6.188   4.089   1.259
 4673WAT     OW14017   0.960   4.919   2.801
 4673WAT    HW114018   1.027   4.876   2.861
 4673WAT    HW214019   0.876   4.939   2.852
 4674WAT     OW14020   1.982   6.646   1.220
 4674WAT    HW114021   1.930   6.699   1.153
 4674WAT    HW214022   1.992   6.700   1.304
 4675WAT     OW14023   0.523   3.242   4.415
 4675WAT    HW114024   0.484   3.176   4.480
 4675WAT    HW214025   0.453   3.309   4.389
 4676WAT     OW14026   4.783   4.706   5.575
 4676WAT    HW114027   4.790   4.686   5.477
 4676WAT    HW214028   4.753   4.624   5.624
 4677WAT     OW14029   0.552   2.460   1.960
 4677WAT    HW114030   0.524   2.403   1.882
 4677WAT    HW214031   0.471   2.481   2.015
 4678WAT     OW14032   5.994   3.849   1.466
 4678WAT    HW114033   6.018   3.940   1.431
 4678WAT    HW214034   5.973   3.855   1.564
 4679WAT     OW14035   2.924   0.581   0.228
 4679WAT    HW114036   2.968   0.651   0.173
 4679WAT    HW214037   2.993   0.531   0.280
 4680WAT     OW14038   2.472   6.387   1.257
 4680WAT    HW114039   2.402   6.457   1.243
 4680WAT    HW214040   2.549   6.428   1.306
 4681WAT     OW14041   2.656   3.178   4.080
 4681WAT    HW114042   2.600   3.122   4.019
 4681WAT    HW214043   2.710   3.118   4.140
 4682WAT     OW14044   2.203   6.228   4.429
 4682WAT    HW114045   2.293   6.194   4.400
 4682WAT    HW214046   2.210   6.324   4.454
 4683WAT     OW14047   0.419   1.002   5.473
 4683WAT    HW114048   0.467   1.018   5.387
 4683WAT    HW214049   0.471   1.043   5.548
 4684WAT     OW14050   4.782   6.650   0.549
 4684WAT    HW114051   4.796   6.712   0.626
 4684WAT    HW214052   4.729   6.571   0.579
 4685WAT     OW14053   5.206   0.451   3.722
 4685WAT    HW114054   5.210   0.386   3.646
 4685WAT    HW214055   5.111   0.464   3.750
 4686WAT     OW14056   4.897   6.351   1.036
 4686WAT    HW114057   4.983   6.339   0.986
 4686WAT    HW214058   4.826   6.295   0.994
 4687WAT     OW14059   2.595   3.539   4.385
 4687WAT    HW114060   2.561   3.483   4.310
 4687WAT    HW214061   2.635   3.623   4.349
 4688WAT     OW14062   5.982   5.588   4.426
 4688WAT    HW114063   6.005   5.678   4.464
 4688WAT    HW214064   5.898   5.595   4.372
 4689WAT     OW14065   0.234   4.253   5.546
 4689WAT    HW114066   0.304   4.306   5.498
 4689WAT    HW214067   0.145   4.269   5.504
 4690WAT     OW14068   2.395   0.032   0.861
 4690WAT    HW114069   2.403   0.127   0.832
 4690WAT    HW214070   2.485  -0.005   0.885
 4691WAT     OW14071   1.037   1.225   5.288
 4691WAT    HW114072   1.049   1.317   5.324
 4691WAT    HW214073   0.973   1.175   5.346
 4692WAT     OW14074   6.325   4.629   1.747
 4692WAT    HW114075   6.331   4.692   1.825
 4692WAT    HW214076   6.230   4.621   1.719
 4693WAT     OW14077   2.672   5.942   1.940
 4693WAT    HW114078   2.689   6.018   1.877
 4693WAT    HW214079   2.576   5.917   1.936
 4694WAT     OW14080   1.886   2.710   4.239
 4694WAT    HW114081   1.922   2.664   4.320
 4694WAT    HW214082   1.793   2.742   4.258
 4695WAT     OW14083   2.340   0.637   1.104
 4695WAT    HW114084   2.251   0.678   1.085
 4695WAT    HW214085   2.341   0.603   1.198
 4696WAT     OW14086   5.249   6.437   0.207
 4696WAT    HW114087   5.160   6.445   0.162
 4696WAT    HW214088   5.280   6.528   0.235
 4697WAT     OW14089   4.404   0.102   3.048
 4697WAT    HW114090   4.430   0.198   3.039
 4697WAT    HW214091   4.455   0.060   3.123
 4698WAT     OW14092   4.743   3.841   2.401
 4698WAT    HW114093   4.683   3.854   2.322
 4698WAT    HW214094   4.770   3.930   2.437
 4699WAT     OW14095   1.428   5.453   5.776
 4699WAT    HW114096   1.413   5.520   5.703
 4699WAT    HW214097   1.382   5.367   5.752
 4700WAT     OW14098   1.427   5.219   0.155
 4700WAT    HW114099   1.389   5.274   0.229
 4700WAT    HW214100   1.354   5.190   0.094
 4701WAT     OW14101   2.300   4.423   1.373
 4701WAT    HW114102   2.278   4.340   1.322
 4701WAT    HW214103   2.387   4.461   1.340
 4702WAT     OW14104   6.022   5.361   4.558
 4702WAT    HW114105   6.004   5.376   4.656
 4702WAT    HW214106   6.016   5.448   4.509
 4703WAT     OW14107   0.861   1.925   1.035
 4703WAT    HW114108   0.884   2.020   1.056
 4703WAT    HW214109   0.927   1.888   0.970
 4704WAT     OW14110   5.602   5.724   2.140
 4704WAT    HW114111   5.638   5.814   2.116
 4704WAT    HW214112   5.653   5.688   2.218
 4705WAT     OW14113   4.050   6.538   1.276
 4705WAT    HW114114   4.115   6.547   1.200
 4705WAT    HW214115   4.037   6.441   1.296
 4706WAT     OW14116   6.438   3.201   2.702
 4706WAT    HW114117   6.525   3.245   2.724
 4706WAT    HW214118   6.455   3.115   2.653
 4707WAT     OW14119   4.177   3.341   5.218
 4707WAT    HW114120   4.089   3.386   5.203
 4707WAT    HW214121   4.176   3.251   5.175
 4708WAT     OW14122   2.533   5.769   2.833
 4708WAT    HW114123   2.590   5.814   2.901
 4708WAT    HW214124   2.442   5.754   2.872
 4709WAT     OW14125   3.958   1.621   6.281
 4709WAT    HW114126   3.866   1.660   6.284
 4709WAT    HW214127   4.022   1.691   6.249
 4710WAT     OW14128   5.963   2.455   1.588
 4710WAT    HW114129   6.034   2.490   1.526
 4710WAT    HW214130   5.898   2.529   1.607
 4711WAT     OW14131   5.324   1.208   3.485
 4711WAT    HW114132   5.307   1.292   3.537
 4711WAT    HW214133   5.358   1.230   3.394
 4712WAT     OW14134   2.082   1.025   3.455
 4712WAT    HW114135   2.044   1.054   3.542
 4712WAT    HW214136   2.170   1.070   3.440
 4713WAT     OW14137   6.130   5.800   2.508
 4713WAT    HW114138   6.098   5.888   2.475
 4713WAT    HW214139   6.081   5.776   2.592
 4714WAT     OW14140   4.926   1.501   1.029
 4714WAT    HW114141   4.933   1.460   1.120
 4714WAT    HW214142   4.847   1.561   1.025
 4715WAT     OW14143   6.166   2.351   2.946
 4715WAT    HW114144   6.087   2.380   2.892
 4715WAT    HW214145   6.136   2.326   3.038
 4716WAT     OW14146   6.502   1.213   6.472
 4716WAT    HW114147   6.570   1.180   6.406
 4716WAT    HW214148   6.538   1.293   6.520
 4717WAT     OW14149   3.428   3.244   5.492
 4717WAT    HW114150   3.525   3.263   5.511
 4717WAT    HW214151   3.371   3.294   5.556
 4718WAT     OW14152   4.535   3.229   5.757
 4718WAT    HW114153   4.493   3.148   5.716
 4718WAT    HW214154   4.531   3.305   5.691
 4719WAT     OW14155   5.234   3.256   3.272
 4719WAT    HW114156   5.154   3.256   3.332
 4719WAT    HW214157   5.223   3.185   3.202
 4720WAT     OW14158   4.911   5.294   5.326
 4720WAT    HW114159   4.946   5.200   5.331
 4720WAT    HW214160   4.845   5.309   5.400
 4721WAT     OW14161   6.153   4.494   2.931
 4721WAT    HW114162   6.175   4.503   3.028
 4721WAT    HW214163   6.195   4.569   2.880
 4722WAT     OW14164   4.335   2.455   1.736
 4722WAT    HW114165   4.423   2.468   1.782
 4722WAT    HW214166   4.338   2.373   1.680
 4723WAT     OW14167   4.559   3.981   6.376
 4723WAT    HW114168   4.513   3.912   6.432
 4723WAT    HW214169   4.547   4.071   6.419
 4724WAT     OW14170   0.189   0.092   3.334
 4724WAT    HW114171   0.208  -0.004   3.314
 4724WAT    HW214172   0.273   0.145   3.325
 4725WAT     OW14173   1.755   3.949   5.551
 4725WAT    HW114174   1.782   4.010   5.476
 4725WAT    HW214175   1.784   3.988   5.638
 4726WAT     OW14176   6.362   3.981   5.594
 4726WAT    HW114177   6.272   3.971   5.637
 4726WAT    HW214178   6.432   3.940   5.653
 4727WAT     OW14179   2.923   4.948   2.209
 4727WAT    HW114180   2.892   4.898   2.290
 4727WAT    HW214181   3.019   4.974   2.222
 4728WAT     OW14182   3.430   1.728   5.198
 4728WAT    HW114183   3.475   1.639   5.207
 4728WAT    HW214184   3.448   1.783   5.280
 4729WAT     OW14185   6.059   3.557   5.649
 4729WAT    HW114186   6.153   3.584   5.669
 4729WAT    HW214187   6.058   3.476   5.592
 4730WAT     OW14188   1.053   2.490   5.389
 4730WAT    HW114189   1.136   2.532   5.352
 4730WAT    HW214190   1.074   2.439   5.472
 4731WAT     OW14191   0.768   5.865   5.255
 4731WAT    HW114192   0.738   5.776   5.221
 4731WAT    HW214193   0.721   5.885   5.341
 4732WAT     OW14194   1.244   0.651   2.861
 4732WAT    HW114195   1.228   0.726   2.796
 4732WAT    HW214196   1.165   0.590   2.861
 4733WAT     OW14197   4.966   4.392   6.340
 4733WAT    HW114198   5.017   4.478   6.339
 4733WAT    HW214199   4.995   4.337   6.419
 4734WAT     OW14200   3.209   0.130   5.352
 4734WAT    HW114201   3.140   0.099   5.418
 4734WAT    HW214202   3.200   0.228   5.339
 4735WAT     OW14203   1.445   3.647   4.118
 4735WAT    HW114204   1.431   3.567   4.060
 4735WAT    HW214205   1.494   3.621   4.201
 4736WAT     OW14206   3.583   4.294   4.743
 4736WAT    HW114207   3.556   4.390   4.741
 4736WAT    HW214208   3.596   4.265   4.838
 4737WAT     OW14209   4.751   1.284   1.982
 4737WAT    HW114210   4.766   1.362   2.043
 4737WAT    HW214211   4.698   1.313   1.903
 4738WAT     OW14212   2.632   2.615   1.906
 4738WAT    HW114213   2.545   2.663   1.918
 4738WAT    HW214214   2.619   2.517   1.919
 4739WAT     OW14215   3.471   4.452   2.858
 4739WAT    HW114216   3.387   4.456   2.912
 4739WAT    HW214217   3.447   4.438   2.762
 4740WAT     OW14218   5.434   1.040   0.289
 4740WAT    HW114219   5.530   1.068   0.282
 4740WAT    HW214220   5.381   1.113   0.332
 4741WAT     OW14221   5.106   2.933   4.084
 4741WAT    HW114222   5.078   2.917   3.990
 4741WAT    HW214223   5.026   2.927   4.144
 4742WAT     OW14224   5.544   3.596   1.632
 4742WAT    HW114225   5.623   3.535   1.640
 4742WAT    HW214226   5.528   3.641   1.719
 4743WAT     OW14227   5.828   5.336   6.542
 4743WAT    HW114228   5.744   5.376   6.505
 4743WAT    HW214229   5.892   5.318   6.467
 4744WAT     OW14230   1.966   2.583   5.877
 4744WAT    HW114231   1.976   2.544   5.785
 4744WAT    HW214232   2.056   2.599   5.916
 4745WAT     OW14233   1.661   2.356   3.657
 4745WAT    HW114234   1.691   2.442   3.614
 4745WAT    HW214235   1.653   2.285   3.587
 4746WAT     OW14236   4.912   2.133   3.876
 4746WAT    HW114237   4.896   2.035   3.885
 4746WAT    HW214238   5.003   2.148   3.836
 4747WAT     OW14239   3.148   4.116   0.628
 4747WAT    HW114240   3.096   4.188   0.673
 4747WAT    HW214241   3.098   4.030   0.636
 4748WAT     OW14242   5.513   2.766   5.981
 4748WAT    HW114243   5.554   2.729   5.898
 4748WAT    HW214244   5.584   2.806   6.039
 4749WAT     OW14245   3.169   5.074   2.127
 4749WAT    HW114246   3.263   5.059   2.157
 4749WAT    HW214247   3.136   5.161   2.163
 4750WAT     OW14248   1.479   4.156   2.699
 4750WAT    HW114249   1.402   4.139   2.760
 4750WAT    HW214250   1.565   4.144   2.748
 4751WAT     OW14251   0.739   4.274   3.146
 4751WAT    HW114252   0.670   4.283   3.218
 4751WAT    HW214253   0.830   4.276   3.186
 4752WAT     OW14254   0.034   2.709   3.009
 4752WAT    HW114255  -0.002   2.635   3.067
 4752WAT    HW214256   0.134   2.707   3.011
 4753WAT     OW14257   0.104   3.268   4.174
 4753WAT    HW114258   0.103   3.267   4.274
 4753WAT    HW214259   0.178   3.211   4.141
 4754WAT     OW14260   6.543   5.451   4.299
 4754WAT    HW114261   6.553   5.476   4.202
 4754WAT    HW214262   6.616   5.494   4.352
 4755WAT     OW14263   0.461   3.494   5.917
 4755WAT    HW114264   0.470   3.561   5.843
 4755WAT    HW214265   0.369   3.454   5.914
 4756WAT     OW14266   5.146   3.012   6.029
 4756WAT    HW114267   5.131   2.927   6.078
 4756WAT    HW214268   5.104   3.006   5.938
 4757WAT     OW14269   0.528   6.044   0.209
 4757WAT    HW114270   0.512   6.050   0.308
 4757WAT    HW214271   0.505   6.132   0.167
 4758WAT     OW14272   5.227   6.582   2.233
 4758WAT    HW114273   5.183   6.632   2.159
 4758WAT    HW214274   5.304   6.529   2.196
 4759WAT     OW14275   6.469   4.827   6.055
 4759WAT    HW114276   6.512   4.839   6.144
 4759WAT    HW214277   6.531   4.859   5.983
 4760WAT     OW14278   0.872   2.587   0.755
 4760WAT    HW114279   0.960   2.548   0.728
 4760WAT    HW214280   0.873   2.608   0.853
 4761WAT     OW14281   2.013   2.816   0.280
 4761WAT    HW114282   2.024   2.809   0.180
 4761WAT    HW214283   2.010   2.912   0.306
 4762WAT     OW14284   1.283   4.164   1.891
 4762WAT    HW114285   1.358   4.189   1.830
 4762WAT    HW214286   1.241   4.247   1.929
 4763WAT     OW14287   5.869   3.074   3.359
 4763WAT    HW114288   5.877   3.172   3.341
 4763WAT    HW214289   5.953   3.041   3.401
 4764WAT     OW14290   5.725   4.189   5.209
 4764WAT    HW114291   5.761   4.131   5.136
 4764WAT    HW214292   5.768   4.163   5.296
 4765WAT     OW14293   1.515   4.884   4.442
 4765WAT    HW114294   1.452   4.868   4.517
 4765WAT    HW214295   1.509   4.809   4.376
 4766WAT     OW14296   6.506   4.670   4.374
 4766WAT    HW114297   6.580   4.632   4.319
 4766WAT    HW214298   6.426   4.686   4.316
 4767WAT     OW14299   4.777   6.513   4.723
 4767WAT    HW114300   4.864   6.555   4.747
 4767WAT    HW214301   4.710   6.530   4.796
 4768WAT     OW14302   0.124   5.190   1.810
 4768WAT    HW114303   0.114   5.091   1.817
 4768WAT    HW214304   0.131   5.217   1.714
 4769WAT     OW14305   4.348   4.238   1.269
 4769WAT    HW114306   4.361   4.241   1.169
 4769WAT    HW214307   4.437   4.245   1.314
 4770WAT     OW14308   1.851   3.667   6.578
 4770WAT    HW114309   1.775   3.614   6.541
 4770WAT    HW214310   1.824   3.704   6.667
 4771WAT     OW14311   6.521   1.120   0.814
 4771WAT    HW114312   6.620   1.113   0.798
 4771WAT    HW214313   6.502   1.195   0.877
 4772WAT     OW14314   4.274   6.150   4.823
 4772WAT    HW114315   4.270   6.223   4.891
 4772WAT    HW214316   4.181   6.130   4.790
 4773WAT     OW14317   5.816   0.727   5.626
 4773WAT    HW114318   5.785   0.822   5.636
 4773WAT    HW214319   5.853   0.695   5.712
 4774WAT     OW14320   0.780   5.326   2.307
 4774WAT    HW114321   0.800   5.393   2.378
 4774WAT    HW214322   0.864   5.280   2.279
 4775WAT     OW14323   5.213   1.542   1.964
 4775WAT    HW114324   5.244   1.634   1.940
 4775WAT    HW214325   5.221   1.482   1.884
 4776WAT     OW14326   1.032   0.415   5.271
 4776WAT    HW114327   1.105   0.347   5.270
 4776WAT    HW214328   1.045   0.480   5.196
 4777WAT     OW14329   0.517   3.658   5.703
 4777WAT    HW114330   0.537   3.587   5.635
 4777WAT    HW214331   0.602   3.698   5.735
 4778WAT     OW14332   5.060   3.212   1.401
 4778WAT    HW114333   4.995   3.198   1.327
 4778WAT    HW214334   5.021   3.275   1.469
 4779WAT     OW14335   3.207   5.597   0.067
 4779WAT    HW114336   3.190   5.618   0.163
 4779WAT    HW214337   3.305   5.579   0.053
 4780WAT     OW14338   0.155   4.013   1.681
 4780WAT    HW114339   0.224   4.084   1.665
 4780WAT    HW214340   0.152   3.952   1.602
 4781WAT     OW14341   3.245   4.792   0.888
 4781WAT    HW114342   3.146   4.785   0.905
 4781WAT    HW214343   3.278   4.706   0.850
 4782WAT     OW14344   6.602   0.566   5.566
 4782WAT    HW114345   6.690   0.574   5.519
 4782WAT    HW214346   6.584   0.649   5.618
 4783WAT     OW14347   0.456   0.330   5.693
 4783WAT    HW114348   0.510   0.253   5.659
 4783WAT    HW214349   0.408   0.303   5.776
 4784WAT     OW14350   5.807   5.018   1.099
 4784WAT    HW114351   5.905   5.020   1.117
 4784WAT    HW214352   5.773   4.925   1.112
 4785WAT     OW14353   2.386   0.822   2.679
 4785WAT    HW114354   2.382   0.798   2.776
 4785WAT    HW214355   2.379   0.739   2.623
 4786WAT     OW14356   4.331   3.249   4.720
 4786WAT    HW114357   4.357   3.340   4.754
 4786WAT    HW214358   4.311   3.254   4.622
 4787WAT     OW14359   1.035   3.753   3.231
 4787WAT    HW114360   0.943   3.735   3.267
 4787WAT    HW214361   1.084   3.667   3.218
 4788WAT     OW14362   3.129   1.461   1.894
 4788WAT    HW114363   3.221   1.489   1.867
 4788WAT    HW214364   3.062   1.522   1.853
 4789WAT     OW14365   4.206   3.568   3.648
 4789WAT    HW114366   4.226   3.487   3.593
 4789WAT    HW214367   4.282   3.585   3.711
 4790WAT     OW14368   6.136   3.399   2.963
 4790WAT    HW114369   6.069   3.335   2.928
 4790WAT    HW214370   6.144   3.389   3.063
 4791WAT     OW14371   2.630   2.921   2.526
 4791WAT    HW114372   2.643   2.858   2.449
 4791WAT    HW214373   2.668   3.010   2.502
 4792WAT     OW14374   2.979   0.613   4.842
 4792WAT    HW114375   2.886   0.592   4.814
 4792WAT    HW214376   2.994   0.712   4.835
 4793WAT     OW14377   6.296   3.038   4.178
 4793WAT    HW114378   6.388   3.075   4.165
 4793WAT    HW214379   6.240   3.061   4.098
 4794WAT     OW14380   1.165   5.458   4.637
 4794WAT    HW114381   1.202   5.449   4.544
 4794WAT    HW214382   1.153   5.367   4.677
 4795WAT     OW14383   0.943   0.191   2.224
 4795WAT    HW114384   1.040   0.189   2.249
 4795WAT    HW214385   0.891   0.234   2.298
 4796WAT     OW14386   5.196   0.463   5.170
 4796WAT    HW114387   5.282   0.491   5.128
 4796WAT    HW214388   5.166   0.376   5.129
 4797WAT     OW14389   5.891   0.394   5.105
 4797WAT    HW114390   5.887   0.434   5.013
 4797WAT    HW214391   5.984   0.405   5.141
 4798WAT     OW14392   3.101   5.476   2.060
 4798WAT    HW114393   3.147   5.449   1.976
 4798WAT    HW214394   3.052   5.561   2.046
 4799WAT     OW14395   2.568   1.427   1.322
 4799WAT    HW114396   2.628   1.403   1.397
 4799WAT    HW214397   2.485   1.371   1.327
 4800WAT     OW14398   5.265   3.699   6.344
 4800WAT    HW114399   5.232   3.643   6.268
 4800WAT    HW214400   5.312   3.641   6.410
 4801WAT     OW14401   3.372   4.319   6.190
 4801WAT    HW114402   3.457   4.290   6.235
 4801WAT    HW214403   3.307   4.351   6.259
 4802WAT     OW14404   2.852   4.107   6.562
 4802WAT    HW114405   2.811   4.198   6.566
 4802WAT    HW214406   2.898   4.096   6.473
 4803WAT     OW14407   3.036   2.798   1.772
 4803WAT    HW114408   3.086   2.747   1.842
 4803WAT    HW214409   2.956   2.746   1.744
 4804WAT     OW14410   6.210   0.820   0.603
 4804WAT    HW114411   6.180   0.857   0.515
 4804WAT    HW214412   6.194   0.721   0.605
 4805WAT     OW14413   0.698   3.537   0.229
 4805WAT    HW114414   0.666   3.618   0.180
 4805WAT    HW214415   0.740   3.565   0.316
 4806WAT     OW14416   2.432   5.638   4.721
 4806WAT    HW114417   2.375   5.647   4.803
 4806WAT    HW214418   2.411   5.711   4.658
 4807WAT     OW14419   2.846   1.363   5.508
 4807WAT    HW114420   2.797   1.321   5.584
 4807WAT    HW214421   2.932   1.314   5.492
 4808WAT     OW14422   0.887   6.078   4.672
 4808WAT    HW114423   0.945   6.134   4.732
 4808WAT    HW214424   0.902   5.981   4.693
 4809WAT     OW14425   3.603   0.143   1.749
 4809WAT    HW114426   3.612   0.203   1.829
 4809WAT    HW214427   3.630   0.050   1.774
 4810WAT     OW14428   1.848   3.260   1.457
 4810WAT    HW114429   1.943   3.228   1.468
 4810WAT    HW214430   1.839   3.310   1.372
 4811WAT     OW14431   2.033   6.123   0.373
 4811WAT    HW114432   2.073   6.064   0.303
 4811WAT    HW214433   2.096   6.197   0.395
 4812WAT     OW14434   0.287   0.921   4.921
 4812WAT    HW114435   0.322   0.890   5.010
 4812WAT    HW214436   0.362   0.959   4.867
 4813WAT     OW14437   2.317   6.490   0.723
 4813WAT    HW114438   2.327   6.577   0.771
 4813WAT    HW214439   2.229   6.449   0.748
 4814WAT     OW14440   1.844   4.769   2.844
 4814WAT    HW114441   1.832   4.845   2.908
 4814WAT    HW214442   1.939   4.740   2.844
 4815WAT     OW14443   6.148   1.707   0.434
 4815WAT    HW114444   6.197   1.639   0.380
 4815WAT    HW214445   6.094   1.766   0.374
 4816WAT     OW14446   6.083   3.008   1.039
 4816WAT    HW114447   6.166   2.955   1.056
 4816WAT    HW214448   6.049   3.045   1.125
 4817WAT     OW14449   1.767   3.516   2.936
 4817WAT    HW114450   1.669   3.500   2.941
 4817WAT    HW214451   1.799   3.552   3.024
 4818WAT     OW14452   1.883   6.243   0.647
 4818WAT    HW114453   1.911   6.148   0.632
 4818WAT    HW214454   1.785   6.247   0.663
 4819WAT     OW14455   3.447   2.668   4.196
 4819WAT    HW114456   3.467   2.578   4.236
 4819WAT    HW214457   3.506   2.737   4.238
 4820WAT     OW14458   3.884   3.018   5.807
 4820WAT    HW114459   3.864   3.000   5.903
 4820WAT    HW214460   3.982   3.010   5.791
 4821WAT     OW14461   6.670   4.307   4.333
 4821WAT    HW114462   6.657   4.268   4.424
 4821WAT    HW214463   6.591   4.285   4.276
 4822WAT     OW14464   3.612   5.862   2.404
 4822WAT    HW114465   3.569   5.772   2.394
 4822WAT    HW214466   3.552   5.932   2.365
 4823WAT     OW14467   5.854   5.223   4.387
 4823WAT    HW114468   5.913   5.284   4.439
 4823WAT    HW214469   5.881   5.226   4.290
 4824WAT     OW14470   6.250   6.361   1.532
 4824WAT    HW114471   6.298   6.422   1.595
 4824WAT    HW214472   6.197   6.294   1.585
 4825WAT     OW14473   6.509   0.991   4.899
 4825WAT    HW114474   6.517   0.894   4.922
 4825WAT    HW214475   6.597   1.036   4.913
 4826WAT     OW14476   5.242   5.090   4.538
 4826WAT    HW114477   5.305   5.149   4.589
 4826WAT    HW214478   5.280   4.999   4.529
 4827WAT     OW14479   5.193   6.021   0.935
 4827WAT    HW114480   5.107   5.971   0.924
 4827WAT    HW214481   5.240   5.987   1.017
 4828WAT     OW14482   5.000   0.829   2.662
 4828WAT    HW114483   5.022   0.777   2.579
 4828WAT    HW214484   4.917   0.792   2.703
 4829WAT     OW14485   1.525   3.625   0.569
 4829WAT    HW114486   1.586   3.592   0.641
 4829WAT    HW214487   1.441   3.659   0.610
 4830WAT     OW14488   6.222   2.624   5.123
 4830WAT    HW114489   6.229   2.525   5.128
 4830WAT    HW214490   6.125   2.651   5.123
 4831WAT     OW14491   1.624   0.951   0.363
 4831WAT    HW114492   1.603   0.907   0.275
 4831WAT    HW214493   1.628   1.050   0.349
 4832WAT     OW14494   5.689   4.297   3.163
 4832WAT    HW114495   5.612   4.234   3.150
 4832WAT    HW214496   5.771   4.258   3.121
 4833WAT     OW14497   1.275   3.277   3.814
 4833WAT    HW114498   1.265   3.296   3.716
 4833WAT    HW214499   1.219   3.198   3.839
 4834WAT     OW14500   6.427   3.396   0.438
 4834WAT    HW114501   6.447   3.388   0.536
 4834WAT    HW214502   6.496   3.452   0.394
 4835WAT     OW14503   0.940   4.686   6.194
 4835WAT    HW114504   0.958   4.628   6.114
 4835WAT    HW214505   0.942   4.782   6.166
 4836WAT     OW14506   5.519   3.273   0.102
 4836WAT    HW114507   5.581   3.318   0.038
 4836WAT    HW214508   5.450   3.338   0.134
 4837WAT     OW14509   6.215   0.449   1.057
 4837WAT    HW114510   6.306   0.474   1.088
 4837WAT    HW214511   6.194   0.356   1.087
 4838WAT     OW14512   4.153   0.335   0.121
 4838WAT    HW114513   4.069   0.316   0.070
 4838WAT    HW214514   4.133   0.336   0.219
 4839WAT     OW14515   0.331   4.890   1.642
 4839WAT    HW114516   0.368   4.797   1.646
 4839WAT    HW214517   0.392   4.953   1.690
 4840WAT     OW14518   6.344   2.395   5.407
 4840WAT    HW114519   6.422   2.413   5.468
 4840WAT    HW214520   6.307   2.304   5.425
 4841WAT     OW14521   4.535   6.597   4.262
 4841WAT    HW114522   4.584   6.615   4.348
 4841WAT    HW214523   4.547   6.501   4.237
 4842WAT     OW14524   4.776   5.556   2.496
 4842WAT    HW114525   4.837   5.477   2.481
 4842WAT    HW214526   4.722   5.573   2.413
 4843WAT     OW14527   0.112   3.348   5.153
 4843WAT    HW114528   0.055   3.332   5.073
 4843WAT    HW214529   0.120   3.446   5.170
 4844WAT     OW14530   3.035   2.888   1.280
 4844WAT    HW114531   3.067   2.859   1.190
 4844WAT    HW214532   3.095   2.961   1.314
 4845WAT     OW14533   0.823   2.824   4.096
 4845WAT    HW114534   0.857   2.750   4.038
 4845WAT    HW214535   0.803   2.904   4.039
 4846WAT     OW14536   0.230   3.667   2.018
 4846WAT    HW114537   0.208   3.764   2.019
 4846WAT    HW214538   0.175   3.619   2.086
 4847WAT     OW14539   5.990   1.860   5.865
 4847WAT    HW114540   5.975   1.848   5.963
 4847WAT    HW214541   6.020   1.774   5.824
 4848WAT     OW14542   1.071   3.540   3.642
 4848WAT    HW114543   1.127   3.459   3.627
 4848WAT    HW214544   1.047   3.547   3.739
 4849WAT     OW14545   0.097   3.801   5.411
 4849WAT    HW114546   0.079   3.896   5.385
 4849WAT    HW214547   0.184   3.796   5.461
 4850WAT     OW14548   1.262   6.636   5.960
 4850WAT    HW114549   1.197   6.562   5.978
 4850WAT    HW214550   1.277   6.688   6.043
 4851WAT     OW14551   5.135   4.773   2.396
 4851WAT    HW114552   5.102   4.753   2.303
 4851WAT    HW214553   5.138   4.688   2.449
 4852WAT     OW14554   2.109   1.701   2.094
 4852WAT    HW114555   2.122   1.672   2.189
 4852WAT    HW214556   2.019   1.742   2.084
 4853WAT     OW14557   4.663   5.531   5.018
 4853WAT    HW114558   4.738   5.596   5.016
 4853WAT    HW214559   4.614   5.533   4.931
 4854WAT     OW14560   2.937   2.526   3.461
 4854WAT    HW114561   2.968   2.620   3.475
 4854WAT    HW214562   2.958   2.472   3.542
 4855WAT     OW14563   4.258   1.687   0.002
 4855WAT    HW114564   4.259   1.638  -0.085
 4855WAT    HW214565   4.210   1.774  -0.009
 4856WAT     OW14566   0.120   1.314   1.395
 4856WAT    HW114567   0.194   1.258   1.431
 4856WAT    HW214568   0.047   1.322   1.463
 4857WAT     OW14569   3.500   3.646   1.283
 4857WAT    HW114570   3.565   3.646   1.359
 4857WAT    HW214571   3.514   3.728   1.228
 4858WAT     OW14572   6.235   5.629   5.884
 4858WAT    HW114573   6.279   5.576   5.812
 4858WAT    HW214574   6.256   5.587   5.973
 4859WAT     OW14575   6.611   5.083   2.786
 4859WAT    HW114576   6.645   5.093   2.693
 4859WAT    HW214577   6.679   5.034   2.841
 4860WAT     OW14578   2.166   5.232   4.068
 4860WAT    HW114579   2.096   5.222   4.139
 4860WAT    HW214580   2.230   5.156   4.073
 4861WAT     OW14581   6.551   1.887   1.264
 4861WAT    HW114582   6.501   1.831   1.197
 4861WAT    HW214583   6.618   1.944   1.216
 4862WAT     OW14584   1.418   0.577   5.994
 4862WAT    HW114585   1.399   0.486   6.031
 4862WAT    HW214586   1.359   0.644   6.039
 4863WAT     OW14587   2.695   5.751   5.150
 4863WAT    HW114588   2.615   5.714   5.196
 4863WAT    HW214589   2.732   5.683   5.087
 4864WAT     OW14590   5.452   6.398   0.824
 4864WAT    HW114591   5.419   6.466   0.758
 4864WAT    HW214592   5.407   6.412   0.912
 4865WAT     OW14593   6.479   3.496   4.386
 4865WAT    HW114594   6.497   3.451   4.474
 4865WAT    HW214595   6.381   3.502   4.371
 4866WAT     OW14596   6.263   0.662   2.646
 4866WAT    HW114597   6.241   0.598   2.719
 4866WAT    HW214598   6.267   0.614   2.559
 4867WAT     OW14599   5.922   2.494   1.142
 4867WAT    HW114600   5.920   2.519   1.239
 4867WAT    HW214601   5.860   2.418   1.126
 4868WAT     OW14602   0.834   4.296   4.993
 4868WAT    HW114603   0.796   4.384   5.023
 4868WAT    HW214604   0.772   4.222   5.018
 4869WAT     OW14605   5.314   5.934   1.169
 4869WAT    HW114606   5.283   6.002   1.235
 4869WAT    HW214607   5.410   5.912   1.187
 4870WAT     OW14608   4.771   6.400   3.569
 4870WAT    HW114609   4.805   6.306   3.568
 4870WAT    HW214610   4.839   6.460   3.529
 4871WAT     OW14611   6.531   2.843   3.783
 4871WAT    HW114612   6.504   2.810   3.693
 4871WAT    HW214613   6.540   2.766   3.846
 4872WAT     OW14614   6.672   3.279   4.916
 4872WAT    HW114615   6.691   3.364   4.867
 4872WAT    HW214616   6.603   3.226   4.866
 4873WAT     OW14617   1.194   1.876   1.650
 4873WAT    HW114618   1.103   1.918   1.649
 4873WAT    HW214619   1.260   1.942   1.685
 4874WAT     OW14620   4.797   4.346   2.823
 4874WAT    HW114621   4.743   4.262   2.828
 4874WAT    HW214622   4.743   4.418   2.781
 4875WAT     OW14623   4.678   2.209   5.790
 4875WAT    HW114624   4.641   2.138   5.850
 4875WAT    HW214625   4.690   2.294   5.842
 4876WAT     OW14626   1.527   1.147   2.239
 4876WAT    HW114627   1.482   1.236   2.237
 4876WAT    HW214628   1.465   1.077   2.205
 4877WAT     OW14629   3.042   3.489   1.088
 4877WAT    HW114630   2.950   3.476   1.126
 4877WAT    HW214631   3.078   3.578   1.117
 4878WAT     OW14632   3.544   3.976   2.763
 4878WAT    HW114633   3.605   3.979   2.843
 4878WAT    HW214634   3.538   3.882   2.730
 4879WAT     OW14635   4.864   3.820   3.189
 4879WAT    HW114636   4.824   3.849   3.102
 4879WAT    HW214637   4.961   3.847   3.191
 4880WAT     OW14638   5.619   4.104   1.937
 4880WAT    HW114639   5.532   4.115   1.986
 4880WAT    HW214640   5.694   4.136   1.995
 4881WAT     OW14641   3.827   2.715   1.063
 4881WAT    HW114642   3.783   2.629   1.036
 4881WAT    HW214643   3.790   2.790   1.009
 4882WAT     OW14644   5.036   6.223   3.308
 4882WAT    HW114645   5.124   6.248   3.346
 4882WAT    HW214646   5.042   6.133   3.264
 4883WAT     OW14647   5.996   1.999   2.899
 4883WAT    HW114648   6.087   2.037   2.889
 4883WAT    HW214649   5.959   2.022   2.989
 4884WAT     OW14650   1.073   1.345   1.089
 4884WAT    HW114651   1.036   1.276   1.027
 4884WAT    HW214652   1.139   1.303   1.150
 4885WAT     OW14653   6.354   5.080   1.112
 4885WAT    HW114654   6.366   5.178   1.095
 4885WAT    HW214655   6.384   5.028   1.032
 4886WAT     OW14656   1.333   4.611   6.265
 4886WAT    HW114657   1.360   4.534   6.207
 4886WAT    HW214658   1.253   4.585   6.319
 4887WAT     OW14659   1.464   5.808   1.069
 4887WAT    HW114660   1.441   5.808   0.971
 4887WAT    HW214661   1.401   5.869   1.117
 4888WAT     OW14662   1.281   2.006   6.145
 4888WAT    HW114663   1.205   1.976   6.203
 4888WAT    HW214664   1.254   2.000   6.049
 4889WAT     OW14665   5.152   4.015   4.053
 4889WAT    HW114666   5.061   3.986   4.024
 4889WAT    HW214667   5.163   4.113   4.034
 4890WAT     OW14668   0.804   2.605   3.693
 4890WAT    HW114669   0.739   2.674   3.663
 4890WAT    HW214670   0.755   2.523   3.724
 4891WAT     OW14671   4.827   6.486   5.244
 4891WAT    HW114672   4.751   6.448   5.192
 4891WAT    HW214673   4.824   6.450   5.338
 4892WAT     OW14674   5.177   1.263   5.807
 4892WAT    HW114675   5.232   1.279   5.889
 4892WAT    HW214676   5.083   1.240   5.833
 4893WAT     OW14677   2.865   5.515   3.278
 4893WAT    HW114678   2.829   5.579   3.210
 4893WAT    HW214679   2.812   5.524   3.363
 4894WAT     OW14680   2.887   4.111   1.201
 4894WAT    HW114681   2.803   4.156   1.232
 4894WAT    HW214682   2.873   4.012   1.201
 4895WAT     OW14683   1.090   1.081   4.773
 4895WAT    HW114684   1.062   1.089   4.869
 4895WAT    HW214685   1.016   1.040   4.720
 4896WAT     OW14686   4.289   1.527   6.203
 4896WAT    HW114687   4.207   1.479   6.172
 4896WAT    HW214688   4.364   1.507   6.139
 4897WAT     OW14689   5.984   4.946   0.762
 4897WAT    HW114690   5.928   4.864   0.752
 4897WAT    HW214691   5.927   5.022   0.792
 4898WAT     OW14692   1.387   4.718   2.176
 4898WAT    HW114693   1.379   4.715   2.076
 4898WAT    HW214694   1.323   4.654   2.217
 4899WAT     OW14695   0.354   4.978   5.740
 4899WAT    HW114696   0.300   5.061   5.749
 4899WAT    HW214697   0.451   5.001   5.742
 4900WAT     OW14698   4.316   1.186   3.261
 4900WAT    HW114699   4.259   1.124   3.314
 4900WAT    HW214700   4.267   1.212   3.177
 4901WAT     OW14701   5.359   2.103   6.122
 4901WAT    HW114702   5.281   2.042   6.113
 4901WAT    HW214703   5.438   2.065   6.073
 4902WAT     OW14704   5.752   5.462   4.064
 4902WAT    HW114705   5.753   5.521   4.144
 4902WAT    HW214706   5.756   5.518   3.981
 4903WAT     OW14707   5.754   0.363   2.769
 4903WAT    HW114708   5.799   0.423   2.702
 4903WAT    HW214709   5.809   0.281   2.782
 4904WAT     OW14710   0.908   1.929   5.857
 4904WAT    HW114711   0.917   1.875   5.941
 4904WAT    HW214712   0.829   1.897   5.805
 4905WAT     OW14713   1.633   1.627   0.373
 4905WAT    HW114714   1.671   1.558   0.312
 4905WAT    HW214715   1.700   1.701   0.385
 4906WAT     OW14716   6.011   6.635   5.636
 4906WAT    HW114717   6.101   6.623   5.593
 4906WAT    HW214718   5.959   6.703   5.584
 4907WAT     OW14719   6.315   5.949   3.869
 4907WAT    HW114720   6.255   6.001   3.929
 4907WAT    HW214721   6.290   5.966   3.774
 4908WAT     OW14722   6.221   0.183   1.746
 4908WAT    HW114723   6.285   0.134   1.805
 4908WAT    HW214724   6.257   0.274   1.726
 4909WAT     OW14725   5.596   0.927   4.694
 4909WAT    HW114726   5.693   0.952   4.703
 4909WAT    HW214727   5.541   0.986   4.752
 4910WAT     OW14728   4.717   6.040   3.268
 4910WAT    HW114729   4.817   6.049   3.265
 4910WAT    HW214730   4.688   5.974   3.200
 4911WAT     OW14731   2.302   2.288   0.013
 4911WAT    HW114732   2.273   2.337  -0.070
 4911WAT    HW214733   2.241   2.312   0.088
 4912WAT     OW14734   0.895   2.488   1.417
 4912WAT    HW114735   0.922   2.467   1.323
 4912WAT    HW214736   0.822   2.556   1.416
 4913WAT     OW14737   1.417   5.794   0.790
 4913WAT    HW114738   1.436   5.875   0.735
 4913WAT    HW214739   1.446   5.712   0.741
 4914WAT     OW14740   0.642   5.897   6.595
 4914WAT    HW114741   0.593   5.979   6.565
 4914WAT    HW214742   0.580   5.818   6.594
 4915WAT     OW14743   3.670   0.325   3.494
 4915WAT    HW114744   3.736   0.294   3.425
 4915WAT    HW214745   3.649   0.422   3.477
 4916WAT     OW14746   3.174   2.534   6.151
 4916WAT    HW114747   3.098   2.598   6.155
 4916WAT    HW214748   3.144   2.448   6.110
 4917WAT     OW14749   3.550   2.933   2.141
 4917WAT    HW114750   3.591   2.842   2.131
 4917WAT    HW214751   3.561   2.964   2.235
 4918WAT     OW14752   4.490   6.369   0.339
 4918WAT    HW114753   4.524   6.280   0.372
 4918WAT    HW214754   4.565   6.435   0.339
 4919WAT     OW14755   5.350   5.649   4.229
 4919WAT    HW114756   5.412   5.719   4.194
 4919WAT    HW214757   5.326   5.586   4.155
 4920WAT     OW14758   4.738   2.493   2.240
 4920WAT    HW114759   4.823   2.481   2.291
 4920WAT    HW214760   4.737   2.584   2.197
 4921WAT     OW14761   0.428   3.522   1.247
 4921WAT    HW114762   0.484   3.440   1.254
 4921WAT    HW214763   0.386   3.527   1.156
 4922WAT     OW14764   4.348   2.582   4.168
 4922WAT    HW114765   4.406   2.636   4.107
 4922WAT    HW214766   4.381   2.591   4.262
 4923WAT     OW14767   3.937   6.202   3.461
 4923WAT    HW114768   3.857   6.172   3.409
 4923WAT    HW214769   3.910   6.273   3.526
 4924WAT     OW14770   3.280   4.008   4.958
 4924WAT    HW114771   3.210   4.077   4.941
 4924WAT    HW214772   3.351   4.014   4.888
 4925WAT     OW14773   4.281   4.736   2.555
 4925WAT    HW114774   4.216   4.804   2.521
 4925WAT    HW214775   4.257   4.712   2.650
 4926WAT     OW14776   2.199   2.832   3.773
 4926WAT    HW114777   2.238   2.842   3.864
 4926WAT    HW214778   2.267   2.795   3.710
 4927WAT     OW14779   5.499   1.508   0.095
 4927WAT    HW114780   5.460   1.575   0.158
 4927WAT    HW214781   5.591   1.482   0.127
 4928WAT     OW14782   3.718   1.972   5.299
 4928WAT    HW114783   3.746   2.052   5.352
 4928WAT    HW214784   3.731   1.991   5.201
 4929WAT     OW14785   4.312   0.606   5.870
 4929WAT    HW114786   4.233   0.613   5.809
 4929WAT    HW214787   4.381   0.548   5.827
 4930WAT     OW14788   6.458   3.654   6.587
 4930WAT    HW114789   6.382   3.611   6.539
 4930WAT    HW214790   6.543   3.606   6.565
 4931WAT     OW14791   3.432   0.043   1.155
 4931WAT    HW114792   3.404   0.103   1.230
 4931WAT    HW214793   3.427   0.093   1.068
 4932WAT     OW14794   1.185   4.869   0.605
 4932WAT    HW114795   1.284   4.862   0.613
 4932WAT    HW214796   1.143   4.781   0.629
 4933WAT     OW14797   6.106   1.679   1.900
 4933WAT    HW114798   6.096   1.744   1.825
 4933WAT    HW214799   6.171   1.608   1.874
 4934WAT     OW14800   1.961   2.014   3.578
 4934WAT    HW114801   1.931   2.090   3.636
 4934WAT    HW214802   1.990   1.937   3.635
 4935WAT     OW14803   4.638   3.052   3.553
 4935WAT    HW114804   4.701   2.975   3.557
 4935WAT    HW214805   4.689   3.137   3.570
 4936WAT     OW14806   3.732   3.753   3.722
 4936WAT    HW114807   3.813   3.725   3.671
 4936WAT    HW214808   3.760   3.786   3.813
 4937WAT     OW14809   1.378   4.017   5.046
 4937WAT    HW114810   1.439   4.019   5.125
 4937WAT    HW214811   1.378   4.107   5.002
 4938WAT     OW14812   1.864   2.028   4.265
 4938WAT    HW114813   1.860   1.932   4.240
 4938WAT    HW214814   1.879   2.036   4.364
 4939WAT     OW14815   2.958   1.079   5.945
 4939WAT    HW114816   2.962   1.060   5.847
 4939WAT    HW214817   2.912   1.003   5.992
 4940WAT     OW14818   2.532   1.132   3.878
 4940WAT    HW114819   2.628   1.105   3.877
 4940WAT    HW214820   2.525   1.229   3.852
 4941WAT     OW14821   1.311   5.770   4.006
 4941WAT    HW114822   1.361   5.685   4.022
 4941WAT    HW214823   1.214   5.757   4.028
 4942WAT     OW14824   1.947   6.234   6.359
 4942WAT    HW114825   2.012   6.161   6.381
 4942WAT    HW214826   1.862   6.219   6.409
 4943WAT     OW14827   0.854   4.023   4.157
 4943WAT    HW114828   0.882   4.100   4.215
 4943WAT    HW214829   0.771   3.982   4.195
 4944WAT     OW14830   4.886   0.751   1.094
 4944WAT    HW114831   4.985   0.752   1.109
 4944WAT    HW214832   4.864   0.804   1.013
 4945WAT     OW14833   5.703   1.081   0.270
 4945WAT    HW114834   5.718   1.059   0.174
 4945WAT    HW214835   5.764   1.026   0.327
 4946WAT     OW14836   5.772   1.829   6.570
 4946WAT    HW114837   5.695   1.766   6.561
 4946WAT    HW214838   5.742   1.922   6.550
 4947WAT     OW14839   5.806   2.069   5.272
 4947WAT    HW114840   5.770   2.000   5.335
 4947WAT    HW214841   5.869   2.025   5.208
 4948WAT     OW14842   0.377   1.567   6.276
 4948WAT    HW114843   0.399   1.648   6.223
 4948WAT    HW214844   0.298   1.585   6.335
 4949WAT     OW14845   3.678   1.075   3.996
 4949WAT    HW114846   3.702   1.164   3.958
 4949WAT    HW214847   3.681   1.079   4.096
 4950WAT     OW14848   4.444   2.173   3.122
 4950WAT    HW114849   4.390   2.165   3.038
 4950WAT    HW214850   4.411   2.108   3.190
 4951WAT     OW14851   3.154   6.021   5.458
 4951WAT    HW114852   3.068   6.000   5.503
 4951WAT    HW214853   3.170   5.957   5.383
 4952WAT     OW14854   0.480   5.933   2.813
 4952WAT    HW114855   0.460   5.854   2.754
 4952WAT    HW214856   0.507   5.901   2.904
 4953WAT     OW14857   5.216   3.484   4.421
 4953WAT    HW114858   5.220   3.531   4.333
 4953WAT    HW214859   5.128   3.436   4.428
 4954WAT     OW14860   6.445   4.934   5.344
 4954WAT    HW114861   6.534   4.921   5.389
 4954WAT    HW214862   6.388   4.993   5.401
 4955WAT     OW14863   3.811   6.643   1.341
 4955WAT    HW114864   3.900   6.609   1.310
 4955WAT    HW214865   3.739   6.604   1.284
 4956WAT     OW14866   5.215   0.521   3.351
 4956WAT    HW114867   5.120   0.506   3.377
 4956WAT    HW214868   5.248   0.606   3.392
 4957WAT     OW14869   2.329   5.104   5.707
 4957WAT    HW114870   2.423   5.120   5.737
 4957WAT    HW214871   2.278   5.190   5.709
 4958WAT     OW14872   2.298   0.498   1.654
 4958WAT    HW114873   2.211   0.449   1.648
 4958WAT    HW214874   2.318   0.541   1.566
 4959WAT     OW14875   2.681   4.488   6.087
 4959WAT    HW114876   2.692   4.506   5.990
 4959WAT    HW214877   2.703   4.570   6.139
 4960WAT     OW14878   2.115   2.347   3.790
 4960WAT    HW114879   2.037   2.296   3.753
 4960WAT    HW214880   2.156   2.403   3.718
 4961WAT     OW14881   1.369   1.784   5.285
 4961WAT    HW114882   1.445   1.748   5.339
 4961WAT    HW214883   1.311   1.841   5.343
 4962WAT     OW14884   1.236   5.859   0.136
 4962WAT    HW114885   1.276   5.937   0.186
 4962WAT    HW214886   1.165   5.817   0.193
 4963WAT     OW14887   3.674   1.405   0.680
 4963WAT    HW114888   3.757   1.423   0.733
 4963WAT    HW214889   3.630   1.322   0.715
 4964WAT     OW14890   5.874   0.622   5.386
 4964WAT    HW114891   5.852   0.674   5.468
 4964WAT    HW214892   5.800   0.629   5.320
 4965WAT     OW14893   0.399   4.690   2.006
 4965WAT    HW114894   0.304   4.674   1.982
 4965WAT    HW214895   0.444   4.604   2.028
 4966WAT     OW14896   0.930   6.427   0.428
 4966WAT    HW114897   1.029   6.439   0.436
 4966WAT    HW214898   0.885   6.511   0.456
 4967WAT     OW14899   1.998   5.988   1.698
 4967WAT    HW114900   2.020   5.909   1.755
 4967WAT    HW214901   2.071   6.056   1.704
 4968WAT     OW14902   4.897   2.985   0.013
 4968WAT    HW114903   4.810   2.952  -0.022
 4968WAT    HW214904   4.888   3.080   0.041
 4969WAT     OW14905   0.306   2.401   5.681
 4969WAT    HW114906   0.398   2.377   5.650
 4969WAT    HW214907   0.292   2.366   5.773
 4970WAT     OW14908   3.567   4.461   3.917
 4970WAT    HW114909   3.633   4.512   3.972
 4970WAT    HW214910   3.477   4.468   3.959
 4971WAT     OW14911   0.044   0.807   1.077
 4971WAT    HW114912  -0.053   0.784   1.081
 4971WAT    HW214913   0.074   0.810   0.982
 4972WAT     OW14914   3.427   4.713   2.475
 4972WAT    HW114915   3.516   4.713   2.520
 4972WAT    HW214916   3.440   4.727   2.376
 4973WAT     OW14917   2.747   1.832   6.239
 4973WAT    HW114918   2.735   1.823   6.338
 4973WAT    HW214919   2.659   1.817   6.193
 4974WAT     OW14920   5.410   6.106   0.782
 4974WAT    HW114921   5.330   6.077   0.834
 4974WAT    HW214922   5.420   6.205   0.787
 4975WAT     OW14923   6.193   3.538   2.543
 4975WAT    HW114924   6.109   3.579   2.578
 4975WAT    HW214925   6.245   3.498   2.619
 4976WAT     OW14926   5.463   5.654   3.855
 4976WAT    HW114927   5.405   5.733   3.838
 4976WAT    HW214928   5.411   5.586   3.907
 4977WAT     OW14929   1.048   4.338   3.923
 4977WAT    HW114930   0.975   4.352   3.990
 4977WAT    HW214931   1.048   4.242   3.894
 4978WAT     OW14932   4.037   3.949   1.811
 4978WAT    HW114933   4.085   3.953   1.723
 4978WAT    HW214934   3.981   4.031   1.822
 4979WAT     OW14935   5.446   5.282   6.199
 4979WAT    HW114936   5.531   5.315   6.159
 4979WAT    HW214937   5.407   5.352   6.258
 4980WAT     OW14938   0.510   3.850   4.688
 4980WAT    HW114939   0.415   3.882   4.682
 4980WAT    HW214940   0.518   3.761   4.644
 4981WAT     OW14941   2.857   0.467   1.243
 4981WAT    HW114942   2.787   0.523   1.286
 4981WAT    HW214943   2.897   0.517   1.166
 4982WAT     OW14944   1.715   3.509   2.279
 4982WAT    HW114945   1.668   3.472   2.199
 4982WAT    HW214946   1.649   3.558   2.336
 4983WAT     OW14947   4.718   2.953   6.361
 4983WAT    HW114948   4.678   2.958   6.452
 4983WAT    HW214949   4.687   3.030   6.306
 4984WAT     OW14950   4.288   3.728   2.348
 4984WAT    HW114951   4.326   3.682   2.428
 4984WAT    HW214952   4.295   3.668   2.268
 4985WAT     OW14953   5.236   6.133   2.637
 4985WAT    HW114954   5.269   6.068   2.569
 4985WAT    HW214955   5.280   6.222   2.622
 4986WAT     OW14956   4.990   4.045   5.436
 4986WAT    HW114957   5.078   4.089   5.419
 4986WAT    HW214958   5.000   3.979   5.510
 4987WAT     OW14959   1.681   3.053   3.847
 4987WAT    HW114960   1.582   3.039   3.853
 4987WAT    HW214961   1.702   3.116   3.773
 4988WAT     OW14962   1.011   4.741   2.140
 4988WAT    HW114963   1.070   4.806   2.092
 4988WAT    HW214964   0.916   4.771   2.133
 4989WAT     OW14965   0.496   5.773   3.491
 4989WAT    HW114966   0.478   5.864   3.528
 4989WAT    HW214967   0.421   5.747   3.430
 4990WAT     OW14968   2.534   4.518   0.477
 4990WAT    HW114969   2.503   4.439   0.530
 4990WAT    HW214970   2.462   4.588   0.479
 4991WAT     OW14971   5.230   4.778   0.731
 4991WAT    HW114972   5.304   4.711   0.726
 4991WAT    HW214973   5.172   4.771   0.650
 4992WAT     OW14974   2.953   3.076   5.198
 4992WAT    HW114975   3.032   3.100   5.141
 4992WAT    HW214976   2.985   3.041   5.286
 4993WAT     OW14977   0.456   5.699   2.677
 4993WAT    HW114978   0.399   5.648   2.741
 4993WAT    HW214979   0.549   5.662   2.679
 4994WAT     OW14980   4.034   3.386   0.223
 4994WAT    HW114981   3.997   3.377   0.315
 4994WAT    HW214982   4.061   3.296   0.188
 4995WAT     OW14983   6.052   6.602   0.023
 4995WAT    HW114984   6.124   6.542   0.057
 4995WAT    HW214985   6.012   6.563  -0.060
 4996WAT     OW14986   5.841   6.315   2.660
 4996WAT    HW114987   5.841   6.392   2.724
 4996WAT    HW214988   5.935   6.293   2.634
 4997WAT     OW14989   5.656   1.318   1.066
 4997WAT    HW114990   5.566   1.293   1.102
 4997WAT    HW214991   5.655   1.414   1.037
 4998WAT     OW14992   3.024   4.249   2.063
 4998WAT    HW114993   3.101   4.259   2.001
 4998WAT    HW214994   2.941   4.226   2.011
 4999WAT     OW14995   4.894   4.900   6.588
 4999WAT    HW114996   4.827   4.973   6.578
 4999WAT    HW214997   4.874   4.846   6.669
 5000WAT     OW14998   5.916   6.541   2.347
 5000WAT    HW114999   5.870   6.601   2.283
 5000WAT    HW215000   6.005   6.514   2.309
 5001WAT     OW15001   4.714   6.287   6.573
 5001WAT    HW115002   4.667   6.375   6.586
 5001WAT    HW215003   4.720   6.267   6.475
 5002WAT     OW15004   0.483   6.519   5.614
 5002WAT    HW115005   0.422   6.597   5.625
 5002WAT    HW215006   0.429   6.437   5.597
 5003WAT     OW15007   4.245   6.228   4.400
 5003WAT    HW115008   4.298   6.265   4.475
 5003WAT    HW215009   4.253   6.128   4.398
 5004WAT     OW15010   4.635   1.217   0.311
 5004WAT    HW115011   4.697   1.195   0.387
 5004WAT    HW215012   4.563   1.147   0.305
 5005WAT     OW15013   1.856   0.219   3.216
 5005WAT    HW115014   1.867   0.120   3.225
 5005WAT    HW215015   1.862   0.244   3.120
 5006WAT     OW15016   1.715   2.962   2.370
 5006WAT    HW115017   1.664   3.044   2.343
 5006WAT    HW215018   1.799   2.989   2.417
 5007WAT     OW15019   1.288   3.350   0.001
 5007WAT    HW115020   1.264   3.363  -0.096
 5007WAT    HW215021   1.212   3.305   0.048
 5008WAT     OW15022   6.516   2.363   5.191
 5008WAT    HW115023   6.474   2.336   5.105
 5008WAT    HW215024   6.445   2.384   5.258
 5009WAT     OW15025   4.091   5.225   5.821
 5009WAT    HW115026   4.069   5.128   5.826
 5009WAT    HW215027   4.183   5.237   5.784
 5010WAT     OW15028   4.816   1.359   3.593
 5010WAT    HW115029   4.731   1.411   3.588
 5010WAT    HW215030   4.894   1.421   3.583
 5011WAT     OW15031   4.021   1.800   2.883
 5011WAT    HW115032   4.016   1.886   2.933
 5011WAT    HW215033   3.978   1.728   2.937
 5012WAT     OW15034   5.990   0.300   2.467
 5012WAT    HW115035   6.017   0.320   2.373
 5012WAT    HW215036   5.957   0.383   2.511
 5013WAT     OW15037   1.481   3.307   5.220
 5013WAT    HW115038   1.410   3.360   5.174
 5013WAT    HW215039   1.565   3.360   5.226
 5014WAT     OW15040   1.026   2.391   4.020
 5014WAT    HW115041   1.041   2.316   3.956
 5014WAT    HW215042   1.106   2.400   4.080
 5015WAT     OW15043   0.790   4.889   0.783
 5015WAT    HW115044   0.882   4.926   0.800
 5015WAT    HW215045   0.795   4.821   0.710
 5016WAT     OW15046   5.612   3.140   0.997
 5016WAT    HW115047   5.641   3.201   0.924
 5016WAT    HW215048   5.687   3.078   1.020
 5017WAT     OW15049   6.225   4.645   5.635
 5017WAT    HW115050   6.242   4.560   5.685
 5017WAT    HW215051   6.271   4.721   5.682
 5018WAT     OW15052   1.704   5.568   4.329
 5018WAT    HW115053   1.756   5.654   4.331
 5018WAT    HW215054   1.756   5.497   4.378
 5019WAT     OW15055   0.456   0.305   0.666
 5019WAT    HW115056   0.548   0.318   0.703
 5019WAT    HW215057   0.462   0.283   0.569
 5020WAT     OW15058   4.513   5.083   5.566
 5020WAT    HW115059   4.470   5.100   5.477
 5020WAT    HW215060   4.515   4.984   5.583
 5021WAT     OW15061   4.170   0.777   1.701
 5021WAT    HW115062   4.267   0.769   1.680
 5021WAT    HW215063   4.129   0.686   1.702
 5022WAT     OW15064   4.573   5.344   6.424
 5022WAT    HW115065   4.622   5.373   6.506
 5022WAT    HW215066   4.639   5.310   6.357
 5023WAT     OW15067   0.462   2.119   5.185
 5023WAT    HW115068   0.496   2.116   5.091
 5023WAT    HW215069   0.530   2.078   5.246
 5024WAT     OW15070   5.467   0.511   3.721
 5024WAT    HW115071   5.368   0.505   3.712
 5024WAT    HW215072   5.506   0.549   3.637
 5025WAT     OW15073   3.052   3.246   3.356
 5025WAT    HW115074   3.012   3.287   3.438
 5025WAT    HW215075   2.979   3.223   3.291
 5026WAT     OW15076   0.813   6.229   0.572
 5026WAT    HW115077   0.849   6.139   0.547
 5026WAT    HW215078   0.857   6.299   0.516
 5027WAT     OW15079   6.113   2.059   6.447
 5027WAT    HW115080   6.045   2.016   6.387
 5027WAT    HW215081   6.155   1.989   6.505
 5028WAT     OW15082   2.709   0.218   5.738
 5028WAT    HW115083   2.730   0.254   5.647
 5028WAT    HW215084   2.648   0.282   5.785
 5029WAT     OW15085   0.099   1.765   3.653
 5029WAT    HW115086   0.061   1.675   3.677
 5029WAT    HW215087   0.097   1.776   3.554
 5030WAT     OW15088   5.635   5.441   2.590
 5030WAT    HW115089   5.687   5.375   2.535
 5030WAT    HW215090   5.568   5.393   2.646
 5031WAT     OW15091   1.535   5.105   0.387
 5031WAT    HW115092   1.550   5.006   0.382
 5031WAT    HW215093   1.493   5.136   0.302
 5032WAT     OW15094   1.603   5.993   0.283
 5032WAT    HW115095   1.507   6.021   0.281
 5032WAT    HW215096   1.661   6.074   0.286
 5033WAT     OW15097   6.202   6.139   2.804
 5033WAT    HW115098   6.225   6.236   2.811
 5033WAT    HW215099   6.282   6.088   2.771
 5034WAT     OW15100   0.834   6.490   5.263
 5034WAT    HW115101   0.774   6.447   5.330
 5034WAT    HW215102   0.911   6.429   5.243
 5035WAT     OW15103   3.923   1.484   0.778
 5035WAT    HW115104   4.004   1.428   0.794
 5035WAT    HW215105   3.939   1.545   0.701
 5036WAT     OW15106   3.934   2.900   6.407
 5036WAT    HW115107   3.921   2.847   6.491
 5036WAT    HW215108   3.848   2.905   6.356
 5037WAT     OW15109   2.268   5.000   0.333
 5037WAT    HW115110   2.238   5.043   0.418
 5037WAT    HW215111   2.190   4.986   0.273
 5038WAT     OW15112   1.748   5.768   5.249
 5038WAT    HW115113   1.809   5.847   5.251
 5038WAT    HW215114   1.795   5.691   5.206
 5039WAT     OW15115   1.312   2.312   5.379
 5039WAT    HW115116   1.320   2.408   5.351
 5039WAT    HW215117   1.256   2.306   5.461
 5040WAT     OW15118   1.389   2.461   1.287
 5040WAT    HW115119   1.332   2.469   1.205
 5040WAT    HW215120   1.471   2.408   1.266
 5041WAT     OW15121   2.472   4.545   3.065
 5041WAT    HW115122   2.467   4.636   3.105
 5041WAT    HW215123   2.442   4.477   3.132
 5042WAT     OW15124   1.103   3.012   1.680
 5042WAT    HW115125   1.081   2.973   1.590
 5042WAT    HW215126   1.023   3.059   1.716
 5043WAT     OW15127   3.109   3.004   1.949
 5043WAT    HW115128   3.172   2.965   2.017
 5043WAT    HW215129   3.081   2.933   1.885
 5044WAT     OW15130   3.552   1.408   2.109
 5044WAT    HW115131   3.483   1.464   2.153
 5044WAT    HW215132   3.510   1.323   2.076
 5045WAT     OW15133   6.436   5.250   6.577
 5045WAT    HW115134   6.465   5.344   6.593
 5045WAT    HW215135   6.336   5.245   6.581
 5046WAT     OW15136   1.717   2.366   5.447
 5046WAT    HW115137   1.793   2.329   5.501
 5046WAT    HW215138   1.651   2.294   5.428
 5047WAT     OW15139   3.586   4.067   0.928
 5047WAT    HW115140   3.561   3.990   0.987
 5047WAT    HW215141   3.505   4.095   0.875
 5048WAT     OW15142   3.159   3.875   4.182
 5048WAT    HW115143   3.183   3.971   4.200
 5048WAT    HW215144   3.177   3.854   4.087
 5049WAT     OW15145   2.795   4.822   4.310
 5049WAT    HW115146   2.770   4.727   4.326
 5049WAT    HW215147   2.755   4.852   4.223
 5050WAT     OW15148   2.719   5.784   1.562
 5050WAT    HW115149   2.670   5.697   1.553
 5050WAT    HW215150   2.654   5.858   1.575
 5051WAT     OW15151   0.643   4.307   2.702
 5051WAT    HW115152   0.612   4.213   2.696
 5051WAT    HW215153   0.627   4.342   2.795
 5052WAT     OW15154   0.399   5.588   5.172
 5052WAT    HW115155   0.352   5.637   5.099
 5052WAT    HW215156   0.496   5.612   5.171
 5053WAT     OW15157   2.355   5.024   5.450
 5053WAT    HW115158   2.342   5.040   5.548
 5053WAT    HW215159   2.343   5.109   5.400
 5054WAT     OW15160   6.293   2.054   3.446
 5054WAT    HW115161   6.212   1.996   3.452
 5054WAT    HW215162   6.375   1.999   3.462
 5055WAT     OW15163   1.290   4.185   4.484
 5055WAT    HW115164   1.366   4.245   4.460
 5055WAT    HW215165   1.311   4.138   4.570
 5056WAT     OW15166   5.739   5.097   5.754
 5056WAT    HW115167   5.666   5.029   5.761
 5056WAT    HW215168   5.768   5.124   5.846
 5057WAT     OW15169   4.923   3.742   6.283
 5057WAT    HW115170   4.875   3.827   6.263
 5057WAT    HW215171   4.948   3.740   6.380
 5058WAT     OW15172   5.410   1.321   0.589
 5058WAT    HW115173   5.350   1.282   0.519
 5058WAT    HW215174   5.444   1.248   0.648
 5059WAT     OW15175   2.967   4.595   6.273
 5059WAT    HW115176   2.984   4.563   6.367
 5059WAT    HW215177   2.878   4.640   6.269
 5060WAT     OW15178   6.552   2.409   5.802
 5060WAT    HW115179   6.553   2.433   5.705
 5060WAT    HW215180   6.614   2.470   5.852
 5061WAT     OW15181   4.339   1.976   3.283
 5061WAT    HW115182   4.367   1.884   3.256
 5061WAT    HW215183   4.363   1.992   3.379
 5062WAT     OW15184   6.569   3.824   1.842
 5062WAT    HW115185   6.583   3.919   1.815
 5062WAT    HW215186   6.475   3.812   1.874
 5063WAT     OW15187   2.228   2.057   6.178
 5063WAT    HW115188   2.259   2.017   6.264
 5063WAT    HW215189   2.195   2.150   6.195
 5064WAT     OW15190   3.270   5.024   3.197
 5064WAT    HW115191   3.314   4.945   3.155
 5064WAT    HW215192   3.278   5.019   3.296
 5065WAT     OW15193   4.657   3.894   1.657
 5065WAT    HW115194   4.632   3.991   1.661
 5065WAT    HW215195   4.722   3.873   1.730
 5066WAT     OW15196   4.302   1.595   5.115
 5066WAT    HW115197   4.302   1.586   5.215
 5066WAT    HW215198   4.310   1.504   5.073
 5067WAT     OW15199   1.847   5.698   2.112
 5067WAT    HW115200   1.780   5.681   2.040
 5067WAT    HW215201   1.889   5.788   2.099
 5068WAT     OW15202   5.677   3.257   2.680
 5068WAT    HW115203   5.776   3.260   2.667
 5068WAT    HW215204   5.643   3.351   2.692
 5069WAT     OW15205   3.606   6.417   4.582
 5069WAT    HW115206   3.656   6.345   4.534
 5069WAT    HW215207   3.643   6.506   4.556
 5070WAT     OW15208   4.093   5.566   1.483
 5070WAT    HW115209   4.000   5.570   1.447
 5070WAT    HW215210   4.159   5.569   1.408
 5071WAT     OW15211   0.072   6.570   4.911
 5071WAT    HW115212   0.093   6.480   4.949
 5071WAT    HW215213  -0.003   6.611   4.963
 5072WAT     OW15214   2.648   2.325   1.348
 5072WAT    HW115215   2.575   2.348   1.282
 5072WAT    HW215216   2.636   2.231   1.379
 5073WAT     OW15217   3.551   2.397   0.412
 5073WAT    HW115218   3.476   2.446   0.456
 5073WAT    HW215219   3.520   2.307   0.381
 5074WAT     OW15220   2.726   2.527   2.487
 5074WAT    HW115221   2.788   2.563   2.558
 5074WAT    HW215222   2.657   2.469   2.530
 5075WAT     OW15223   6.470   1.319   0.987
 5075WAT    HW115224   6.526   1.401   0.976
 5075WAT    HW215225   6.373   1.345   0.985
 5076WAT     OW15226   6.525   2.709   1.636
 5076WAT    HW115227   6.555   2.805   1.638
 5076WAT    HW215228   6.579   2.656   1.700
 5077WAT     OW15229   3.272   4.027   2.703
 5077WAT    HW115230   3.235   3.934   2.694
 5077WAT    HW215231   3.366   4.022   2.738
 5078WAT     OW15232   4.167   3.936   0.402
 5078WAT    HW115233   4.203   3.850   0.438
 5078WAT    HW215234   4.071   3.944   0.427
 5079WAT     OW15235   5.369   6.365   2.580
 5079WAT    HW115236   5.414   6.356   2.491
 5079WAT    HW215237   5.434   6.399   2.648
 5080WAT     OW15238   6.567   6.526   4.512
 5080WAT    HW115239   6.518   6.466   4.575
 5080WAT    HW215240   6.624   6.590   4.564
 5081WAT     OW15241   6.511   0.309   3.826
 5081WAT    HW115242   6.462   0.226   3.801
 5081WAT    HW215243   6.452   0.366   3.883
 5082WAT     OW15244   2.385   5.123   1.198
 5082WAT    HW115245   2.340   5.047   1.151
 5082WAT    HW215246   2.319   5.173   1.254
 5083WAT     OW15247   3.882   4.357   2.340
 5083WAT    HW115248   3.910   4.267   2.373
 5083WAT    HW215249   3.825   4.402   2.409
 5084WAT     OW15250   5.932   6.564   4.093
 5084WAT    HW115251   6.013   6.622   4.105
 5084WAT    HW215252   5.877   6.600   4.018
 5085WAT     OW15253   4.474   0.830   0.465
 5085WAT    HW115254   4.426   0.759   0.516
 5085WAT    HW215255   4.501   0.793   0.376
 5086WAT     OW15256   2.259   4.174   5.636
 5086WAT    HW115257   2.169   4.200   5.601
 5086WAT    HW215258   2.270   4.211   5.728
 5087WAT     OW15259   3.787   4.866   1.692
 5087WAT    HW115260   3.803   4.819   1.779
 5087WAT    HW215261   3.821   4.960   1.698
 5088WAT     OW15262   0.014   1.208   4.088
 5088WAT    HW115263  -0.054   1.191   4.159
 5088WAT    HW215264   0.106   1.187   4.123
 5089WAT     OW15265   0.927   1.947   1.643
 5089WAT    HW115266   0.908   1.968   1.547
 5089WAT    HW215267   0.858   1.990   1.701
 5090WAT     OW15268   3.611   0.864   4.991
 5090WAT    HW115269   3.695   0.841   4.941
 5090WAT    HW215270   3.598   0.963   4.991
 5091WAT     OW15271   1.146   5.755   0.823
 5091WAT    HW115272   1.243   5.780   0.820
 5091WAT    HW215273   1.131   5.670   0.773
 5092WAT     OW15274   6.212   3.707   0.552
 5092WAT    HW115275   6.215   3.729   0.455
 5092WAT    HW215276   6.305   3.689   0.585
 5093WAT     OW15277   2.198   2.098   1.023
 5093WAT    HW115278   2.131   2.066   0.956
 5093WAT    HW215279   2.188   2.046   1.107
 5094WAT     OW15280   2.313   3.491   5.767
 5094WAT    HW115281   2.215   3.479   5.750
 5094WAT    HW215282   2.338   3.587   5.754
 5095WAT     OW15283   2.230   5.081   6.436
 5095WAT    HW115284   2.213   5.179   6.439
 5095WAT    HW215285   2.144   5.032   6.420
 5096WAT     OW15286   6.420   4.236   4.242
 5096WAT    HW115287   6.403   4.142   4.212
 5096WAT    HW215288   6.381   4.249   4.333
 5097WAT     OW15289   5.170   2.725   5.786
 5097WAT    HW115290   5.217   2.672   5.715
 5097WAT    HW215291   5.137   2.663   5.857
 5098WAT     OW15292   0.623   3.678   5.138
 5098WAT    HW115293   0.581   3.724   5.217
 5098WAT    HW215294   0.594   3.583   5.136
 5099WAT     OW15295   1.467   2.361   2.427
 5099WAT    HW115296   1.388   2.331   2.373
 5099WAT    HW215297   1.548   2.364   2.368
 5100WAT     OW15298   0.250   3.980   2.436
 5100WAT    HW115299   0.234   3.886   2.405
 5100WAT    HW215300   0.346   4.005   2.423
 5101WAT     OW15301   1.041   6.227   4.843
 5101WAT    HW115302   1.003   6.317   4.862
 5101WAT    HW215303   1.067   6.183   4.930
 5102WAT     OW15304   1.550   5.190   4.139
 5102WAT    HW115305   1.487   5.145   4.076
 5102WAT    HW215306   1.633   5.136   4.147
 5103WAT     OW15307   3.767   0.056   4.748
 5103WAT    HW115308   3.732   0.027   4.659
 5103WAT    HW215309   3.758  -0.019   4.814
 5104WAT     OW15310   5.533   4.647   6.164
 5104WAT    HW115311   5.496   4.738   6.146
 5104WAT    HW215312   5.569   4.609   6.079
 5105WAT     OW15313   0.721   6.316   1.017
 5105WAT    HW115314   0.780   6.304   0.938
 5105WAT    HW215315   0.777   6.322   1.100
 5106WAT     OW15316   1.879   6.336   6.113
 5106WAT    HW115317   1.905   6.297   6.201
 5106WAT    HW215318   1.961   6.348   6.056
 5107WAT     OW15319   5.751   6.677   1.266
 5107WAT    HW115320   5.783   6.621   1.190
 5107WAT    HW215321   5.779   6.771   1.253
 5108WAT     OW15322   6.037   3.496   5.968
 5108WAT    HW115323   6.044   3.423   5.899
 5108WAT    HW215324   5.942   3.525   5.976
 5109WAT     OW15325   2.901   6.004   5.581
 5109WAT    HW115326   2.869   6.023   5.489
 5109WAT    HW215327   2.851   5.925   5.619
 5110WAT     OW15328   6.619   0.481   1.929
 5110WAT    HW115329   6.660   0.391   1.914
 5110WAT    HW215330   6.647   0.543   1.855
 5111WAT     OW15331   5.967   2.618   5.541
 5111WAT    HW115332   5.914   2.687   5.491
 5111WAT    HW215333   6.064   2.638   5.533
 5112WAT     OW15334   2.019   2.907   1.607
 5112WAT    HW115335   2.042   2.994   1.564
 5112WAT    HW215336   1.990   2.842   1.537
 5113WAT     OW15337   3.592   1.938   3.631
 5113WAT    HW115338   3.529   1.917   3.706
 5113WAT    HW215339   3.558   1.897   3.547
 5114WAT     OW15340   0.113   0.100   6.367
 5114WAT    HW115341   0.144   0.151   6.286
 5114WAT    HW215342   0.115   0.161   6.446
 5115WAT     OW15343   2.608   3.693   6.675
 5115WAT    HW115344   2.696   3.665   6.713
 5115WAT    HW215345   2.608   3.792   6.661
 5116WAT     OW15346   2.282   1.187   5.202
 5116WAT    HW115347   2.281   1.087   5.203
 5116WAT    HW215348   2.213   1.221   5.137
 5117WAT     OW15349   3.418   3.258   0.964
 5117WAT    HW115350   3.462   3.318   1.030
 5117WAT    HW215351   3.425   3.298   0.872
 5118WAT     OW15352   3.134   5.663   1.689
 5118WAT    HW115353   3.154   5.709   1.603
 5118WAT    HW215354   3.036   5.669   1.709
 5119WAT     OW15355   0.991   3.505   1.650
 5119WAT    HW115356   1.060   3.443   1.612
 5119WAT    HW215357   1.034   3.592   1.674
 5120WAT     OW15358   2.836   3.078   1.261
 5120WAT    HW115359   2.900   3.003   1.282
 5120WAT    HW215360   2.832   3.092   1.162
 5121WAT     OW15361   3.729   2.837   5.678
 5121WAT    HW115362   3.779   2.908   5.726
 5121WAT    HW215363   3.733   2.854   5.579
 5122WAT     OW15364   6.319   6.225   5.776
 5122WAT    HW115365   6.325   6.134   5.735
 5122WAT    HW215366   6.332   6.294   5.705
 5123WAT     OW15367   5.388   2.999   5.908
 5123WAT    HW115368   5.301   3.007   5.956
 5123WAT    HW215369   5.430   2.911   5.929
 5124WAT     OW15370   2.114   1.254   4.389
 5124WAT    HW115371   2.155   1.271   4.479
 5124WAT    HW215372   2.090   1.157   4.382
 5125WAT     OW15373   2.142   5.722   6.290
 5125WAT    HW115374   2.230   5.687   6.259
 5125WAT    HW215375   2.149   5.751   6.386
 5126WAT     OW15376   3.980   0.054   2.636
 5126WAT    HW115377   3.986  -0.002   2.553
 5126WAT    HW215378   3.891   0.042   2.679
 5127WAT     OW15379   2.063   6.285   5.371
 5127WAT    HW115380   2.064   6.378   5.336
 5127WAT    HW215381   2.095   6.222   5.300
 5128WAT     OW15382   6.582   2.458   3.156
 5128WAT    HW115383   6.566   2.490   3.249
 5128WAT    HW215384   6.579   2.359   3.153
 5129WAT     OW15385   3.342   4.350   4.313
 5129WAT    HW115386   3.416   4.310   4.366
 5129WAT    HW215387   3.294   4.418   4.368
 5130WAT     OW15388   1.983   3.137   3.502
 5130WAT    HW115389   1.970   3.057   3.444
 5130WAT    HW215390   2.034   3.112   3.584
 5131WAT     OW15391   1.989   3.578   0.238
 5131WAT    HW115392   2.040   3.587   0.152
 5131WAT    HW215393   2.046   3.606   0.315
 5132WAT     OW15394   3.731   2.601   6.370
 5132WAT    HW115395   3.761   2.570   6.279
 5132WAT    HW215396   3.699   2.523   6.423
 5133WAT     OW15397   2.796   4.087   5.744
 5133WAT    HW115398   2.855   4.147   5.797
 5133WAT    HW215399   2.726   4.048   5.804
 5134WAT     OW15400   6.075   5.068   1.141
 5134WAT    HW115401   6.059   5.120   1.225
 5134WAT    HW215402   6.171   5.041   1.137
 5135WAT     OW15403   1.837   3.826   6.350
 5135WAT    HW115404   1.923   3.860   6.311
 5135WAT    HW215405   1.857   3.768   6.429
 5136WAT     OW15406   1.996   4.487   2.526
 5136WAT    HW115407   2.056   4.564   2.548
 5136WAT    HW215408   1.915   4.521   2.479
 5137WAT     OW15409   2.335   1.454   2.225
 5137WAT    HW115410   2.317   1.359   2.250
 5137WAT    HW215411   2.358   1.460   2.128
 5138WAT     OW15412   3.191   1.825   0.475
 5138WAT    HW115413   3.222   1.782   0.560
 5138WAT    HW215414   3.245   1.789   0.398
 5139WAT     OW15415   3.934   5.229   4.333
 5139WAT    HW115416   3.903   5.135   4.324
 5139WAT    HW215417   3.986   5.239   4.418
 5140WAT     OW15418   1.047   3.967   1.140
 5140WAT    HW115419   0.995   3.883   1.128
 5140WAT    HW215420   0.998   4.027   1.203
 5141WAT     OW15421   0.033   1.513   3.748
 5141WAT    HW115422   0.127   1.492   3.723
 5141WAT    HW215423   0.023   1.510   3.848
 5142WAT     OW15424   4.531   4.808   5.595
 5142WAT    HW115425   4.474   4.744   5.544
 5142WAT    HW215426   4.627   4.784   5.584
 5143WAT     OW15427   1.126   1.530   0.726
 5143WAT    HW115428   1.028   1.508   0.727
 5143WAT    HW215429   1.159   1.541   0.820
 5144WAT     OW15430   3.674   1.847   2.298
 5144WAT    HW115431   3.668   1.749   2.315
 5144WAT    HW215432   3.708   1.893   2.380
 5145WAT     OW15433   2.046   0.216   5.720
 5145WAT    HW115434   2.141   0.193   5.696
 5145WAT    HW215435   2.034   0.206   5.818
 5146WAT     OW15436   5.105   6.328   4.842
 5146WAT    HW115437   5.197   6.362   4.823
 5146WAT    HW215438   5.064   6.383   4.915
 5147WAT     OW15439   4.381   6.446   1.892
 5147WAT    HW115440   4.303   6.400   1.934
 5147WAT    HW215441   4.365   6.455   1.794
 5148WAT     OW15442   1.159   1.073   3.627
 5148WAT    HW115443   1.101   0.997   3.597
 5148WAT    HW215444   1.222   1.097   3.554
 5149WAT     OW15445   2.065   5.823   5.891
 5149WAT    HW115446   2.024   5.899   5.840
 5149WAT    HW215447   2.024   5.818   5.982
 5150WAT     OW15448   2.831   3.032   4.736
 5150WAT    HW115449   2.792   3.101   4.797
 5150WAT    HW215450   2.916   2.997   4.776
 5151WAT     OW15451   6.504   4.362   3.088
 5151WAT    HW115452   6.503   4.305   3.170
 5151WAT    HW215453   6.598   4.372   3.056
 5152WAT     OW15454   4.809   0.662   4.586
 5152WAT    HW115455   4.792   0.574   4.541
 5152WAT    HW215456   4.743   0.729   4.554
 5153WAT     OW15457   3.554   1.249   1.573
 5153WAT    HW115458   3.558   1.201   1.485
 5153WAT    HW215459   3.640   1.297   1.588
 5154WAT     OW15460   4.823   1.883   5.517
 5154WAT    HW115461   4.856   1.951   5.582
 5154WAT    HW215462   4.723   1.876   5.524
 5155WAT     OW15463   0.120   4.197   3.138
 5155WAT    HW115464   0.111   4.280   3.083
 5155WAT    HW215465   0.086   4.118   3.086
 5156WAT     OW15466   6.344   0.957   0.972
 5156WAT    HW115467   6.261   0.957   0.916
 5156WAT    HW215468   6.414   1.013   0.928
 5157WAT     OW15469   6.480   1.099   0.035
 5157WAT    HW115470   6.474   1.140  -0.057
 5157WAT    HW215471   6.565   1.048   0.043
 5158WAT     OW15472   6.091   4.574   6.173
 5158WAT    HW115473   6.058   4.537   6.260
 5158WAT    HW215474   6.065   4.513   6.098
 5159WAT     OW15475   4.674   3.783   0.370
 5159WAT    HW115476   4.644   3.864   0.319
 5159WAT    HW215477   4.669   3.703   0.310
 5160WAT     OW15478   4.102   4.425   4.743
 5160WAT    HW115479   4.082   4.502   4.804
 5160WAT    HW215480   4.019   4.373   4.727
 5161WAT     OW15481   4.977   4.383   3.263
 5161WAT    HW115482   4.908   4.340   3.204
 5161WAT    HW215483   4.932   4.425   3.341
 5162WAT     OW15484   5.706   1.905   5.478
 5162WAT    HW115485   5.671   1.858   5.397
 5162WAT    HW215486   5.663   1.866   5.560
 5163WAT     OW15487   2.080   4.516   5.868
 5163WAT    HW115488   2.128   4.496   5.954
 5163WAT    HW215489   2.143   4.561   5.805
 5164WAT     OW15490   1.659   0.744   6.557
 5164WAT    HW115491   1.616   0.710   6.473
 5164WAT    HW215492   1.733   0.682   6.584
 5165WAT     OW15493   3.012   6.382   1.781
 5165WAT    HW115494   3.015   6.385   1.681
 5165WAT    HW215495   3.005   6.287   1.811
 5166WAT     OW15496   6.558   3.001   3.452
 5166WAT    HW115497   6.472   3.050   3.460
 5166WAT    HW215498   6.546   2.905   3.480
 5167WAT     OW15499   3.967   0.034   1.902
 5167WAT    HW115500   4.027  -0.004   1.832
 5167WAT    HW215501   3.872   0.007   1.882
 5168WAT     OW15502   4.470   0.585   6.488
 5168WAT    HW115503   4.443   0.493   6.461
 5168WAT    HW215504   4.547   0.581   6.551
 5169WAT     OW15505   4.981   6.235   2.673
 5169WAT    HW115506   4.974   6.307   2.743
 5169WAT    HW215507   5.076   6.206   2.664
 5170WAT     OW15508   5.811   3.550   2.511
 5170WAT    HW115509   5.880   3.608   2.554
 5170WAT    HW215510   5.740   3.528   2.579
 5171WAT     OW15511   4.072   3.135   6.416
 5171WAT    HW115512   4.166   3.115   6.392
 5171WAT    HW215513   4.018   3.051   6.412
 5172WAT     OW15514   2.135   3.758   1.736
 5172WAT    HW115515   2.060   3.799   1.788
 5172WAT    HW215516   2.197   3.830   1.706
 5173WAT     OW15517   5.490   4.065   6.537
 5173WAT    HW115518   5.404   4.018   6.518
 5173WAT    HW215519   5.484   4.112   6.625
 5174WAT     OW15520   2.359   0.206   4.011
 5174WAT    HW115521   2.266   0.225   3.978
 5174WAT    HW215522   2.426   0.232   3.942
 5175WAT     OW15523   6.423   0.085   4.093
 5175WAT    HW115524   6.478   0.085   4.177
 5175WAT    HW215525   6.469   0.030   4.024
 5176WAT     OW15526   3.433   5.468   1.497
 5176WAT    HW115527   3.436   5.445   1.594
 5176WAT    HW215528   3.449   5.566   1.485
 5177WAT     OW15529   2.404   5.888   1.949
 5177WAT    HW115530   2.354   5.840   2.021
 5177WAT    HW215531   2.365   5.865   1.860
 5178WAT     OW15532   0.390   6.122   3.847
 5178WAT    HW115533   0.310   6.183   3.847
 5178WAT    HW215534   0.407   6.091   3.940
 5179WAT     OW15535   2.699   1.209   3.306
 5179WAT    HW115536   2.673   1.302   3.333
 5179WAT    HW215537   2.617   1.156   3.285
 5180WAT     OW15538   0.798   6.099   0.179
 5180WAT    HW115539   0.849   6.021   0.144
 5180WAT    HW215540   0.701   6.075   0.188
 5181WAT     OW15541   6.189   4.303   3.356
 5181WAT    HW115542   6.097   4.318   3.392
 5181WAT    HW215543   6.209   4.370   3.286
 5182WAT     OW15544   6.406   2.329   0.522
 5182WAT    HW115545   6.343   2.261   0.562
 5182WAT    HW215546   6.355   2.394   0.467
 5183WAT     OW15547   1.688   3.308   4.793
 5183WAT    HW115548   1.758   3.291   4.862
 5183WAT    HW215549   1.604   3.338   4.837
 5184WAT     OW15550   2.538   3.392   2.434
 5184WAT    HW115551   2.506   3.411   2.341
 5184WAT    HW215552   2.462   3.399   2.497
 5185WAT     OW15553   4.073   0.513   3.968
 5185WAT    HW115554   4.068   0.489   4.064
 5185WAT    HW215555   4.097   0.610   3.959
 5186WAT     OW15556   5.698   3.625   5.253
 5186WAT    HW115557   5.606   3.590   5.234
 5186WAT    HW215558   5.759   3.549   5.275
 5187WAT     OW15559   3.037   1.683   4.404
 5187WAT    HW115560   2.946   1.709   4.436
 5187WAT    HW215561   3.030   1.603   4.345
 5188WAT     OW15562   3.987   1.011   3.682
 5188WAT    HW115563   3.987   0.943   3.609
 5188WAT    HW215564   3.940   0.973   3.762
 5189WAT     OW15565   5.096   1.408   4.949
 5189WAT    HW115566   5.093   1.319   4.994
 5189WAT    HW215567   5.119   1.479   5.016
 5190WAT     OW15568   3.618   6.072   4.818
 5190WAT    HW115569   3.529   6.027   4.830
 5190WAT    HW215570   3.607   6.170   4.834
 5191WAT     OW15571   6.091   4.620   1.380
 5191WAT    HW115572   6.129   4.713   1.377
 5191WAT    HW215573   6.084   4.591   1.476
 5192WAT     OW15574   0.009   1.015   5.211
 5192WAT    HW115575   0.072   1.052   5.279
 5192WAT    HW215576  -0.083   1.009   5.250
 5193WAT     OW15577   4.562   5.671   5.726
 5193WAT    HW115578   4.510   5.731   5.788
 5193WAT    HW215579   4.626   5.727   5.673
 5194WAT     OW15580   2.672   5.597   3.499
 5194WAT    HW115581   2.714   5.551   3.577
 5194WAT    HW215582   2.584   5.635   3.527
 5195WAT     OW15583   6.322   1.542   5.908
 5195WAT    HW115584   6.292   1.523   6.002
 5195WAT    HW215585   6.357   1.459   5.866
 5196WAT     OW15586   2.590   4.129   0.476
 5196WAT    HW115587   2.533   4.195   0.524
 5196WAT    HW215588   2.685   4.159   0.478
 5197WAT     OW15589   5.742   2.884   1.749
 5197WAT    HW115590   5.660   2.937   1.730
 5197WAT    HW215591   5.748   2.866   1.848
 5198WAT     OW15592   5.106   5.138   6.215
 5198WAT    HW115593   5.176   5.121   6.146
 5198WAT    HW215594   5.082   5.053   6.260
 5199WAT     OW15595   5.460   4.498   0.308
 5199WAT    HW115596   5.414   4.471   0.223
 5199WAT    HW215597   5.392   4.508   0.380
 5200WAT     OW15598   4.507   2.620   2.889
 5200WAT    HW115599   4.562   2.683   2.944
 5200WAT    HW215600   4.566   2.551   2.848
 5201WAT     OW15601   2.681   2.029   3.440
 5201WAT    HW115602   2.771   1.986   3.436
 5201WAT    HW215603   2.643   2.018   3.532
 5202WAT     OW15604   4.724   4.429   4.727
 5202WAT    HW115605   4.690   4.429   4.821
 5202WAT    HW215606   4.750   4.336   4.702
 5203WAT     OW15607   3.348   0.778   0.768
 5203WAT    HW115608   3.343   0.804   0.672
 5203WAT    HW215609   3.300   0.846   0.824
 5204WAT     OW15610   1.443   3.390   3.397
 5204WAT    HW115611   1.505   3.450   3.449
 5204WAT    HW215612   1.430   3.427   3.305
 5205WAT     OW15613   2.264   5.361   1.733
 5205WAT    HW115614   2.363   5.354   1.715
 5205WAT    HW215615   2.217   5.392   1.650
 5206WAT     OW15616   2.789   4.289   0.908
 5206WAT    HW115617   2.812   4.336   0.994
 5206WAT    HW215618   2.690   4.273   0.905
 5207WAT     OW15619   5.703   6.476   6.092
 5207WAT    HW115620   5.784   6.430   6.057
 5207WAT    HW215621   5.727   6.567   6.125
 5208WAT     OW15622   2.775   2.678   5.267
 5208WAT    HW115623   2.830   2.596   5.253
 5208WAT    HW215624   2.802   2.748   5.201
 5209WAT     OW15625   6.037   3.976   3.126
 5209WAT    HW115626   6.093   3.986   3.207
 5209WAT    HW215627   6.093   3.943   3.050
 5210WAT     OW15628   4.568   2.057   1.633
 5210WAT    HW115629   4.624   2.139   1.623
 5210WAT    HW215630   4.566   2.007   1.546
 5211WAT     OW15631   6.600   5.567   4.641
 5211WAT    HW115632   6.527   5.502   4.618
 5211WAT    HW215633   6.654   5.586   4.559
 5212WAT     OW15634   3.229   2.726   4.934
 5212WAT    HW115635   3.326   2.752   4.935
 5212WAT    HW215636   3.200   2.705   5.028
 5213WAT     OW15637   2.648   1.005   5.833
 5213WAT    HW115638   2.692   0.915   5.832
 5213WAT    HW215639   2.635   1.036   5.927
 5214WAT     OW15640   2.638   3.279   5.410
 5214WAT    HW115641   2.695   3.202   5.437
 5214WAT    HW215642   2.578   3.304   5.487
 5215WAT     OW15643   6.670   2.331   1.146
 5215WAT    HW115644   6.731   2.397   1.189
 5215WAT    HW215645   6.665   2.349   1.048
 5216WAT     OW15646   0.908   5.282   4.274
 5216WAT    HW115647   0.976   5.352   4.249
 5216WAT    HW215648   0.822   5.327   4.298
 5217WAT     OW15649   6.371   6.313   1.078
 5217WAT    HW115650   6.439   6.323   1.005
 5217WAT    HW215651   6.297   6.254   1.045
 5218WAT     OW15652   1.296   5.932   1.946
 5218WAT    HW115653   1.320   6.017   1.994
 5218WAT    HW215654   1.376   5.897   1.898
 5219WAT     OW15655   2.831   4.079   0.738
 5219WAT    HW115656   2.822   4.150   0.808
 5219WAT    HW215657   2.832   4.122   0.647
 5220WAT     OW15658   5.399   1.268   1.170
 5220WAT    HW115659   5.355   1.191   1.216
 5220WAT    HW215660   5.361   1.277   1.077
 5221WAT     OW15661   5.037   6.198   2.236
 5221WAT    HW115662   5.028   6.256   2.155
 5221WAT    HW215663   5.133   6.193   2.263
 5222WAT     OW15664   3.782   1.107   0.587
 5222WAT    HW115665   3.816   1.019   0.620
 5222WAT    HW215666   3.703   1.135   0.643
 5223WAT     OW15667   4.391   2.049   0.141
 5223WAT    HW115668   4.394   2.051   0.241
 5223WAT    HW215669   4.433   2.132   0.105
 5224WAT     OW15670   0.113   2.119   2.309
 5224WAT    HW115671   0.211   2.140   2.304
 5224WAT    HW215672   0.061   2.192   2.264
 5225WAT     OW15673   1.139   5.207   4.740
 5225WAT    HW115674   1.233   5.186   4.712
 5225WAT    HW215675   1.130   5.191   4.839
 5226WAT     OW15676   5.447   3.089   5.148
 5226WAT    HW115677   5.546   3.075   5.142
 5226WAT    HW215678   5.424   3.121   5.240
 5227WAT     OW15679   6.155   4.233   0.735
 5227WAT    HW115680   6.170   4.134   0.730
 5227WAT    HW215681   6.081   4.259   0.672
 5228WAT     OW15682   6.210   1.428   4.080
 5228WAT    HW115683   6.164   1.449   3.994
 5228WAT    HW215684   6.183   1.337   4.112
 5229WAT     OW15685   3.049   0.872   4.805
 5229WAT    HW115686   3.038   0.960   4.851
 5229WAT    HW215687   3.036   0.883   4.707
 5230WAT     OW15688   5.565   0.958   1.454
 5230WAT    HW115689   5.475   0.915   1.446
 5230WAT    HW215690   5.611   0.956   1.366
 5231WAT     OW15691   0.930   4.835   3.424
 5231WAT    HW115692   1.026   4.856   3.407
 5231WAT    HW215693   0.898   4.888   3.503
 5232WAT     OW15694   2.911   0.856   6.524
 5232WAT    HW115695   2.825   0.805   6.520
 5232WAT    HW215696   2.895   0.951   6.498
 5233WAT     OW15697   2.028   5.512   4.082
 5233WAT    HW115698   1.954   5.518   4.015
 5233WAT    HW215699   2.070   5.421   4.077
 5234WAT     OW15700   3.626   0.978   6.285
 5234WAT    HW115701   3.601   0.940   6.374
 5234WAT    HW215702   3.649   1.075   6.296
 5235WAT     OW15703   0.580   4.960   0.336
 5235WAT    HW115704   0.596   5.030   0.406
 5235WAT    HW215705   0.663   4.948   0.281
 5236WAT     OW15706   4.085   2.624   3.514
 5236WAT    HW115707   3.985   2.618   3.505
 5236WAT    HW215708   4.127   2.543   3.474
 5237WAT     OW15709   0.637   3.640   4.204
 5237WAT    HW115710   0.557   3.668   4.257
 5237WAT    HW215711   0.677   3.559   4.246
 5238WAT     OW15712   3.179   3.117   1.344
 5238WAT    HW115713   3.167   3.190   1.412
 5238WAT    HW215714   3.182   3.157   1.252
 5239WAT     OW15715   2.449   1.019   0.926
 5239WAT    HW115716   2.547   1.004   0.933
 5239WAT    HW215717   2.430   1.117   0.929
 5240WAT     OW15718   5.741   5.563   6.250
 5240WAT    HW115719   5.726   5.488   6.186
 5240WAT    HW215720   5.835   5.596   6.240
 5241WAT     OW15721   6.136   1.850   1.685
 5241WAT    HW115722   6.173   1.781   1.622
 5241WAT    HW215723   6.057   1.894   1.643
 5242WAT     OW15724   2.763   0.718   5.375
 5242WAT    HW115725   2.716   0.704   5.288
 5242WAT    HW215726   2.857   0.685   5.368
 5243WAT     OW15727   4.196   1.857   0.366
 5243WAT    HW115728   4.203   1.760   0.387
 5243WAT    HW215729   4.170   1.869   0.270
 5244WAT     OW15730   2.621   1.143   2.007
 5244WAT    HW115731   2.598   1.108   2.098
 5244WAT    HW215732   2.700   1.095   1.972
 5245WAT     OW15733   6.087   2.096   0.145
 5245WAT    HW115734   6.167   2.094   0.085
 5245WAT    HW215735   6.106   2.153   0.225
 5246WAT     OW15736   2.973   3.198   0.224
 5246WAT    HW115737   2.985   3.266   0.297
 5246WAT    HW215738   2.928   3.117   0.262
 5247WAT     OW15739   6.196   2.969   0.426
 5247WAT    HW115740   6.223   3.028   0.502
 5247WAT    HW215741   6.278   2.926   0.387
 5248WAT     OW15742   6.087   6.482   0.376
 5248WAT    HW115743   6.033   6.399   0.363
 5248WAT    HW215744   6.089   6.506   0.474
 5249WAT     OW15745   1.439   0.230   2.981
 5249WAT    HW115746   1.468   0.153   3.037
 5249WAT    HW215747   1.499   0.238   2.901
 5250WAT     OW15748   1.300   4.304   0.080
 5250WAT    HW115749   1.365   4.259   0.142
 5250WAT    HW215750   1.342   4.315  -0.010
 5251WAT     OW15751   5.463   5.015   0.508
 5251WAT    HW115752   5.486   4.958   0.587
 5251WAT    HW215753   5.410   4.961   0.443
 5252WAT     OW15754   6.284   5.155   3.489
 5252WAT    HW115755   6.297   5.171   3.587
 5252WAT    HW215756   6.191   5.122   3.472
 5253WAT     OW15757   5.168   5.034   2.437
 5253WAT    HW115758   5.110   5.074   2.366
 5253WAT    HW215759   5.163   4.934   2.432
 5254WAT     OW15760   0.894   1.930   3.627
 5254WAT    HW115761   0.977   1.967   3.587
 5254WAT    HW215762   0.829   1.908   3.554
 5255WAT     OW15763   4.253   5.602   1.259
 5255WAT    HW115764   4.187   5.592   1.184
 5255WAT    HW215765   4.275   5.698   1.272
 5256WAT     OW15766   1.799   6.388   3.167
 5256WAT    HW115767   1.789   6.291   3.143
 5256WAT    HW215768   1.747   6.443   3.102
 5257WAT     OW15769   4.476   5.323   1.594
 5257WAT    HW115770   4.456   5.342   1.498
 5257WAT    HW215771   4.410   5.257   1.630
 5258WAT     OW15772   3.090   1.874   5.989
 5258WAT    HW115773   3.078   1.838   5.896
 5258WAT    HW215774   3.057   1.807   6.055
 5259WAT     OW15775   2.048   5.297   0.182
 5259WAT    HW115776   2.135   5.347   0.185
 5259WAT    HW215777   2.011   5.302   0.089
 5260WAT     OW15778   4.072   0.608   4.669
 5260WAT    HW115779   4.146   0.579   4.728
 5260WAT    HW215780   4.012   0.531   4.649
 5261WAT     OW15781   0.330   5.414   4.671
 5261WAT    HW115782   0.255   5.444   4.730
 5261WAT    HW215783   0.404   5.481   4.674
 5262WAT     OW15784   4.911   6.166   3.545
 5262WAT    HW115785   4.942   6.190   3.453
 5262WAT    HW215786   4.990   6.165   3.608
 5263WAT     OW15787   3.093   5.735   1.200
 5263WAT    HW115788   3.118   5.646   1.161
 5263WAT    HW215789   3.001   5.728   1.241
 5264WAT     OW15790   0.240   5.740   6.671
 5264WAT    HW115791   0.331   5.723   6.632
 5264WAT    HW215792   0.176   5.761   6.598
 5265WAT     OW15793   0.035   3.148   2.470
 5265WAT    HW115794   0.119   3.165   2.418
 5265WAT    HW215795   0.059   3.118   2.562
 5266WAT     OW15796   5.179   6.682   0.499
 5266WAT    HW115797   5.234   6.685   0.416
 5266WAT    HW215798   5.115   6.606   0.493
 5267WAT     OW15799   5.360   0.709   2.335
 5267WAT    HW115800   5.403   0.788   2.291
 5267WAT    HW215801   5.336   0.641   2.265
 5268WAT     OW15802   2.988   6.413   3.420
 5268WAT    HW115803   2.978   6.319   3.387
 5268WAT    HW215804   2.979   6.414   3.520
 5269WAT     OW15805   1.393   3.810   4.614
 5269WAT    HW115806   1.408   3.714   4.635
 5269WAT    HW215807   1.445   3.836   4.533
 5270WAT     OW15808   1.065   3.502   5.090
 5270WAT    HW115809   1.164   3.514   5.089
 5270WAT    HW215810   1.028   3.525   5.000
 5271WAT     OW15811   4.652   6.069   4.831
 5271WAT    HW115812   4.735   6.015   4.840
 5271WAT    HW215813   4.584   6.017   4.779
 5272WAT     OW15814   3.018   2.097   0.773
 5272WAT    HW115815   2.939   2.077   0.716
 5272WAT    HW215816   3.102   2.081   0.721
 5273WAT     OW15817   6.209   5.670   0.157
 5273WAT    HW115818   6.177   5.764   0.161
 5273WAT    HW215819   6.217   5.642   0.061
 5274WAT     OW15820   1.211   3.791   3.635
 5274WAT    HW115821   1.180   3.696   3.625
 5274WAT    HW215822   1.132   3.851   3.644
 5275WAT     OW15823   2.034   0.758   6.543
 5275WAT    HW115824   2.126   0.726   6.521
 5275WAT    HW215825   1.973   0.680   6.553
 5276WAT     OW15826   2.443   4.959   2.460
 5276WAT    HW115827   2.457   5.043   2.407
 5276WAT    HW215828   2.483   4.882   2.411
 5277WAT     OW15829   1.128   3.312   2.156
 5277WAT    HW115830   1.141   3.283   2.251
 5277WAT    HW215831   1.033   3.341   2.143
 5278WAT     OW15832   2.839   6.479   0.205
 5278WAT    HW115833   2.740   6.472   0.206
 5278WAT    HW215834   2.870   6.499   0.112
 5279WAT     OW15835   4.672   3.537   0.239
 5279WAT    HW115836   4.737   3.517   0.313
 5279WAT    HW215837   4.598   3.470   0.240
 5280WAT     OW15838   1.233   3.667   1.281
 5280WAT    HW115839   1.174   3.720   1.341
 5280WAT    HW215840   1.319   3.647   1.328
 5281WAT     OW15841   1.808   3.113   6.243
 5281WAT    HW115842   1.859   3.094   6.159
 5281WAT    HW215843   1.712   3.129   6.220
 5282WAT     OW15844   4.027   2.878   6.057
 5282WAT    HW115845   4.088   2.955   6.045
 5282WAT    HW215846   3.935   2.911   6.078
 5283WAT     OW15847   0.860   3.175   4.693
 5283WAT    HW115848   0.791   3.241   4.663
 5283WAT    HW215849   0.826   3.128   4.775
 5284WAT     OW15850   1.884   4.004   0.170
 5284WAT    HW115851   1.852   4.028   0.262
 5284WAT    HW215852   1.850   3.913   0.146
 5285WAT     OW15853   0.667   4.120   0.331
 5285WAT    HW115854   0.600   4.172   0.279
 5285WAT    HW215855   0.756   4.127   0.287
 5286WAT     OW15856   0.393   1.409   2.837
 5286WAT    HW115857   0.372   1.366   2.925
 5286WAT    HW215858   0.467   1.475   2.848
 5287WAT     OW15859   4.234   5.794   4.578
 5287WAT    HW115860   4.258   5.738   4.658
 5287WAT    HW215861   4.138   5.821   4.584
 5288WAT     OW15862   0.277   2.179   0.737
 5288WAT    HW115863   0.360   2.158   0.686
 5288WAT    HW215864   0.197   2.169   0.678
 5289WAT     OW15865   6.227   3.842   3.930
 5289WAT    HW115866   6.284   3.903   3.985
 5289WAT    HW215867   6.159   3.797   3.989
 5290WAT     OW15868   5.894   4.187   3.030
 5290WAT    HW115869   5.921   4.195   2.934
 5290WAT    HW215870   5.945   4.113   3.073
 5291WAT     OW15871   1.520   5.023   1.351
 5291WAT    HW115872   1.443   4.979   1.303
 5291WAT    HW215873   1.551   5.101   1.298
 5292WAT     OW15874   5.515   3.692   1.903
 5292WAT    HW115875   5.511   3.698   2.003
 5292WAT    HW215876   5.457   3.763   1.863
 5293WAT     OW15877   5.495   5.844   5.031
 5293WAT    HW115878   5.526   5.759   4.987
 5293WAT    HW215879   5.571   5.887   5.079
 5294WAT     OW15880   0.518   3.108   0.165
 5294WAT    HW115881   0.493   3.198   0.201
 5294WAT    HW215882   0.529   3.114   0.066
 5295WAT     OW15883   2.633   1.415   1.056
 5295WAT    HW115884   2.609   1.426   1.152
 5295WAT    HW215885   2.561   1.365   1.008
 5296WAT     OW15886   1.765   5.230   0.453
 5296WAT    HW115887   1.823   5.163   0.498
 5296WAT    HW215888   1.677   5.188   0.430
 5297WAT     OW15889   2.936   6.147   6.293
 5297WAT    HW115890   3.034   6.137   6.276
 5297WAT    HW215891   2.921   6.216   6.363
 5298WAT     OW15892   4.739   6.242   6.308
 5298WAT    HW115893   4.776   6.318   6.254
 5298WAT    HW215894   4.806   6.167   6.309
 5299WAT     OW15895   1.844   3.094   0.934
 5299WAT    HW115896   1.859   3.027   0.861
 5299WAT    HW215897   1.933   3.129   0.965
 5300WAT     OW15898   4.770   5.311   3.700
 5300WAT    HW115899   4.780   5.407   3.726
 5300WAT    HW215900   4.675   5.295   3.671
 5301WAT     OW15901   5.340   2.565   6.059
 5301WAT    HW115902   5.395   2.644   6.030
 5301WAT    HW215903   5.386   2.481   6.032
 5302WAT     OW15904   4.892   4.755   2.866
 5302WAT    HW115905   4.823   4.774   2.936
 5302WAT    HW215906   4.853   4.773   2.775
 5303WAT     OW15907   2.729   4.438   4.017
 5303WAT    HW115908   2.650   4.489   4.051
 5303WAT    HW215909   2.812   4.491   4.031
 5304WAT     OW15910   0.536   4.450   2.059
 5304WAT    HW115911   0.604   4.465   2.131
 5304WAT    HW215912   0.539   4.355   2.029
 5305WAT     OW15913   5.905   6.368   1.248
 5305WAT    HW115914   5.890   6.278   1.207
 5305WAT    HW215915   5.892   6.439   1.178
 5306WAT     OW15916   5.143   5.576   6.215
 5306WAT    HW115917   5.161   5.646   6.145
 5306WAT    HW215918   5.101   5.496   6.172
 5307WAT     OW15919   3.279   6.062   2.511
 5307WAT    HW115920   3.327   6.097   2.591
 5307WAT    HW215921   3.341   6.064   2.432
 5308WAT     OW15922   0.733   3.987   0.003
 5308WAT    HW115923   0.729   4.087   0.009
 5308WAT    HW215924   0.740   3.959  -0.092
 5309WAT     OW15925   2.052   3.655   5.202
 5309WAT    HW115926   2.102   3.662   5.288
 5309WAT    HW215927   2.117   3.662   5.126
 5310WAT     OW15928   1.075   2.409   3.169
 5310WAT    HW115929   0.978   2.429   3.152
 5310WAT    HW215930   1.113   2.479   3.229
 5311WAT     OW15931   0.990   4.485   6.006
 5311WAT    HW115932   0.924   4.456   5.937
 5311WAT    HW215933   1.082   4.486   5.966
 5312WAT     OW15934   2.230   0.423   4.622
 5312WAT    HW115935   2.153   0.459   4.570
 5312WAT    HW215936   2.282   0.499   4.662
 5313WAT     OW15937   0.606   4.817   6.144
 5313WAT    HW115938   0.533   4.763   6.102
 5313WAT    HW215939   0.644   4.767   6.221
 5314WAT     OW15940   0.571   5.090   6.187
 5314WAT    HW115941   0.553   5.084   6.285
 5314WAT    HW215942   0.585   4.998   6.150
 5315WAT     OW15943   2.210   2.309   5.128
 5315WAT    HW115944   2.257   2.229   5.092
 5315WAT    HW215945   2.238   2.325   5.223
 5316WAT     OW15946   3.453   4.180   0.064
 5316WAT    HW115947   3.461   4.140   0.155
 5316WAT    HW215948   3.417   4.113   0.000
 5317WAT     OW15949   4.517   2.720   3.992
 5317WAT    HW115950   4.502   2.654   3.919
 5317WAT    HW215951   4.571   2.797   3.958
 5318WAT     OW15952   5.471   4.836   0.083
 5318WAT    HW115953   5.456   4.914   0.022
 5318WAT    HW215954   5.567   4.834   0.111
 5319WAT     OW15955   5.717   5.966   4.662
 5319WAT    HW115956   5.783   6.008   4.599
 5319WAT    HW215957   5.694   6.031   4.734
 5320WAT     OW15958   1.288   1.615   4.557
 5320WAT    HW115959   1.213   1.553   4.579
 5320WAT    HW215960   1.262   1.709   4.581
 5321WAT     OW15961   4.658   0.197   4.581
 5321WAT    HW115962   4.687   0.111   4.538
 5321WAT    HW215963   4.558   0.201   4.584
 5322WAT     OW15964   1.934   5.694   3.403
 5322WAT    HW115965   1.917   5.750   3.484
 5322WAT    HW215966   1.955   5.600   3.432
 5323WAT     OW15967   3.557   4.426   1.814
 5323WAT    HW115968   3.598   4.420   1.723
 5323WAT    HW215969   3.598   4.358   1.874
 5324WAT     OW15970   0.621   1.832   5.071
 5324WAT    HW115971   0.712   1.848   5.110
 5324WAT    HW215972   0.579   1.754   5.117
 5325WAT     OW15973   3.143   6.550   2.928
 5325WAT    HW115974   3.196   6.474   2.964
 5325WAT    HW215975   3.051   6.548   2.966
 5326WAT     OW15976   0.784   1.010   6.019
 5326WAT    HW115977   0.884   1.015   6.024
 5326WAT    HW215978   0.749   1.088   5.966
 5327WAT     OW15979   0.980   6.171   2.670
 5327WAT    HW115980   0.975   6.172   2.770
 5327WAT    HW215981   1.074   6.192   2.642
 5328WAT     OW15982   6.319   5.480   5.418
 5328WAT    HW115983   6.222   5.477   5.394
 5328WAT    HW215984   6.370   5.412   5.365
 5329WAT     OW15985   1.809   0.316   2.144
 5329WAT    HW115986   1.717   0.291   2.113
 5329WAT    HW215987   1.876   0.258   2.098
 5330WAT     OW15988   2.636   0.731   2.916
 5330WAT    HW115989   2.536   0.735   2.918
 5330WAT    HW215990   2.674   0.823   2.926
 5331WAT     OW15991   3.898   2.612   5.679
 5331WAT    HW115992   3.840   2.693   5.681
 5331WAT    HW215993   3.992   2.639   5.660
 5332WAT     OW15994   2.339   0.466   5.085
 5332WAT    HW115995   2.258   0.508   5.043
 5332WAT    HW215996   2.340   0.368   5.065
 5333WAT     OW15997   0.130   6.438   0.566
 5333WAT    HW115998   0.175   6.526   0.583
 5333WAT    HW215999   0.172   6.393   0.487
 5334WAT     OW16000   0.484   6.443   1.086
 5334WAT    HW116001   0.411   6.430   1.019
 5334WAT    HW216002   0.569   6.404   1.051
 5335WAT     OW16003   5.356   0.030   4.370
 5335WAT    HW116004   5.326  -0.064   4.385
 5335WAT    HW216005   5.451   0.040   4.402
 5336WAT     OW16006   0.827   3.243   5.644
 5336WAT    HW116007   0.826   3.301   5.562
 5336WAT    HW216008   0.755   3.273   5.707
 5337WAT     OW16009   0.477   0.466   6.056
 5337WAT    HW116010   0.412   0.496   5.986
 5337WAT    HW216011   0.445   0.499   6.146
 5338WAT     OW16012   4.395   3.959   0.696
 5338WAT    HW116013   4.378   4.025   0.624
 5338WAT    HW216014   4.441   3.879   0.658
 5339WAT     OW16015   1.668   4.581   6.028
 5339WAT    HW116016   1.652   4.483   6.039
 5339WAT    HW216017   1.735   4.596   5.955
 5340WAT     OW16018   1.549   1.202   1.020
 5340WAT    HW116019   1.461   1.245   1.043
 5340WAT    HW216020   1.619   1.236   1.083
 5341WAT     OW16021   2.624   0.121   4.489
 5341WAT    HW116022   2.701   0.119   4.553
 5341WAT    HW216023   2.658   0.135   4.396
 5342WAT     OW16024   0.021   4.985   1.092
 5342WAT    HW116025  -0.019   5.073   1.068
 5342WAT    HW216026   0.100   4.968   1.035
 5343WAT     OW16027   2.986   4.599   2.445
 5343WAT    HW116028   2.995   4.548   2.359
 5343WAT    HW216029   3.051   4.674   2.447
 5344WAT     OW16030   4.574   1.995   4.651
 5344WAT    HW116031   4.640   1.998   4.576
 5344WAT    HW216032   4.614   1.948   4.730
 5345WAT     OW16033   5.878   5.028   6.234
 5345WAT    HW116034   5.947   4.956   6.224
 5345WAT    HW216035   5.805   4.995   6.294
 5346WAT     OW16036   5.681   3.586   0.184
 5346WAT    HW116037   5.754   3.532   0.226
 5346WAT    HW216038   5.613   3.608   0.253
 5347WAT     OW16039   1.985   4.997   1.004
 5347WAT    HW116040   1.925   4.918   0.991
 5347WAT    HW216041   2.079   4.965   1.016
 5348WAT     OW16042   0.360   4.760   3.130
 5348WAT    HW116043   0.417   4.802   3.058
 5348WAT    HW216044   0.400   4.779   3.219
 5349WAT     OW16045   5.372   3.736   0.087
 5349WAT    HW116046   5.452   3.730   0.028
 5349WAT    HW216047   5.391   3.798   0.163
 5350WAT     OW16048   0.316   4.697   4.496
 5350WAT    HW116049   0.325   4.601   4.523
 5350WAT    HW216050   0.298   4.703   4.398
 5351WAT     OW16051   5.100   1.161   5.079
 5351WAT    HW116052   5.126   1.123   4.990
 5351WAT    HW216053   5.060   1.089   5.136
 5352WAT     OW16054   3.601   1.267   2.525
 5352WAT    HW116055   3.658   1.199   2.572
 5352WAT    HW216056   3.649   1.300   2.444
 5353WAT     OW16057   5.764   1.833   4.553
 5353WAT    HW116058   5.772   1.931   4.539
 5353WAT    HW216059   5.831   1.803   4.621
 5354WAT     OW16060   6.627   0.562   2.197
 5354WAT    HW116061   6.574   0.647   2.201
 5354WAT    HW216062   6.620   0.523   2.105
 5355WAT     OW16063   0.960   2.386   1.864
 5355WAT    HW116064   0.930   2.340   1.781
 5355WAT    HW216065   0.972   2.484   1.846
 5356WAT     OW16066   4.241   4.319   4.957
 5356WAT    HW116067   4.199   4.341   4.869
 5356WAT    HW216068   4.324   4.266   4.942
 5357WAT     OW16069   5.152   4.456   0.911
 5357WAT    HW116070   5.092   4.530   0.878
 5357WAT    HW216071   5.160   4.386   0.840
 5358WAT     OW16072   1.069   0.541   1.651
 5358WAT    HW116073   1.081   0.537   1.750
 5358WAT    HW216074   1.157   0.531   1.606
 5359WAT     OW16075   4.523   3.180   0.533
 5359WAT    HW116076   4.617   3.212   0.518
 5359WAT    HW216077   4.506   3.099   0.476
 5360WAT     OW16078   2.852   4.833   0.636
 5360WAT    HW116079   2.824   4.777   0.713
 5360WAT    HW216080   2.795   4.916   0.633
 5361WAT     OW16081   2.435   5.447   5.787
 5361WAT    HW116082   2.447   5.444   5.886
 5361WAT    HW216083   2.343   5.414   5.763
 5362WAT     OW16084   0.283   3.579   3.322
 5362WAT    HW116085   0.331   3.492   3.331
 5362WAT    HW216086   0.340   3.644   3.273
 5363WAT     OW16087   3.872   2.129   1.572
 5363WAT    HW116088   3.892   2.167   1.482
 5363WAT    HW216089   3.896   2.195   1.643
 5364WAT     OW16090   4.100   2.503   3.160
 5364WAT    HW116091   4.168   2.566   3.123
 5364WAT    HW216092   4.021   2.499   3.098
 5365WAT     OW16093   3.801   1.287   5.035
 5365WAT    HW116094   3.812   1.367   4.978
 5365WAT    HW216095   3.862   1.293   5.114
 5366WAT     OW16096   3.236   3.998   6.337
 5366WAT    HW116097   3.220   3.900   6.348
 5366WAT    HW216098   3.277   4.015   6.247
 5367WAT     OW16099   0.593   3.792   2.295
 5367WAT    HW116100   0.561   3.872   2.345
 5367WAT    HW216101   0.683   3.811   2.256
 5368WAT     OW16102   1.531   2.410   4.193
 5368WAT    HW116103   1.548   2.464   4.275
 5368WAT    HW216104   1.553   2.464   4.112
 5369WAT     OW16105   2.495   1.930   1.920
 5369WAT    HW116106   2.513   1.949   2.017
 5369WAT    HW216107   2.405   1.967   1.896
 5370WAT     OW16108   2.003   0.640   4.738
 5370WAT    HW116109   2.048   0.729   4.732
 5370WAT    HW216110   2.006   0.595   4.648
 5371WAT     OW16111   6.314   6.084   1.808
 5371WAT    HW116112   6.371   6.109   1.886
 5371WAT    HW216113   6.362   6.018   1.751
 5372WAT     OW16114   1.803   6.671   1.839
 5372WAT    HW116115   1.716   6.678   1.886
 5372WAT    HW216116   1.847   6.584   1.862
 5373WAT     OW16117   2.544   0.385   5.889
 5373WAT    HW116118   2.589   0.425   5.968
 5373WAT    HW216119   2.478   0.450   5.851
 5374WAT     OW16120   3.378   0.976   2.195
 5374WAT    HW116121   3.431   0.904   2.149
 5374WAT    HW216122   3.363   0.949   2.290
 5375WAT     OW16123   1.106   1.154   5.604
 5375WAT    HW116124   1.145   1.072   5.645
 5375WAT    HW216125   1.026   1.130   5.549
 5376WAT     OW16126   1.376   1.748   4.146
 5376WAT    HW116127   1.303   1.817   4.140
 5376WAT    HW216128   1.402   1.719   4.054
 5377WAT     OW16129   5.647   3.988   1.153
 5377WAT    HW116130   5.694   4.059   1.101
 5377WAT    HW216131   5.713   3.920   1.184
 5378WAT     OW16132   0.195   0.201   1.638
 5378WAT    HW116133   0.172   0.146   1.558
 5378WAT    HW216134   0.291   0.187   1.662
 5379WAT     OW16135   1.046   3.261   3.204
 5379WAT    HW116136   1.082   3.211   3.282
 5379WAT    HW216137   0.948   3.243   3.194
 5380WAT     OW16138   5.732   1.935   2.223
 5380WAT    HW116139   5.820   1.974   2.195
 5380WAT    HW216140   5.695   1.880   2.148
 5381WAT     OW16141   5.840   2.581   6.463
 5381WAT    HW116142   5.884   2.670   6.461
 5381WAT    HW216143   5.895   2.518   6.518
 5382WAT     OW16144   5.168   0.571   3.083
 5382WAT    HW116145   5.190   0.554   3.179
 5382WAT    HW216146   5.215   0.503   3.026
 5383WAT     OW16147   0.755   2.673   5.269
 5383WAT    HW116148   0.834   2.697   5.325
 5383WAT    HW216149   0.779   2.597   5.208
 5384WAT     OW16150   3.772   4.066   3.467
 5384WAT    HW116151   3.794   4.163   3.453
 5384WAT    HW216152   3.852   4.019   3.504
 5385WAT     OW16153   1.773   3.157   2.676
 5385WAT    HW116154   1.838   3.122   2.608
 5385WAT    HW216155   1.690   3.101   2.673
 5386WAT     OW16156   3.087   4.476   4.896
 5386WAT    HW116157   2.997   4.468   4.854
 5386WAT    HW216158   3.077   4.513   4.989
 5387WAT     OW16159   2.179   5.341   5.740
 5387WAT    HW116160   2.137   5.281   5.808
 5387WAT    HW216161   2.138   5.432   5.745
 5388WAT     OW16162   2.828   0.435   2.445
 5388WAT    HW116163   2.847   0.353   2.499
 5388WAT    HW216164   2.899   0.446   2.376
 5389WAT     OW16165   3.519   1.898   0.417
 5389WAT    HW116166   3.609   1.871   0.382
 5389WAT    HW216167   3.447   1.850   0.366
 5390WAT     OW16168   3.006   0.445   5.633
 5390WAT    HW116169   3.074   0.507   5.596
 5390WAT    HW216170   2.965   0.484   5.716
 5391WAT     OW16171   6.267   0.896   2.981
 5391WAT    HW116172   6.360   0.917   2.950
 5391WAT    HW216173   6.202   0.952   2.929
 5392WAT     OW16174   5.130   0.594   6.472
 5392WAT    HW116175   5.168   0.523   6.532
 5392WAT    HW216176   5.159   0.684   6.505
 5393WAT     OW16177   0.513   1.647   1.803
 5393WAT    HW116178   0.500   1.570   1.866
 5393WAT    HW216179   0.543   1.612   1.714
 5394WAT     OW16180   6.088   1.615   5.780
 5394WAT    HW116181   6.025   1.549   5.822
 5394WAT    HW216182   6.179   1.604   5.820
 5395WAT     OW16183   0.866   5.382   1.657
 5395WAT    HW116184   0.950   5.407   1.609
 5395WAT    HW216185   0.872   5.410   1.752
 5396WAT     OW16186   5.590   5.559   5.883
 5396WAT    HW116187   5.547   5.584   5.797
 5396WAT    HW216188   5.571   5.629   5.952
 5397WAT     OW16189   2.752   1.503   5.844
 5397WAT    HW116190   2.799   1.499   5.932
 5397WAT    HW216191   2.771   1.420   5.792
 5398WAT     OW16192   1.393   3.664   6.482
 5398WAT    HW116193   1.416   3.757   6.453
 5398WAT    HW216194   1.476   3.610   6.493
 5399WAT     OW16195   6.040   3.353   3.961
 5399WAT    HW116196   6.058   3.403   3.876
 5399WAT    HW216197   6.003   3.416   4.029
 5400WAT     OW16198   3.124   4.915   4.973
 5400WAT    HW116199   3.048   4.909   4.908
 5400WAT    HW216200   3.206   4.872   4.933
 5401WAT     OW16201   4.545   3.685   1.012
 5401WAT    HW116202   4.529   3.734   1.098
 5401WAT    HW216203   4.606   3.739   0.954
 5402WAT     OW16204   0.393   1.050   2.032
 5402WAT    HW116205   0.409   0.960   1.992
 5402WAT    HW216206   0.369   1.115   1.960
 5403WAT     OW16207   4.613   0.489   0.242
 5403WAT    HW116208   4.535   0.443   0.286
 5403WAT    HW216209   4.698   0.462   0.288
 5404WAT     OW16210   4.434   4.207   6.011
 5404WAT    HW116211   4.498   4.278   5.982
 5404WAT    HW216212   4.369   4.247   6.076
 5405WAT     OW16213   1.520   2.620   5.151
 5405WAT    HW116214   1.591   2.549   5.150
 5405WAT    HW216215   1.552   2.696   5.207
 5406WAT     OW16216   3.735   6.566   1.823
 5406WAT    HW116217   3.771   6.551   1.731
 5406WAT    HW216218   3.781   6.505   1.887
 5407WAT     OW16219   1.613   0.938   2.401
 5407WAT    HW116220   1.579   1.014   2.345
 5407WAT    HW216221   1.535   0.889   2.440
 5408WAT     OW16222   1.374   6.077   5.203
 5408WAT    HW116223   1.429   6.014   5.149
 5408WAT    HW216224   1.283   6.086   5.162
 5409WAT     OW16225   4.236   1.120   5.851
 5409WAT    HW116226   4.183   1.137   5.934
 5409WAT    HW216227   4.298   1.042   5.866
 5410WAT     OW16228   3.079   0.283   4.635
 5410WAT    HW116229   3.081   0.379   4.608
 5410WAT    HW216230   3.075   0.277   4.735
 5411WAT     OW16231   6.046   4.108   1.370
 5411WAT    HW116232   5.976   4.155   1.315
 5411WAT    HW216233   6.039   4.138   1.465
 5412WAT     OW16234   5.208   1.172   6.278
 5412WAT    HW116235   5.181   1.237   6.349
 5412WAT    HW216236   5.263   1.100   6.318
 5413WAT     OW16237   5.325   4.781   4.272
 5413WAT    HW116238   5.331   4.878   4.251
 5413WAT    HW216239   5.369   4.728   4.198
 5414WAT     OW16240   3.980   2.781   4.431
 5414WAT    HW116241   3.985   2.873   4.392
 5414WAT    HW216242   4.006   2.714   4.361
 5415WAT     OW16243   5.452   3.091   3.944
 5415WAT    HW116244   5.402   3.047   3.870
 5415WAT    HW216245   5.391   3.104   4.022
 5416WAT     OW16246   2.553   5.167   2.842
 5416WAT    HW116247   2.462   5.203   2.864
 5416WAT    HW216248   2.543   5.077   2.800
 5417WAT     OW16249   4.595   4.608   3.389
 5417WAT    HW116250   4.536   4.619   3.469
 5417WAT    HW216251   4.544   4.564   3.316
 5418WAT     OW16252   3.070   6.643   0.933
 5418WAT    HW116253   3.095   6.595   0.849
 5418WAT    HW216254   3.129   6.612   1.008
 5419WAT     OW16255   2.365   3.354   6.417
 5419WAT    HW116256   2.444   3.390   6.466
 5419WAT    HW216257   2.342   3.263   6.453
 5420WAT     OW16258   0.221   1.440   4.169
 5420WAT    HW116259   0.136   1.463   4.121
 5420WAT    HW216260   0.221   1.484   4.259
 5421WAT     OW16261   2.730   3.016   1.508
 5421WAT    HW116262   2.751   3.033   1.412
 5421WAT    HW216263   2.633   2.993   1.518
 5422WAT     OW16264   0.677   2.543   6.150
 5422WAT    HW116265   0.592   2.563   6.200
 5422WAT    HW216266   0.736   2.487   6.207
 5423WAT     OW16267   0.328   3.551   0.376
 5423WAT    HW116268   0.235   3.553   0.413
 5423WAT    HW216269   0.356   3.644   0.351
 5424WAT     OW16270   5.920   0.399   5.546
 5424WAT    HW116271   5.900   0.478   5.488
 5424WAT    HW216272   5.864   0.404   5.629
 5425WAT     OW16273   0.609   4.802   4.777
 5425WAT    HW116274   0.605   4.801   4.677
 5425WAT    HW216275   0.553   4.877   4.812
 5426WAT     OW16276   6.519   5.851   3.696
 5426WAT    HW116277   6.509   5.928   3.633
 5426WAT    HW216278   6.460   5.866   3.776
 5427WAT     OW16279   1.544   4.045   5.253
 5427WAT    HW116280   1.616   4.089   5.200
 5427WAT    HW216281   1.507   4.110   5.320
 5428WAT     OW16282   1.594   2.755   2.636
 5428WAT    HW116283   1.568   2.852   2.635
 5428WAT    HW216284   1.660   2.739   2.710
 5429WAT     OW16285   6.508   5.508   6.589
 5429WAT    HW116286   6.571   5.530   6.515
 5429WAT    HW216287   6.540   5.549   6.674
 5430WAT     OW16288   1.869   2.000   4.559
 5430WAT    HW116289   1.931   1.987   4.637
 5430WAT    HW216290   1.807   1.921   4.554
 5431WAT     OW16291   6.032   3.753   4.106
 5431WAT    HW116292   6.006   3.659   4.129
 5431WAT    HW216293   5.950   3.805   4.084
 5432WAT     OW16294   0.224   3.893   1.436
 5432WAT    HW116295   0.174   3.831   1.375
 5432WAT    HW216296   0.255   3.973   1.385
 5433WAT     OW16297   3.852   5.646   0.357
 5433WAT    HW116298   3.782   5.650   0.428
 5433WAT    HW216299   3.932   5.699   0.386
 5434WAT     OW16300   0.059   5.589   4.411
 5434WAT    HW116301   0.134   5.523   4.412
 5434WAT    HW216302   0.072   5.653   4.335
 5435WAT     OW16303   4.135   5.038   2.922
 5435WAT    HW116304   4.125   5.108   2.993
 5435WAT    HW216305   4.228   5.043   2.884
 5436WAT     OW16306   3.621   4.811   5.126
 5436WAT    HW116307   3.571   4.895   5.105
 5436WAT    HW216308   3.562   4.749   5.178
 5437WAT     OW16309   2.037   1.950   0.108
 5437WAT    HW116310   2.131   1.918   0.100
 5437WAT    HW216311   1.976   1.887   0.059
 5438WAT     OW16312   5.294   3.908   3.453
 5438WAT    HW116313   5.324   4.001   3.430
 5438WAT    HW216314   5.372   3.857   3.491
 5439WAT     OW16315   2.730   4.788   2.794
 5439WAT    HW116316   2.640   4.828   2.780
 5439WAT    HW216317   2.727   4.690   2.777
 5440WAT     OW16318   2.529   0.520   0.387
 5440WAT    HW116319   2.501   0.550   0.478
 5440WAT    HW216320   2.500   0.425   0.374
 5441WAT     OW16321   3.366   0.482   2.902
 5441WAT    HW116322   3.347   0.476   2.804
 5441WAT    HW216323   3.287   0.448   2.953
 5442WAT     OW16324   2.762   0.792   0.902
 5442WAT    HW116325   2.759   0.888   0.876
 5442WAT    HW216326   2.747   0.736   0.820
 5443WAT     OW16327   0.144   4.675   1.278
 5443WAT    HW116328   0.171   4.587   1.316
 5443WAT    HW216329   0.224   4.721   1.239
 5444WAT     OW16330   3.701   0.342   2.245
 5444WAT    HW116331   3.706   0.363   2.343
 5444WAT    HW216332   3.775   0.388   2.197
 5445WAT     OW16333   5.028   3.052   5.504
 5445WAT    HW116334   5.044   2.966   5.455
 5445WAT    HW216335   5.047   3.039   5.601
 5446WAT     OW16336   6.538   1.738   4.632
 5446WAT    HW116337   6.521   1.833   4.606
 5446WAT    HW216338   6.450   1.692   4.649
 5447WAT     OW16339   1.611   2.561   5.622
 5447WAT    HW116340   1.652   2.508   5.547
 5447WAT    HW216341   1.566   2.499   5.686
 5448WAT     OW16342   0.841   6.452   5.893
 5448WAT    HW116343   0.784   6.521   5.850
 5448WAT    HW216344   0.787   6.400   5.960
 5449WAT     OW16345   4.842   0.805   3.264
 5449WAT    HW116346   4.883   0.737   3.202
 5449WAT    HW216347   4.886   0.893   3.250
 5450WAT     OW16348   0.975   6.587   3.865
 5450WAT    HW116349   0.970   6.686   3.858
 5450WAT    HW216350   0.943   6.558   3.955
 5451WAT     OW16351   2.302   5.072   2.091
 5451WAT    HW116352   2.362   5.112   2.161
 5451WAT    HW216353   2.286   4.976   2.112
 5452WAT     OW16354   4.968   6.668   1.633
 5452WAT    HW116355   4.985   6.743   1.697
 5452WAT    HW216356   4.883   6.687   1.582
 5453WAT     OW16357   0.252   3.218   0.608
 5453WAT    HW116358   0.172   3.242   0.663
 5453WAT    HW216359   0.320   3.291   0.617
 5454WAT     OW16360   4.460   0.524   4.187
 5454WAT    HW116361   4.441   0.546   4.091
 5454WAT    HW216362   4.559   0.519   4.201
 5455WAT     OW16363   6.128   3.802   5.287
 5455WAT    HW116364   6.145   3.704   5.301
 5455WAT    HW216365   6.123   3.821   5.189
 5456WAT     OW16366   4.199   6.252   2.240
 5456WAT    HW116367   4.102   6.228   2.248
 5456WAT    HW216368   4.223   6.317   2.312
 5457WAT     OW16369   2.262   4.325   6.392
 5457WAT    HW116370   2.227   4.368   6.476
 5457WAT    HW216371   2.338   4.378   6.357
 5458WAT     OW16372   0.895   1.521   6.083
 5458WAT    HW116373   0.941   1.470   6.156
 5458WAT    HW216374   0.804   1.482   6.068
 5459WAT     OW16375   3.007   2.385   3.694
 5459WAT    HW116376   3.069   2.464   3.695
 5459WAT    HW216377   3.044   2.314   3.754
 5460WAT     OW16378   1.699   3.470   5.232
 5460WAT    HW116379   1.690   3.566   5.203
 5460WAT    HW216380   1.791   3.437   5.208
 5461WAT     OW16381   4.111   0.782   3.929
 5461WAT    HW116382   4.199   0.817   3.963
 5461WAT    HW216383   4.037   0.841   3.962
 5462WAT     OW16384   1.210   5.084   1.001
 5462WAT    HW116385   1.304   5.110   0.981
 5462WAT    HW216386   1.167   5.155   1.058
 5463WAT     OW16387   1.292   4.380   4.026
 5463WAT    HW116388   1.201   4.372   3.986
 5463WAT    HW216389   1.288   4.440   4.106
 5464WAT     OW16390   0.218   1.666   1.447
 5464WAT    HW116391   0.249   1.588   1.501
 5464WAT    HW216392   0.121   1.653   1.423
 5465WAT     OW16393   3.511   2.327   4.036
 5465WAT    HW116394   3.499   2.360   4.129
 5465WAT    HW216395   3.468   2.237   4.027
 5466WAT     OW16396   5.848   5.167   5.997
 5466WAT    HW116397   5.940   5.166   5.957
 5466WAT    HW216398   5.849   5.117   6.084
 5467WAT     OW16399   6.290   2.915   2.189
 5467WAT    HW116400   6.208   2.948   2.142
 5467WAT    HW216401   6.326   2.988   2.249
 5468WAT     OW16402   2.541   5.695   0.174
 5468WAT    HW116403   2.555   5.597   0.165
 5468WAT    HW216404   2.533   5.719   0.271
 5469WAT     OW16405   2.421   6.001   4.051
 5469WAT    HW116406   2.340   6.025   3.997
 5469WAT    HW216407   2.497   6.059   4.024
 5470WAT     OW16408   6.468   3.680   0.662
 5470WAT    HW116409   6.452   3.646   0.755
 5470WAT    HW216410   6.557   3.724   0.657
 5471WAT     OW16411   4.042   2.855   5.445
 5471WAT    HW116412   4.095   2.797   5.507
 5471WAT    HW216413   4.081   2.947   5.444
 5472WAT     OW16414   4.216   1.289   5.404
 5472WAT    HW116415   4.182   1.231   5.478
 5472WAT    HW216416   4.297   1.248   5.363
 5473WAT     OW16417   1.106   1.353   3.617
 5473WAT    HW116418   1.134   1.264   3.652
 5473WAT    HW216419   1.041   1.340   3.542
 5474WAT     OW16420   0.701   0.349   0.769
 5474WAT    HW116421   0.745   0.275   0.819
 5474WAT    HW216422   0.759   0.376   0.692
 5475WAT     OW16423   0.065   0.432   1.277
 5475WAT    HW116424   0.050   0.420   1.375
 5475WAT    HW216425   0.109   0.351   1.239
 5476WAT     OW16426   6.270   3.224   1.549
 5476WAT    HW116427   6.207   3.295   1.517
 5476WAT    HW216428   6.359   3.236   1.505
 5477WAT     OW16429   0.504   5.562   0.520
 5477WAT    HW116430   0.425   5.553   0.459
 5477WAT    HW216431   0.503   5.651   0.564
 5478WAT     OW16432   4.291   0.514   4.808
 5478WAT    HW116433   4.269   0.419   4.788
 5478WAT    HW216434   4.337   0.520   4.896
 5479WAT     OW16435   2.780   1.840   1.038
 5479WAT    HW116436   2.733   1.770   0.984
 5479WAT    HW216437   2.867   1.804   1.070
 5480WAT     OW16438   5.333   4.716   5.887
 5480WAT    HW116439   5.280   4.642   5.927
 5480WAT    HW216440   5.276   4.766   5.821
 5481WAT     OW16441   0.808   1.806   0.702
 5481WAT    HW116442   0.890   1.792   0.758
 5481WAT    HW216443   0.734   1.748   0.737
 5482WAT     OW16444   0.409   1.962   3.052
 5482WAT    HW116445   0.426   2.038   2.988
 5482WAT    HW216446   0.374   1.999   3.138
 5483WAT     OW16447   3.474   6.076   2.317
 5483WAT    HW116448   3.471   6.091   2.218
 5483WAT    HW216449   3.525   6.150   2.360
 5484WAT     OW16450   1.318   0.572   5.738
 5484WAT    HW116451   1.377   0.563   5.818
 5484WAT    HW216452   1.236   0.624   5.763
 5485WAT     OW16453   5.391   0.003   4.815
 5485WAT    HW116454   5.346   0.079   4.768
 5485WAT    HW216455   5.482  -0.011   4.777
 5486WAT     OW16456   2.397   0.153   5.914
 5486WAT    HW116457   2.447   0.239   5.917
 5486WAT    HW216458   2.346   0.147   5.829
 5487WAT     OW16459   3.243   0.989   6.290
 5487WAT    HW116460   3.313   0.963   6.223
 5487WAT    HW216461   3.199   0.907   6.327
 5488WAT     OW16462   3.121   2.816   1.031
 5488WAT    HW116463   3.084   2.737   0.982
 5488WAT    HW216464   3.111   2.898   0.975
 5489WAT     OW16465   4.788   6.684   4.129
 5489WAT    HW116466   4.800   6.695   4.031
 5489WAT    HW216467   4.690   6.677   4.150
 5490WAT     OW16468   3.251   3.278   4.263
 5490WAT    HW116469   3.250   3.292   4.163
 5490WAT    HW216470   3.305   3.197   4.285
 5491WAT     OW16471   4.304   1.933   4.343
 5491WAT    HW116472   4.328   1.965   4.434
 5491WAT    HW216473   4.212   1.965   4.319
 5492WAT     OW16474   5.344   2.729   0.529
 5492WAT    HW116475   5.351   2.712   0.431
 5492WAT    HW216476   5.249   2.749   0.553
 5493WAT     OW16477   2.368   3.700   1.103
 5493WAT    HW116478   2.363   3.616   1.050
 5493WAT    HW216479   2.368   3.678   1.200
 5494WAT     OW16480   1.846   2.139   1.870
 5494WAT    HW116481   1.900   2.218   1.899
 5494WAT    HW216482   1.905   2.074   1.822
 5495WAT     OW16483   3.540   3.684   3.537
 5495WAT    HW116484   3.600   3.704   3.615
 5495WAT    HW216485   3.445   3.703   3.563
 5496WAT     OW16486   6.348   0.467   0.125
 5496WAT    HW116487   6.296   0.481   0.209
 5496WAT    HW216488   6.342   0.371   0.098
 5497WAT     OW16489   3.128   5.413   3.370
 5497WAT    HW116490   3.110   5.341   3.437
 5497WAT    HW216491   3.041   5.453   3.340
 5498WAT     OW16492   6.067   0.080   5.872
 5498WAT    HW116493   6.044   0.019   5.796
 5498WAT    HW216494   6.151   0.130   5.850
 5499WAT     OW16495   0.939   4.254   5.449
 5499WAT    HW116496   0.983   4.183   5.393
 5499WAT    HW216497   0.990   4.340   5.440
 5500WAT     OW16498   0.775   2.190   2.849
 5500WAT    HW116499   0.772   2.093   2.873
 5500WAT    HW216500   0.774   2.200   2.750
 5501WAT     OW16501   3.439   6.297   0.802
 5501WAT    HW116502   3.376   6.230   0.841
 5501WAT    HW216503   3.422   6.387   0.842
 5502WAT     OW16504   1.780   2.748   5.736
 5502WAT    HW116505   1.710   2.686   5.701
 5502WAT    HW216506   1.845   2.697   5.792
 5503WAT     OW16507   4.280   2.206   5.625
 5503WAT    HW116508   4.374   2.179   5.605
 5503WAT    HW216509   4.265   2.300   5.595
 5504WAT     OW16510   6.674   2.436   6.129
 5504WAT    HW116511   6.702   2.491   6.050
 5504WAT    HW216512   6.667   2.340   6.102
 5505WAT     OW16513   4.827   0.077   1.228
 5505WAT    HW116514   4.778   0.164   1.232
 5505WAT    HW216515   4.922   0.094   1.201
 5506WAT     OW16516   5.045   5.766   2.318
 5506WAT    HW116517   5.042   5.827   2.239
 5506WAT    HW216518   5.069   5.674   2.288
 5507WAT     OW16519   3.398   1.722   2.456
 5507WAT    HW116520   3.401   1.799   2.392
 5507WAT    HW216521   3.393   1.757   2.549
 5508WAT     OW16522   0.233   2.397   0.232
 5508WAT    HW116523   0.263   2.482   0.189
 5508WAT    HW216524   0.230   2.409   0.332
 5509WAT     OW16525   1.374   0.339   1.733
 5509WAT    HW116526   1.371   0.399   1.813
 5509WAT    HW216527   1.345   0.389   1.652
 5510WAT     OW16528   4.025   2.174   3.464
 5510WAT    HW116529   4.037   2.122   3.548
 5510WAT    HW216530   3.937   2.221   3.466
 5511WAT     OW16531   0.331   2.850   2.685
 5511WAT    HW116532   0.274   2.773   2.658
 5511WAT    HW216533   0.414   2.852   2.630
 5512WAT     OW16534   4.753   5.615   1.927
 5512WAT    HW116535   4.665   5.585   1.961
 5512WAT    HW216536   4.773   5.707   1.961
 5513WAT     OW16537   2.390   1.449   0.174
 5513WAT    HW116538   2.301   1.430   0.215
 5513WAT    HW216539   2.393   1.414   0.081
 5514WAT     OW16540   0.150   0.542   6.129
 5514WAT    HW116541   0.060   0.585   6.131
 5514WAT    HW216542   0.190   0.553   6.038
 5515WAT     OW16543   3.766   2.330   3.167
 5515WAT    HW116544   3.801   2.410   3.119
 5515WAT    HW216545   3.771   2.250   3.106
 5516WAT     OW16546   2.242   2.717   0.406
 5516WAT    HW116547   2.165   2.749   0.350
 5516WAT    HW216548   2.225   2.739   0.502
 5517WAT     OW16549   1.745   4.965   1.980
 5517WAT    HW116550   1.797   4.880   1.982
 5517WAT    HW216551   1.721   4.992   2.073
 5518WAT     OW16552   0.483   1.617   5.176
 5518WAT    HW116553   0.444   1.570   5.255
 5518WAT    HW216554   0.410   1.651   5.117
 5519WAT     OW16555   0.566   4.909   3.597
 5519WAT    HW116556   0.659   4.944   3.604
 5519WAT    HW216557   0.503   4.976   3.638
 5520WAT     OW16558   0.521   1.372   4.438
 5520WAT    HW116559   0.514   1.453   4.379
 5520WAT    HW216560   0.544   1.292   4.381
 5521WAT     OW16561   4.894   2.835   2.632
 5521WAT    HW116562   4.932   2.926   2.650
 5521WAT    HW216563   4.869   2.828   2.536
 5522WAT     OW16564   6.347   4.311   2.873
 5522WAT    HW116565   6.263   4.364   2.884
 5522WAT    HW216566   6.412   4.336   2.945
 5523WAT     OW16567   6.140   3.842   5.012
 5523WAT    HW116568   6.076   3.774   4.977
 5523WAT    HW216569   6.121   3.931   4.971
 5524WAT     OW16570   6.419   2.312   1.255
 5524WAT    HW116571   6.510   2.312   1.214
 5524WAT    HW216572   6.380   2.404   1.251
 5525WAT     OW16573   0.829   0.428   2.679
 5525WAT    HW116574   0.780   0.354   2.726
 5525WAT    HW216575   0.841   0.403   2.583
 5526WAT     OW16576   0.167   1.003   6.019
 5526WAT    HW116577   0.202   0.922   6.066
 5526WAT    HW216578   0.227   1.027   5.944
 5527WAT     OW16579   3.378   4.947   5.570
 5527WAT    HW116580   3.354   4.988   5.658
 5527WAT    HW216581   3.448   5.004   5.525
 5528WAT     OW16582   1.317   4.924   1.204
 5528WAT    HW116583   1.262   4.983   1.145
 5528WAT    HW216584   1.333   4.836   1.160
 5529WAT     OW16585   0.525   6.313   0.097
 5529WAT    HW116586   0.526   6.375   0.020
 5529WAT    HW216587   0.601   6.334   0.159
 5530WAT     OW16588   5.095   2.101   0.357
 5530WAT    HW116589   5.119   2.197   0.369
 5530WAT    HW216590   5.153   2.044   0.415
 5531WAT     OW16591   0.772   1.406   3.045
 5531WAT    HW116592   0.721   1.320   3.051
 5531WAT    HW216593   0.795   1.437   3.138
 5532WAT     OW16594   3.597   3.245   4.270
 5532WAT    HW116595   3.694   3.258   4.252
 5532WAT    HW216596   3.553   3.204   4.190
 5533WAT     OW16597   1.477   5.343   6.309
 5533WAT    HW116598   1.533   5.329   6.228
 5533WAT    HW216599   1.518   5.413   6.368
 5534WAT     OW16600   3.548   5.851   0.382
 5534WAT    HW116601   3.449   5.860   0.377
 5534WAT    HW216602   3.572   5.765   0.427
 5535WAT     OW16603   5.975   5.003   5.647
 5535WAT    HW116604   5.884   5.038   5.671
 5535WAT    HW216605   5.991   5.015   5.549
 5536WAT     OW16606   2.996   2.119   5.868
 5536WAT    HW116607   3.037   2.039   5.914
 5536WAT    HW216608   2.912   2.091   5.822
 5537WAT     OW16609   3.527   3.880   1.129
 5537WAT    HW116610   3.442   3.915   1.169
 5537WAT    HW216611   3.605   3.918   1.179
 5538WAT     OW16612   5.035   3.004   5.152
 5538WAT    HW116613   5.028   2.905   5.146
 5538WAT    HW216614   5.131   3.032   5.145
 5539WAT     OW16615   0.788   6.514   6.208
 5539WAT    HW116616   0.789   6.604   6.251
 5539WAT    HW216617   0.874   6.466   6.228
 5540WAT     OW16618   4.662   6.479   1.885
 5540WAT    HW116619   4.563   6.477   1.894
 5540WAT    HW216620   4.700   6.389   1.907
 5541WAT     OW16621   0.820   2.817   0.081
 5541WAT    HW116622   0.888   2.743   0.090
 5541WAT    HW216623   0.769   2.825   0.167
 5542WAT     OW16624   0.682   2.384   3.796
 5542WAT    HW116625   0.740   2.303   3.796
 5542WAT    HW216626   0.624   2.384   3.877
 5543WAT     OW16627   2.712   1.626   4.042
 5543WAT    HW116628   2.626   1.634   3.991
 5543WAT    HW216629   2.732   1.529   4.058
 5544WAT     OW16630   2.554   2.399   0.707
 5544WAT    HW116631   2.596   2.318   0.749
 5544WAT    HW216632   2.468   2.372   0.664
 5545WAT     OW16633   6.438   1.760   4.349
 5545WAT    HW116634   6.499   1.695   4.395
 5545WAT    HW216635   6.440   1.848   4.397
 5546WAT     OW16636   0.990   2.366   2.539
 5546WAT    HW116637   0.985   2.464   2.560
 5546WAT    HW216638   0.986   2.354   2.440
 5547WAT     OW16639   6.495   6.318   0.115
 5547WAT    HW116640   6.539   6.333   0.026
 5547WAT    HW216641   6.528   6.232   0.154
 5548WAT     OW16642   0.689   0.115   1.151
 5548WAT    HW116643   0.744   0.047   1.200
 5548WAT    HW216644   0.658   0.185   1.216
 5549WAT     OW16645   0.425   0.702   1.654
 5549WAT    HW116646   0.515   0.741   1.638
 5549WAT    HW216647   0.432   0.602   1.656
 5550WAT     OW16648   5.767   1.466   0.157
 5550WAT    HW116649   5.811   1.554   0.137
 5550WAT    HW216650   5.818   1.392   0.113
 5551WAT     OW16651   3.363   0.277   5.871
 5551WAT    HW116652   3.392   0.295   5.965
 5551WAT    HW216653   3.412   0.199   5.835
 5552WAT     OW16654   6.479   1.230   3.462
 5552WAT    HW116655   6.380   1.243   3.455
 5552WAT    HW216656   6.509   1.261   3.552
 5553WAT     OW16657   0.798   1.236   4.705
 5553WAT    HW116658   0.701   1.245   4.729
 5553WAT    HW216659   0.854   1.275   4.778
 5554WAT     OW16660   6.330   5.467   1.311
 5554WAT    HW116661   6.285   5.408   1.379
 5554WAT    HW216662   6.426   5.479   1.337
 5555WAT     OW16663   6.644   1.846   4.964
 5555WAT    HW116664   6.645   1.755   4.923
 5555WAT    HW216665   6.571   1.851   5.033
 5556WAT     OW16666   6.141   4.968   4.303
 5556WAT    HW116667   6.198   5.011   4.233
 5556WAT    HW216668   6.051   4.947   4.264
 5557WAT     OW16669   2.483   1.164   2.477
 5557WAT    HW116670   2.474   1.240   2.542
 5557WAT    HW216671   2.529   1.088   2.522
 5558WAT     OW16672   4.781   4.328   5.467
 5558WAT    HW116673   4.757   4.247   5.412
 5558WAT    HW216674   4.859   4.374   5.424
 5559WAT     OW16675   5.778   2.653   1.599
 5559WAT    HW116676   5.776   2.738   1.652
 5559WAT    HW216677   5.774   2.675   1.501
 5560WAT     OW16678   2.705   5.027   6.621
 5560WAT    HW116679   2.688   5.046   6.718
 5560WAT    HW216680   2.780   5.084   6.589
 5561WAT     OW16681   2.778   3.060   5.495
 5561WAT    HW116682   2.710   2.990   5.476
 5561WAT    HW216683   2.869   3.024   5.479
 5562WAT     OW16684   4.989   1.481   5.440
 5562WAT    HW116685   4.938   1.516   5.361
 5562WAT    HW216686   4.925   1.458   5.513
 5563WAT     OW16687   0.350   0.817   0.602
 5563WAT    HW116688   0.295   0.749   0.555
 5563WAT    HW216689   0.318   0.826   0.696
 5564WAT     OW16690   2.230   4.825   2.170
 5564WAT    HW116691   2.137   4.823   2.206
 5564WAT    HW216692   2.262   4.731   2.155
 5565WAT     OW16693   6.295   6.095   3.065
 5565WAT    HW116694   6.253   6.104   2.975
 5565WAT    HW216695   6.230   6.053   3.129
 5566WAT     OW16696   0.368   2.432   1.139
 5566WAT    HW116697   0.411   2.383   1.215
 5566WAT    HW216698   0.284   2.475   1.170
 5567WAT     OW16699   2.964   6.265   3.681
 5567WAT    HW116700   2.920   6.175   3.677
 5567WAT    HW216701   2.932   6.313   3.763
 5568WAT     OW16702   6.490   3.648   2.815
 5568WAT    HW116703   6.444   3.567   2.778
 5568WAT    HW216704   6.573   3.666   2.763
 5569WAT     OW16705   2.671   2.827   3.282
 5569WAT    HW116706   2.704   2.817   3.188
 5569WAT    HW216707   2.678   2.739   3.329
 5570WAT     OW16708   0.669   1.529   0.410
 5570WAT    HW116709   0.610   1.542   0.490
 5570WAT    HW216710   0.629   1.462   0.348
 5571WAT     OW16711   1.201   4.929   5.256
 5571WAT    HW116712   1.246   4.942   5.344
 5571WAT    HW216713   1.124   4.992   5.249
 5572WAT     OW16714   4.650   2.571   3.262
 5572WAT    HW116715   4.667   2.479   3.227
 5572WAT    HW216716   4.556   2.576   3.296
 5573WAT     OW16717   2.181   4.462   6.621
 5573WAT    HW116718   2.086   4.441   6.643
 5573WAT    HW216719   2.235   4.460   6.705
 5574WAT     OW16720   0.571   6.506   3.823
 5574WAT    HW116721   0.596   6.451   3.903
 5574WAT    HW216722   0.648   6.508   3.759
 5575WAT     OW16723   3.853   3.899   2.710
 5575WAT    HW116724   3.830   3.913   2.807
 5575WAT    HW216725   3.819   3.976   2.656
 5576WAT     OW16726   2.286   3.328   5.985
 5576WAT    HW116727   2.365   3.323   6.046
 5576WAT    HW216728   2.306   3.388   5.908
 5577WAT     OW16729   1.275   1.903   0.273
 5577WAT    HW116730   1.178   1.881   0.263
 5577WAT    HW216731   1.331   1.822   0.256
 5578WAT     OW16732   5.638   0.432   2.434
 5578WAT    HW116733   5.701   0.478   2.496
 5578WAT    HW216734   5.547   0.428   2.476
 5579WAT     OW16735   6.060   3.983   3.759
 5579WAT    HW116736   6.127   3.935   3.816
 5579WAT    HW216737   6.049   3.935   3.672
 5580WAT     OW16738   4.496   1.755   6.013
 5580WAT    HW116739   4.496   1.656   6.005
 5580WAT    HW216740   4.409   1.792   5.980
 5581WAT     OW16741   5.924   6.260   6.325
 5581WAT    HW116742   5.966   6.337   6.276
 5581WAT    HW216743   5.988   6.183   6.328
 5582WAT     OW16744   0.813   5.160   3.298
 5582WAT    HW116745   0.766   5.215   3.367
 5582WAT    HW216746   0.770   5.070   3.291
 5583WAT     OW16747   3.036   6.318   5.377
 5583WAT    HW116748   3.042   6.327   5.476
 5583WAT    HW216749   3.127   6.324   5.337
 5584WAT     OW16750   1.295   6.024   3.747
 5584WAT    HW116751   1.326   6.083   3.821
 5584WAT    HW216752   1.195   6.029   3.739
 5585WAT     OW16753   1.879   2.671   4.727
 5585WAT    HW116754   1.944   2.743   4.751
 5585WAT    HW216755   1.788   2.711   4.715
 5586WAT     OW16756   5.898   3.507   4.149
 5586WAT    HW116757   5.812   3.558   4.160
 5586WAT    HW216758   5.900   3.430   4.213
 5587WAT     OW16759   5.794   3.873   4.069
 5587WAT    HW116760   5.728   3.798   4.079
 5587WAT    HW216761   5.777   3.920   3.982
 5588WAT     OW16762   0.023   4.022   2.944
 5588WAT    HW116763   0.057   4.032   2.851
 5588WAT    HW216764  -0.076   4.040   2.946
 5589WAT     OW16765   6.157   2.570   1.443
 5589WAT    HW116766   6.189   2.645   1.501
 5589WAT    HW216767   6.215   2.563   1.362
 5590WAT     OW16768   1.880   1.433   3.449
 5590WAT    HW116769   1.934   1.415   3.366
 5590WAT    HW216770   1.898   1.526   3.481
 5591WAT     OW16771   4.632   1.092   5.991
 5591WAT    HW116772   4.705   1.028   6.017
 5591WAT    HW216773   4.652   1.129   5.900
 5592WAT     OW16774   5.677   5.009   3.646
 5592WAT    HW116775   5.625   5.084   3.604
 5592WAT    HW216776   5.735   5.046   3.719
 5593WAT     OW16777   5.566   0.383   3.145
 5593WAT    HW116778   5.481   0.332   3.158
 5593WAT    HW216779   5.548   0.481   3.155
 5594WAT     OW16780   3.160   3.358   4.898
 5594WAT    HW116781   3.188   3.338   4.804
 5594WAT    HW216782   3.228   3.418   4.941
 5595WAT     OW16783   3.590   1.502   5.249
 5595WAT    HW116784   3.590   1.464   5.342
 5595WAT    HW216785   3.684   1.527   5.224
 5596WAT     OW16786   1.344   3.552   5.088
 5596WAT    HW116787   1.361   3.627   5.024
 5596WAT    HW216788   1.357   3.585   5.182
 5597WAT     OW16789   6.106   1.292   2.375
 5597WAT    HW116790   6.012   1.324   2.369
 5597WAT    HW216791   6.165   1.354   2.323
 5598WAT     OW16792   2.107   4.291   3.028
 5598WAT    HW116793   2.193   4.247   3.054
 5598WAT    HW216794   2.102   4.298   2.929
 5599WAT     OW16795   6.523   0.316   5.650
 5599WAT    HW116796   6.534   0.248   5.578
 5599WAT    HW216797   6.560   0.403   5.620
 5600WAT     OW16798   1.089   4.564   6.384
 5600WAT    HW116799   1.069   4.468   6.363
 5600WAT    HW216800   1.036   4.623   6.322
 5601WAT     OW16801   4.507   6.381   3.490
 5601WAT    HW116802   4.459   6.468   3.485
 5601WAT    HW216803   4.598   6.395   3.527
 5602WAT     OW16804   3.903   1.845   0.972
 5602WAT    HW116805   3.818   1.819   0.926
 5602WAT    HW216806   3.979   1.835   0.908
 5603WAT     OW16807   6.438   5.962   1.334
 5603WAT    HW116808   6.377   5.883   1.334
 5603WAT    HW216809   6.384   6.046   1.334
 5604WAT     OW16810   6.266   4.774   4.967
 5604WAT    HW116811   6.316   4.854   5.001
 5604WAT    HW216812   6.328   4.696   4.962
 5605WAT     OW16813   3.470   1.867   6.538
 5605WAT    HW116814   3.411   1.936   6.496
 5605WAT    HW216815   3.453   1.778   6.495
 5606WAT     OW16816   5.598   3.226   6.201
 5606WAT    HW116817   5.566   3.221   6.106
 5606WAT    HW216818   5.578   3.139   6.247
 5607WAT     OW16819   1.669   5.293   6.110
 5607WAT    HW116820   1.700   5.200   6.091
 5607WAT    HW216821   1.672   5.347   6.026
 5608WAT     OW16822   2.732   5.659   4.477
 5608WAT    HW116823   2.700   5.749   4.507
 5608WAT    HW216824   2.828   5.648   4.500
 5609WAT     OW16825   1.087   4.691   0.943
 5609WAT    HW116826   1.043   4.612   0.987
 5609WAT    HW216827   1.075   4.685   0.844
 5610WAT     OW16828   5.867   4.701   5.059
 5610WAT    HW116829   5.801   4.661   5.123
 5610WAT    HW216830   5.951   4.725   5.107
 5611WAT     OW16831   1.191   4.927   3.393
 5611WAT    HW116832   1.161   5.017   3.362
 5611WAT    HW216833   1.202   4.927   3.492
 5612WAT     OW16834   1.843   0.929   0.918
 5612WAT    HW116835   1.887   0.886   0.838
 5612WAT    HW216836   1.848   1.028   0.910
 5613WAT     OW16837   5.992   3.091   1.279
 5613WAT    HW116838   5.899   3.058   1.290
 5613WAT    HW216839   6.051   3.050   1.350
 5614WAT     OW16840   3.356   1.556   2.228
 5614WAT    HW116841   3.357   1.607   2.314
 5614WAT    HW216842   3.271   1.504   2.221
 5615WAT     OW16843   6.311   3.910   2.211
 5615WAT    HW116844   6.335   3.850   2.287
 5615WAT    HW216845   6.211   3.914   2.202
 5616WAT     OW16846   2.481   6.357   5.319
 5616WAT    HW116847   2.419   6.319   5.387
 5616WAT    HW216848   2.538   6.427   5.361
 5617WAT     OW16849   0.259   2.449   3.460
 5617WAT    HW116850   0.347   2.455   3.413
 5617WAT    HW216851   0.232   2.353   3.469
 5618WAT     OW16852   5.589   0.848   5.925
 5618WAT    HW116853   5.519   0.833   5.855
 5618WAT    HW216854   5.620   0.761   5.961
 5619WAT     OW16855   2.994   5.583   4.117
 5619WAT    HW116856   2.902   5.595   4.152
 5619WAT    HW216857   3.060   5.590   4.192
 5620WAT     OW16858   1.513   2.136   4.247
 5620WAT    HW116859   1.541   2.232   4.241
 5620WAT    HW216860   1.476   2.107   4.159
 5621WAT     OW16861   5.497   6.339   2.341
 5621WAT    HW116862   5.487   6.397   2.260
 5621WAT    HW216863   5.594   6.331   2.365
 5622WAT     OW16864   2.083   1.243   0.729
 5622WAT    HW116865   2.126   1.305   0.794
 5622WAT    HW216866   2.046   1.296   0.652
 5623WAT     OW16867   0.333   2.892   1.154
 5623WAT    HW116868   0.275   2.892   1.073
 5623WAT    HW216869   0.281   2.858   1.233
 5624WAT     OW16870   0.655   0.369   2.987
 5624WAT    HW116871   0.572   0.416   2.956
 5624WAT    HW216872   0.682   0.301   2.918
 5625WAT     OW16873   5.757   2.581   4.466
 5625WAT    HW116874   5.746   2.534   4.379
 5625WAT    HW216875   5.847   2.623   4.471
 5626WAT     OW16876   3.598   5.260   0.229
 5626WAT    HW116877   3.642   5.350   0.223
 5626WAT    HW216878   3.565   5.233   0.139
 5627WAT     OW16879   0.978   3.015   6.650
 5627WAT    HW116880   0.925   2.951   6.705
 5627WAT    HW216881   1.068   2.974   6.630
 5628WAT     OW16882   6.214   5.243   1.765
 5628WAT    HW116883   6.187   5.272   1.856
 5628WAT    HW216884   6.305   5.202   1.768
 5629WAT     OW16885   6.245   4.518   3.193
 5629WAT    HW116886   6.341   4.536   3.173
 5629WAT    HW216887   6.208   4.594   3.248
 5630WAT     OW16888   5.149   3.535   2.633
 5630WAT    HW116889   5.245   3.531   2.606
 5630WAT    HW216890   5.134   3.479   2.714
 5631WAT     OW16891   1.806   0.034   4.309
 5631WAT    HW116892   1.793   0.131   4.327
 5631WAT    HW216893   1.868  -0.005   4.378
 5632WAT     OW16894   1.490   5.351   2.660
 5632WAT    HW116895   1.438   5.267   2.646
 5632WAT    HW216896   1.558   5.361   2.587
 5633WAT     OW16897   2.093   0.732   1.051
 5633WAT    HW116898   2.067   0.715   0.956
 5633WAT    HW216899   2.018   0.703   1.111
 5634WAT     OW16900   4.330   3.265   1.093
 5634WAT    HW116901   4.406   3.321   1.128
 5634WAT    HW216902   4.255   3.325   1.065
 5635WAT     OW16903   4.009   1.329   5.228
 5635WAT    HW116904   4.047   1.277   5.151
 5635WAT    HW216905   4.075   1.330   5.303
 5636WAT     OW16906   0.797   5.365   0.897
 5636WAT    HW116907   0.831   5.388   0.989
 5636WAT    HW216908   0.759   5.273   0.898
 5637WAT     OW16909   2.365   1.991   3.491
 5637WAT    HW116910   2.409   2.068   3.445
 5637WAT    HW216911   2.419   1.965   3.571
 5638WAT     OW16912   0.790   0.458   3.697
 5638WAT    HW116913   0.874   0.409   3.676
 5638WAT    HW216914   0.782   0.537   3.635
 5639WAT     OW16915   6.538   6.203   3.333
 5639WAT    HW116916   6.594   6.129   3.295
 5639WAT    HW216917   6.593   6.286   3.340
 5640WAT     OW16918   5.001   1.446   0.178
 5640WAT    HW116919   4.926   1.391   0.142
 5640WAT    HW216920   5.085   1.426   0.127
 5641WAT     OW16921   3.818   0.880   3.864
 5641WAT    HW116922   3.771   0.947   3.921
 5641WAT    HW216923   3.816   0.790   3.910
 5642WAT     OW16924   0.091   3.610   0.500
 5642WAT    HW116925   0.022   3.575   0.437
 5642WAT    HW216926   0.089   3.710   0.500
 5643WAT     OW16927   2.328   2.510   2.727
 5643WAT    HW116928   2.274   2.469   2.800
 5643WAT    HW216929   2.374   2.592   2.762
 5644WAT     OW16930   2.525   5.972   1.600
 5644WAT    HW116931   2.496   6.040   1.533
 5644WAT    HW216932   2.444   5.927   1.639
 5645WAT     OW16933   0.375   4.096   6.670
 5645WAT    HW116934   0.422   4.063   6.588
 5645WAT    HW216935   0.336   4.018   6.720
 5646WAT     OW16936   3.933   3.798   6.172
 5646WAT    HW116937   4.009   3.863   6.182
 5646WAT    HW216938   3.922   3.775   6.075
 5647WAT     OW16939   6.234   2.077   6.121
 5647WAT    HW116940   6.310   2.118   6.173
 5647WAT    HW216941   6.153   2.134   6.130
 5648WAT     OW16942   5.134   6.286   0.909
 5648WAT    HW116943   5.148   6.311   0.813
 5648WAT    HW216944   5.147   6.187   0.919
 5649WAT     OW16945   6.616   2.547   6.656
 5649WAT    HW116946   6.629   2.476   6.725
 5649WAT    HW216947   6.531   2.530   6.606
 5650WAT     OW16948   1.083   0.032   4.273
 5650WAT    HW116949   1.118  -0.061   4.273
 5650WAT    HW216950   0.988   0.033   4.303
 5651WAT     OW16951   5.174   3.280   5.751
 5651WAT    HW116952   5.255   3.337   5.763
 5651WAT    HW216953   5.202   3.190   5.716
 5652WAT     OW16954   3.861   2.612   0.491
 5652WAT    HW116955   3.796   2.687   0.478
 5652WAT    HW216956   3.853   2.577   0.585
 5653WAT     OW16957   3.999   0.767   5.068
 5653WAT    HW116958   4.038   0.676   5.082
 5653WAT    HW216959   3.942   0.767   4.986
 5654WAT     OW16960   3.825   2.139   4.216
 5654WAT    HW116961   3.839   2.237   4.231
 5654WAT    HW216962   3.729   2.116   4.235
 5655WAT     OW16963   0.057   3.622   1.807
 5655WAT    HW116964  -0.006   3.699   1.812
 5655WAT    HW216965   0.127   3.632   1.878
 5656WAT     OW16966   4.128   1.796   0.824
 5656WAT    HW116967   4.185   1.714   0.814
 5656WAT    HW216968   4.110   1.835   0.734
 5657WAT     OW16969   3.604   1.863   1.121
 5657WAT    HW116970   3.570   1.809   1.198
 5657WAT    HW216971   3.638   1.951   1.153
 5658WAT     OW16972   0.359   4.007   2.872
 5658WAT    HW116973   0.316   3.944   2.937
 5658WAT    HW216974   0.357   4.100   2.909
 5659WAT     OW16975   4.416   4.217   0.131
 5659WAT    HW116976   4.346   4.278   0.170
 5659WAT    HW216977   4.381   4.123   0.130
 5660WAT     OW16978   3.354   3.749   5.915
 5660WAT    HW116979   3.279   3.781   5.857
 5660WAT    HW216980   3.405   3.678   5.867
 5661WAT     OW16981   4.810   2.726   4.656
 5661WAT    HW116982   4.765   2.659   4.597
 5661WAT    HW216983   4.877   2.778   4.602
 5662WAT     OW16984   5.606   4.408   0.831
 5662WAT    HW116985   5.550   4.348   0.888
 5662WAT    HW216986   5.663   4.466   0.890
 5663WAT     OW16987   3.563   5.134   5.501
 5663WAT    HW116988   3.604   5.155   5.412
 5663WAT    HW216989   3.535   5.219   5.545
 5664WAT     OW16990   2.697   1.762   5.213
 5664WAT    HW116991   2.681   1.678   5.162
 5664WAT    HW216992   2.795   1.783   5.213
 5665WAT     OW16993   3.135   2.816   0.686
 5665WAT    HW116994   3.204   2.759   0.730
 5665WAT    HW216995   3.072   2.758   0.635
 5666WAT     OW16996   2.728   5.492   3.753
 5666WAT    HW116997   2.717   5.573   3.810
 5666WAT    HW216998   2.747   5.413   3.811
 5667WAT     OW16999   6.510   3.479   1.754
 5667WAT    HW117000   6.476   3.503   1.664
 5667WAT    HW217001   6.597   3.526   1.771
 5668WAT     OW17002   2.552   0.428   2.420
 5668WAT    HW117003   2.652   0.428   2.426
 5668WAT    HW217004   2.522   0.345   2.373
 5669WAT     OW17005   2.906   3.566   5.165
 5669WAT    HW117006   2.900   3.664   5.147
 5669WAT    HW217007   2.904   3.516   5.078
 5670WAT     OW17008   1.243   0.751   3.562
 5670WAT    HW117009   1.292   0.774   3.478
 5670WAT    HW217010   1.305   0.762   3.640
 5671WAT     OW17011   1.617   0.613   6.315
 5671WAT    HW117012   1.528   0.566   6.319
 5671WAT    HW217013   1.690   0.544   6.315
 5672WAT     OW17014   1.583   1.512   0.615
 5672WAT    HW117015   1.605   1.564   0.532
 5672WAT    HW217016   1.538   1.426   0.589
 5673WAT     OW17017   0.060   1.278   5.574
 5673WAT    HW117018   0.113   1.289   5.658
 5673WAT    HW217019   0.026   1.367   5.544
 5674WAT     OW17020   2.599   6.213   5.889
 5674WAT    HW117021   2.661   6.172   5.955
 5674WAT    HW217022   2.630   6.192   5.796
 5675WAT     OW17023   1.872   0.605   3.367
 5675WAT    HW117024   1.938   0.660   3.418
 5675WAT    HW217025   1.779   0.639   3.384
 5676WAT     OW17026   2.456   3.808   3.707
 5676WAT    HW117027   2.471   3.762   3.795
 5676WAT    HW217028   2.522   3.883   3.698
 5677WAT     OW17029   1.584   4.239   4.205
 5677WAT    HW117030   1.645   4.289   4.143
 5677WAT    HW217031   1.516   4.188   4.152
 5678WAT     OW17032   2.018   2.858   2.804
 5678WAT    HW117033   2.053   2.855   2.710
 5678WAT    HW217034   2.037   2.948   2.843
 5679WAT     OW17035   5.768   4.161   5.850
 5679WAT    HW117036   5.722   4.203   5.928
 5679WAT    HW217037   5.789   4.066   5.871
 5680WAT     OW17038   5.513   2.202   0.457
 5680WAT    HW117039   5.450   2.267   0.499
 5680WAT    HW217040   5.498   2.112   0.497
 5681WAT     OW17041   0.388   5.069   3.732
 5681WAT    HW117042   0.296   5.051   3.768
 5681WAT    HW217043   0.449   5.091   3.808
 5682WAT     OW17044   1.507   5.158   3.766
 5682WAT    HW117045   1.443   5.176   3.692
 5682WAT    HW217046   1.458   5.124   3.846
 5683WAT     OW17047   5.059   4.832   0.259
 5683WAT    HW117048   4.983   4.795   0.206
 5683WAT    HW217049   5.053   4.798   0.353
 5684WAT     OW17050   5.202   3.513   3.184
 5684WAT    HW117051   5.106   3.505   3.158
 5684WAT    HW217052   5.235   3.424   3.217
 5685WAT     OW17053   0.208   2.860   3.531
 5685WAT    HW117054   0.275   2.922   3.490
 5685WAT    HW217055   0.152   2.910   3.598
 5686WAT     OW17056   3.943   3.486   5.127
 5686WAT    HW117057   4.003   3.499   5.049
 5686WAT    HW217058   3.860   3.541   5.116
 5687WAT     OW17059   4.536   1.251   6.202
 5687WAT    HW117060   4.579   1.198   6.129
 5687WAT    HW217061   4.507   1.189   6.275
 5688WAT     OW17062   4.507   6.163   6.189
 5688WAT    HW117063   4.441   6.147   6.263
 5688WAT    HW217064   4.592   6.197   6.228
 5689WAT     OW17065   1.124   4.094   0.066
 5689WAT    HW117066   1.149   4.045  -0.017
 5689WAT    HW217067   1.183   4.174   0.077
 5690WAT     OW17068   2.225   5.999   2.923
 5690WAT    HW117069   2.180   6.023   3.009
 5690WAT    HW217070   2.169   6.029   2.846
 5691WAT     OW17071   2.555   1.909   1.177
 5691WAT    HW117072   2.512   1.827   1.214
 5691WAT    HW217073   2.638   1.884   1.127
 5692WAT     OW17074   4.353   1.954   4.065
 5692WAT    HW117075   4.405   2.036   4.044
 5692WAT    HW217076   4.343   1.945   4.164
 5693WAT     OW17077   1.419   2.898   6.265
 5693WAT    HW117078   1.421   2.926   6.362
 5693WAT    HW217079   1.471   2.814   6.254
 5694WAT     OW17080   5.553   1.484   5.058
 5694WAT    HW117081   5.485   1.504   5.128
 5694WAT    HW217082   5.512   1.427   4.987
 5695WAT     OW17083   4.510   1.443   0.218
 5695WAT    HW117084   4.563   1.526   0.232
 5695WAT    HW217085   4.557   1.365   0.258
 5696WAT     OW17086   6.124   4.949   6.668
 5696WAT    HW117087   6.114   5.029   6.727
 5696WAT    HW217088   6.048   4.887   6.681
 5697WAT     OW17089   2.976   4.788   0.973
 5697WAT    HW117090   2.913   4.733   0.918
 5697WAT    HW217091   2.951   4.781   1.070
 5698WAT     OW17092   2.838   3.097   0.993
 5698WAT    HW117093   2.931   3.083   0.960
 5698WAT    HW217094   2.792   3.164   0.935
 5699WAT     OW17095   3.733   1.672   2.599
 5699WAT    HW117096   3.815   1.618   2.579
 5699WAT    HW217097   3.677   1.622   2.666
 5700WAT     OW17098   2.675   6.484   1.413
 5700WAT    HW117099   2.674   6.450   1.507
 5700WAT    HW217100   2.761   6.458   1.369
 5701WAT     OW17101   1.755   3.160   1.704
 5701WAT    HW117102   1.794   3.195   1.619
 5701WAT    HW217103   1.782   3.219   1.780
 5702WAT     OW17104   4.993   1.422   1.285
 5702WAT    HW117105   5.078   1.470   1.304
 5702WAT    HW217106   5.002   1.326   1.312
 5703WAT     OW17107   3.757   2.206   0.971
 5703WAT    HW117108   3.694   2.178   0.898
 5703WAT    HW217109   3.727   2.166   1.058
 5704WAT     OW17110   6.148   3.601   1.994
 5704WAT    HW117111   6.137   3.527   1.929
 5704WAT    HW217112   6.059   3.623   2.035
 5705WAT     OW17113   3.861   3.294   4.216
 5705WAT    HW117114   3.953   3.274   4.182
 5705WAT    HW217115   3.840   3.390   4.200
 5706WAT     OW17116   1.558   2.594   3.980
 5706WAT    HW117117   1.623   2.635   3.916
 5706WAT    HW217118   1.512   2.666   4.032
 5707WAT     OW17119   3.718   0.320   1.566
 5707WAT    HW117120   3.674   0.244   1.615
 5707WAT    HW217121   3.758   0.286   1.481
 5708WAT     OW17122   4.663   6.274   4.650
 5708WAT    HW117123   4.665   6.206   4.724
 5708WAT    HW217124   4.710   6.357   4.680
 5709WAT     OW17125   1.450   4.677   3.835
 5709WAT    HW117126   1.438   4.732   3.918
 5709WAT    HW217127   1.365   4.677   3.783
 5710WAT     OW17128   4.123   0.536   5.169
 5710WAT    HW117129   4.129   0.437   5.160
 5710WAT    HW217130   4.213   0.573   5.194
 5711WAT     OW17131   5.146   2.194   5.602
 5711WAT    HW117132   5.124   2.276   5.551
 5711WAT    HW217133   5.232   2.155   5.568
 5712WAT     OW17134   4.563   2.174   6.565
 5712WAT    HW117135   4.654   2.197   6.532
 5712WAT    HW217136   4.541   2.231   6.645
 5713WAT     OW17137   0.059   3.510   2.171
 5713WAT    HW117138  -0.028   3.548   2.140
 5713WAT    HW217139   0.050   3.477   2.265
 5714WAT     OW17140   1.597   2.363   4.904
 5714WAT    HW117141   1.641   2.274   4.888
 5714WAT    HW217142   1.628   2.401   4.990
 5715WAT     OW17143   2.716   0.179   6.425
 5715WAT    HW117144   2.698   0.100   6.484
 5715WAT    HW217145   2.697   0.263   6.476
 5716WAT     OW17146   4.887   2.493   5.768
 5716WAT    HW117147   4.814   2.478   5.835
 5716WAT    HW217148   4.975   2.499   5.816
 5717WAT     OW17149   5.086   2.522   6.660
 5717WAT    HW117150   5.040   2.503   6.573
 5717WAT    HW217151   5.138   2.607   6.653
 5718WAT     OW17152   0.324   3.387   6.682
 5718WAT    HW117153   0.397   3.358   6.745
 5718WAT    HW217154   0.325   3.328   6.602
 5719WAT     OW17155   3.936   4.029   4.664
 5719WAT    HW117156   4.024   3.993   4.695
 5719WAT    HW217157   3.925   4.013   4.566
 5720WAT     OW17158   4.076   2.464   6.194
 5720WAT    HW117159   4.112   2.532   6.258
 5720WAT    HW217160   4.143   2.392   6.180
 5721WAT     OW17161   6.450   3.621   0.930
 5721WAT    HW117162   6.408   3.531   0.943
 5721WAT    HW217163   6.500   3.646   1.013
 5722WAT     OW17164   0.523   2.492   5.002
 5722WAT    HW117165   0.502   2.443   4.917
 5722WAT    HW217166   0.438   2.525   5.043
 5723WAT     OW17167   3.707   0.121   5.970
 5723WAT    HW117168   3.760   0.039   5.990
 5723WAT    HW217169   3.640   0.101   5.898
 5724WAT     OW17170   1.133   4.350   2.429
 5724WAT    HW117171   1.143   4.441   2.388
 5724WAT    HW217172   1.045   4.343   2.476
 5725WAT     OW17173   0.044   3.944   1.096
 5725WAT    HW117174   0.075   4.039   1.102
 5725WAT    HW217175   0.104   3.893   1.036
 5726WAT     OW17176   4.829   2.156   1.879
 5726WAT    HW117177   4.880   2.117   1.802
 5726WAT    HW217178   4.747   2.101   1.894
 5727WAT     OW17179   5.680   3.068   2.874
 5727WAT    HW117180   5.666   3.137   2.803
 5727WAT    HW217181   5.721   2.986   2.833
 5728WAT     OW17182   1.173   4.473   1.257
 5728WAT    HW117183   1.180   4.411   1.335
 5728WAT    HW217184   1.262   4.481   1.212
 5729WAT     OW17185   6.674   2.957   4.622
 5729WAT    HW117186   6.620   2.990   4.544
 5729WAT    HW217187   6.737   2.886   4.590
 5730WAT     OW17188   1.491   5.444   2.295
 5730WAT    HW117189   1.557   5.437   2.370
 5730WAT    HW217190   1.472   5.540   2.276
 5731WAT     OW17191   2.734   5.566   2.249
 5731WAT    HW117192   2.750   5.661   2.221
 5731WAT    HW217193   2.645   5.560   2.295
 5732WAT     OW17194   4.975   5.627   4.596
 5732WAT    HW117195   5.034   5.633   4.516
 5732WAT    HW217196   5.030   5.621   4.679
 5733WAT     OW17197   5.716   1.020   6.677
 5733WAT    HW117198   5.802   1.040   6.631
 5733WAT    HW217199   5.640   1.050   6.619
 5734WAT     OW17200   3.810   5.317   5.856
 5734WAT    HW117201   3.739   5.246   5.860
 5734WAT    HW217202   3.898   5.275   5.831
 5735WAT     OW17203   3.501   2.430   1.516
 5735WAT    HW117204   3.593   2.466   1.501
 5735WAT    HW217205   3.438   2.469   1.449
 5736WAT     OW17206   3.406   1.055   6.652
 5736WAT    HW117207   3.471   1.110   6.705
 5736WAT    HW217208   3.360   1.114   6.585
 5737WAT     OW17209   1.140   0.918   1.994
 5737WAT    HW117210   1.077   0.846   2.022
 5737WAT    HW217211   1.089   0.993   1.953
 5738WAT     OW17212   3.320   1.735   2.021
 5738WAT    HW117213   3.248   1.792   2.061
 5738WAT    HW217214   3.349   1.667   2.087
 5739WAT     OW17215   1.362   6.167   2.856
 5739WAT    HW117216   1.422   6.086   2.862
 5739WAT    HW217217   1.299   6.168   2.934
 5740WAT     OW17218   0.715   3.889   6.169
 5740WAT    HW117219   0.765   3.974   6.150
 5740WAT    HW217220   0.622   3.896   6.130
 5741WAT     OW17221   4.242   2.010   6.278
 5741WAT    HW117222   4.208   1.923   6.243
 5741WAT    HW217223   4.328   1.996   6.326
 5742WAT     OW17224   2.299   5.888   4.260
 5742WAT    HW117225   2.346   5.935   4.186
 5742WAT    HW217226   2.225   5.832   4.223
 5743WAT     OW17227   4.802   0.197   4.814
 5743WAT    HW117228   4.741   0.181   4.892
 5743WAT    HW217229   4.748   0.204   4.730
 5744WAT     OW17230   4.542   6.044   2.917
 5744WAT    HW117231   4.606   6.076   2.847
 5744WAT    HW217232   4.498   6.123   2.961
 5745WAT     OW17233   3.436   1.402   4.134
 5745WAT    HW117234   3.444   1.335   4.207
 5745WAT    HW217235   3.511   1.391   4.070
 5746WAT     OW17236   1.668   5.353   1.452
 5746WAT    HW117237   1.589   5.340   1.511
 5746WAT    HW217238   1.751   5.324   1.501
 5747WAT     OW17239   3.275   0.098   4.932
 5747WAT    HW117240   3.193   0.153   4.918
 5747WAT    HW217241   3.348   0.155   4.971
 5748WAT     OW17242   3.792   1.292   5.411
 5748WAT    HW117243   3.869   1.307   5.350
 5748WAT    HW217244   3.816   1.321   5.504
 5749WAT     OW17245   5.826   2.592   5.929
 5749WAT    HW117246   5.753   2.620   5.867
 5749WAT    HW217247   5.898   2.547   5.877
 5750WAT     OW17248   2.905   3.200   3.124
 5750WAT    HW117249   2.935   3.109   3.094
 5750WAT    HW217250   2.812   3.216   3.093
 5751WAT     OW17251   0.898   5.432   1.146
 5751WAT    HW117252   0.942   5.519   1.127
 5751WAT    HW217253   0.846   5.439   1.232
 5752WAT     OW17254   4.053   2.034   4.323
 5752WAT    HW117255   3.969   2.068   4.279
 5752WAT    HW217256   4.029   1.986   4.407
 5753WAT     OW17257   3.224   0.371   1.015
 5753WAT    HW117258   3.255   0.400   1.105
 5753WAT    HW217259   3.205   0.452   0.959
 5754WAT     OW17260   0.182   0.981   2.492
 5754WAT    HW117261   0.128   0.897   2.499
 5754WAT    HW217262   0.193   1.006   2.396
 5755WAT     OW17263   2.039   4.762   0.091
 5755WAT    HW117264   2.111   4.716   0.144
 5755WAT    HW217265   2.037   4.859   0.114
 5756WAT     OW17266   2.079   1.465   5.252
 5756WAT    HW117267   2.145   1.470   5.327
 5756WAT    HW217268   2.065   1.557   5.214
 5757WAT     OW17269   0.365   5.369   5.542
 5757WAT    HW117270   0.363   5.380   5.641
 5757WAT    HW217271   0.327   5.450   5.498
 5758WAT     OW17272   6.453   0.313   1.475
 5758WAT    HW117273   6.546   0.342   1.499
 5758WAT    HW217274   6.448   0.296   1.377
 5759WAT     OW17275   3.015   5.057   0.937
 5759WAT    HW117276   3.070   5.080   0.857
 5759WAT    HW217277   3.001   4.958   0.941
 5760WAT     OW17278   0.722   3.401   4.318
 5760WAT    HW117279   0.652   3.348   4.365
 5760WAT    HW217280   0.752   3.352   4.236
 5761WAT     OW17281   3.011   6.306   0.834
 5761WAT    HW117282   3.052   6.383   0.784
 5761WAT    HW217283   3.039   6.309   0.930
 5762WAT     OW17284   5.895   4.992   2.356
 5762WAT    HW117285   5.960   5.026   2.425
 5762WAT    HW217286   5.806   4.980   2.399
 5763WAT     OW17287   1.634   0.097   6.155
 5763WAT    HW117288   1.669   0.024   6.097
 5763WAT    HW217289   1.674   0.184   6.127
 5764WAT     OW17290   4.656   4.784   6.246
 5764WAT    HW117291   4.720   4.727   6.297
 5764WAT    HW217292   4.612   4.729   6.175
 5765WAT     OW17293   1.794   1.758   5.575
 5765WAT    HW117294   1.824   1.664   5.591
 5765WAT    HW217295   1.802   1.811   5.660
 5766WAT     OW17296   3.529   1.156   4.699
 5766WAT    HW117297   3.482   1.235   4.661
 5766WAT    HW217298   3.489   1.072   4.663
 5767WAT     OW17299   5.959   2.998   3.788
 5767WAT    HW117300   5.937   2.902   3.806
 5767WAT    HW217301   5.909   3.056   3.852
 5768WAT     OW17302   4.400   2.007   3.545
 5768WAT    HW117303   4.495   1.985   3.568
 5768WAT    HW217304   4.379   2.100   3.578
 5769WAT     OW17305   1.216   2.617   6.579
 5769WAT    HW117306   1.173   2.618   6.489
 5769WAT    HW217307   1.144   2.619   6.650
 5770WAT     OW17308   1.588   6.258   0.958
 5770WAT    HW117309   1.637   6.210   1.030
 5770WAT    HW217310   1.618   6.354   0.955
 5771WAT     OW17311   6.301   2.779   4.258
 5771WAT    HW117312   6.305   2.873   4.225
 5771WAT    HW217313   6.359   2.770   4.339
 5772WAT     OW17314   3.716   2.477   0.986
 5772WAT    HW117315   3.730   2.378   0.980
 5772WAT    HW217316   3.619   2.498   0.981
 5773WAT     OW17317   1.319   3.427   0.516
 5773WAT    HW117318   1.271   3.423   0.604
 5773WAT    HW217319   1.400   3.486   0.525
 5774WAT     OW17320   6.397   1.850   3.718
 5774WAT    HW117321   6.457   1.893   3.785
 5774WAT    HW217322   6.302   1.878   3.736
 5775WAT     OW17323   4.241   6.377   4.981
 5775WAT    HW117324   4.235   6.393   5.079
 5775WAT    HW217325   4.287   6.455   4.937
 5776WAT     OW17326   3.073   2.678   5.448
 5776WAT    HW117327   3.135   2.698   5.523
 5776WAT    HW217328   3.031   2.589   5.461
 5777WAT     OW17329   5.589   3.315   4.019
 5777WAT    HW117330   5.526   3.392   4.017
 5777WAT    HW217331   5.542   3.233   3.986
 5778WAT     OW17332   3.881   1.806   1.855
 5778WAT    HW117333   3.975   1.842   1.854
 5778WAT    HW217334   3.829   1.851   1.928
 5779WAT     OW17335   0.730   4.380   5.331
 5779WAT    HW117336   0.654   4.315   5.322
 5779WAT    HW217337   0.809   4.333   5.369
 5780WAT     OW17338   5.503   4.972   0.965
 5780WAT    HW117339   5.404   4.963   0.957
 5780WAT    HW217340   5.525   5.047   1.027
 5781WAT     OW17341   3.814   6.039   2.436
 5781WAT    HW117342   3.750   5.966   2.413
 5781WAT    HW217343   3.903   6.000   2.461
 5782WAT     OW17344   5.847   1.220   1.230
 5782WAT    HW117345   5.939   1.246   1.202
 5782WAT    HW217346   5.780   1.263   1.169
 5783WAT     OW17347   4.365   5.413   0.492
 5783WAT    HW117348   4.342   5.509   0.474
 5783WAT    HW217349   4.296   5.374   0.553
 5784WAT     OW17350   3.707   5.381   3.296
 5784WAT    HW117351   3.643   5.457   3.308
 5784WAT    HW217352   3.664   5.312   3.237
 5785WAT     OW17353   2.100   1.570   6.045
 5785WAT    HW117354   2.001   1.581   6.052
 5785WAT    HW217355   2.144   1.660   6.048
 5786WAT     OW17356   2.282   5.808   0.482
 5786WAT    HW117357   2.222   5.798   0.562
 5786WAT    HW217358   2.239   5.768   0.402
 5787WAT     OW17359   6.578   2.188   3.167
 5787WAT    HW117360   6.484   2.154   3.155
 5787WAT    HW217361   6.640   2.130   3.114
 5788WAT     OW17362   2.420   5.046   6.636
 5788WAT    HW117363   2.355   5.057   6.560
 5788WAT    HW217364   2.513   5.044   6.599
 5789WAT     OW17365   0.241   4.402   0.396
 5789WAT    HW117366   0.302   4.451   0.333
 5789WAT    HW217367   0.166   4.361   0.344
 5790WAT     OW17368   0.039   1.438   6.278
 5790WAT    HW117369  -0.051   1.478   6.260
 5790WAT    HW217370   0.083   1.489   6.352
 5791WAT     OW17371   1.636   4.461   5.676
 5791WAT    HW117372   1.708   4.505   5.730
 5791WAT    HW217373   1.558   4.524   5.668
 5792WAT     OW17374   4.360   1.289   4.211
 5792WAT    HW117375   4.387   1.332   4.297
 5792WAT    HW217376   4.282   1.338   4.172
 5793WAT     OW17377   2.857   6.280   0.589
 5793WAT    HW117378   2.768   6.238   0.606
 5793WAT    HW217379   2.910   6.281   0.674
 5794WAT     OW17380   5.713   1.018   2.943
 5794WAT    HW117381   5.672   1.023   2.852
 5794WAT    HW217382   5.759   0.930   2.954
 5795WAT     OW17383   5.221   5.830   5.000
 5795WAT    HW117384   5.320   5.838   5.012
 5795WAT    HW217385   5.181   5.921   4.990
 5796WAT     OW17386   4.086   6.643   2.389
 5796WAT    HW117387   4.027   6.639   2.308
 5796WAT    HW217388   4.144   6.724   2.384
 5797WAT     OW17389   2.030   5.635   0.896
 5797WAT    HW117390   2.062   5.701   0.828
 5797WAT    HW217391   1.963   5.573   0.855
 5798WAT     OW17392   1.594   2.227   1.809
 5798WAT    HW117393   1.688   2.198   1.827
 5798WAT    HW217394   1.560   2.280   1.887
 5799WAT     OW17395   1.413   6.105   4.566
 5799WAT    HW117396   1.461   6.159   4.497
 5799WAT    HW217397   1.421   6.008   4.543
 5800WAT     OW17398   2.298   1.951   4.718
 5800WAT    HW117399   2.288   1.965   4.620
 5800WAT    HW217400   2.378   1.999   4.752
 5801WAT     OW17401   5.051   5.247   1.364
 5801WAT    HW117402   5.122   5.187   1.327
 5801WAT    HW217403   5.082   5.287   1.450
 5802WAT     OW17404   3.542   5.996   0.626
 5802WAT    HW117405   3.446   6.024   0.629
 5802WAT    HW217406   3.564   5.966   0.533
 5803WAT     OW17407   0.417   6.210   1.237
 5803WAT    HW117408   0.474   6.136   1.201
 5803WAT    HW217409   0.442   6.296   1.192
 5804WAT     OW17410   3.988   5.221   0.137
 5804WAT    HW117411   3.990   5.310   0.183
 5804WAT    HW217412   4.077   5.177   0.146
 5805WAT     OW17413   5.904   2.471   0.791
 5805WAT    HW117414   5.901   2.531   0.711
 5805WAT    HW217415   5.998   2.440   0.807
 5806WAT     OW17416   2.842   4.292   5.179
 5806WAT    HW117417   2.931   4.292   5.226
 5806WAT    HW217418   2.838   4.216   5.114
 5807WAT     OW17419   3.076   5.205   5.332
 5807WAT    HW117420   3.058   5.193   5.429
 5807WAT    HW217421   3.017   5.279   5.297
 5808WAT     OW17422   3.917   4.954   6.052
 5808WAT    HW117423   3.966   4.952   5.965
 5808WAT    HW217424   3.946   5.035   6.104
 5809WAT     OW17425   5.298   3.117   4.160
 5809WAT    HW117426   5.311   3.123   4.259
 5809WAT    HW217427   5.221   3.056   4.141
 5810WAT     OW17428   3.501   0.419   3.133
 5810WAT    HW117429   3.451   0.481   3.194
 5810WAT    HW217430   3.465   0.428   3.040
 5811WAT     OW17431   4.577   0.038   3.281
 5811WAT    HW117432   4.594   0.136   3.287
 5811WAT    HW217433   4.510   0.011   3.350
 5812WAT     OW17434   5.604   1.211   5.666
 5812WAT    HW117435   5.537   1.219   5.592
 5812WAT    HW217436   5.646   1.120   5.664
 5813WAT     OW17437   0.442   3.350   3.322
 5813WAT    HW117438   0.482   3.376   3.233
 5813WAT    HW217439   0.424   3.252   3.323
 5814WAT     OW17440   3.162   0.590   0.866
 5814WAT    HW117441   3.097   0.574   0.792
 5814WAT    HW217442   3.236   0.649   0.833
 5815WAT     OW17443   6.366   6.394   6.141
 5815WAT    HW117444   6.370   6.492   6.120
 5815WAT    HW217445   6.395   6.378   6.235
 5816WAT     OW17446   6.657   4.981   4.924
 5816WAT    HW117447   6.698   5.035   4.851
 5816WAT    HW217448   6.629   4.892   4.888
 5817WAT     OW17449   1.424   4.633   5.620
 5817WAT    HW117450   1.361   4.706   5.648
 5817WAT    HW217451   1.466   4.657   5.533
 5818WAT     OW17452   5.231   1.622   3.811
 5818WAT    HW117453   5.253   1.720   3.817
 5818WAT    HW217454   5.133   1.609   3.823
 5819WAT     OW17455   1.160   2.011   2.898
 5819WAT    HW117456   1.103   1.933   2.872
 5819WAT    HW217457   1.147   2.085   2.831
 5820WAT     OW17458   0.400   5.855   5.342
 5820WAT    HW117459   0.480   5.875   5.398
 5820WAT    HW217460   0.365   5.764   5.364
 5821WAT     OW17461   1.686   0.966   3.535
 5821WAT    HW117462   1.705   1.065   3.532
 5821WAT    HW217463   1.657   0.941   3.628
 5822WAT     OW17464   1.501   1.405   1.571
 5822WAT    HW117465   1.487   1.403   1.472
 5822WAT    HW217466   1.525   1.498   1.600
 5823WAT     OW17467   0.885   0.571   5.853
 5823WAT    HW117468   0.838   0.623   5.781
 5823WAT    HW217469   0.910   0.481   5.819
 5824WAT     OW17470   2.476   4.871   5.162
 5824WAT    HW117471   2.538   4.861   5.084
 5824WAT    HW217472   2.524   4.914   5.238
 5825WAT     OW17473   1.144   5.384   2.708
 5825WAT    HW117474   1.140   5.446   2.630
 5825WAT    HW217475   1.118   5.292   2.679
 5826WAT     OW17476   1.838   3.668   4.684
 5826WAT    HW117477   1.926   3.651   4.729
 5826WAT    HW217478   1.771   3.695   4.753
 5827WAT     OW17479   3.027   2.952   5.429
 5827WAT    HW117480   3.025   2.852   5.431
 5827WAT    HW217481   3.121   2.984   5.443
 5828WAT     OW17482   2.003   3.868   5.808
 5828WAT    HW117483   1.928   3.818   5.850
 5828WAT    HW217484   2.086   3.855   5.862
 5829WAT     OW17485   2.622   5.160   4.283
 5829WAT    HW117486   2.695   5.148   4.351
 5829WAT    HW217487   2.538   5.187   4.330
 5830WAT     OW17488   1.248   1.005   1.647
 5830WAT    HW117489   1.260   1.083   1.709
 5830WAT    HW217490   1.265   0.920   1.697
 5831WAT     OW17491   3.202   4.135   3.200
 5831WAT    HW117492   3.286   4.123   3.145
 5831WAT    HW217493   3.146   4.207   3.159
 5832WAT     OW17494   5.507   0.288   0.753
 5832WAT    HW117495   5.448   0.229   0.809
 5832WAT    HW217496   5.452   0.331   0.682
 5833WAT     OW17497   3.472   2.702   3.926
 5833WAT    HW117498   3.458   2.614   3.881
 5833WAT    HW217499   3.465   2.691   4.025
 5834WAT     OW17500   0.833   3.417   2.371
 5834WAT    HW117501   0.836   3.403   2.273
 5834WAT    HW217502   0.753   3.472   2.395
 5835WAT     OW17503   1.648   1.175   1.617
 5835WAT    HW117504   1.600   1.262   1.602
 5835WAT    HW217505   1.709   1.156   1.540
 5836WAT     OW17506   2.530   0.760   1.561
 5836WAT    HW117507   2.541   0.723   1.654
 5836WAT    HW217508   2.494   0.853   1.567
 5837WAT     OW17509   1.718   4.001   1.570
 5837WAT    HW117510   1.739   4.050   1.484
 5837WAT    HW217511   1.620   4.003   1.586
 5838WAT     OW17512   2.781   2.403   2.247
 5838WAT    HW117513   2.706   2.340   2.227
 5838WAT    HW217514   2.770   2.439   2.340
 5839WAT     OW17515   2.084   4.558   3.106
 5839WAT    HW117516   2.143   4.554   3.187
 5839WAT    HW217517   2.074   4.466   3.067
 5840WAT     OW17518   4.208   3.144   3.695
 5840WAT    HW117519   4.120   3.098   3.682
 5840WAT    HW217520   4.221   3.164   3.792
 5841WAT     OW17521   2.216   6.484   1.495
 5841WAT    HW117522   2.172   6.552   1.552
 5841WAT    HW217523   2.236   6.523   1.405
 5842WAT     OW17524   5.690   2.331   2.913
 5842WAT    HW117525   5.664   2.260   2.979
 5842WAT    HW217526   5.635   2.321   2.830
 5843WAT     OW17527   0.500   1.219   2.406
 5843WAT    HW117528   0.407   1.254   2.397
 5843WAT    HW217529   0.527   1.219   2.502
 5844WAT     OW17530   1.006   6.423   1.640
 5844WAT    HW117531   0.993   6.324   1.638
 5844WAT    HW217532   1.077   6.449   1.574
 5845WAT     OW17533   0.687   5.115   0.905
 5845WAT    HW117534   0.592   5.144   0.894
 5845WAT    HW217535   0.705   5.035   0.847
 5846WAT     OW17536   0.792   3.211   3.470
 5846WAT    HW117537   0.816   3.307   3.481
 5846WAT    HW217538   0.797   3.185   3.374
 5847WAT     OW17539   0.503   0.787   3.775
 5847WAT    HW117540   0.502   0.801   3.676
 5847WAT    HW217541   0.492   0.875   3.821
 5848WAT     OW17542   3.664   2.684   2.131
 5848WAT    HW117543   3.760   2.708   2.112
 5848WAT    HW217544   3.660   2.625   2.212
 5849WAT     OW17545   4.542   1.298   2.412
 5849WAT    HW117546   4.490   1.384   2.413
 5849WAT    HW217547   4.506   1.239   2.340
 5850WAT     OW17548   5.558   1.547   5.777
 5850WAT    HW117549   5.624   1.474   5.796
 5850WAT    HW217550   5.488   1.548   5.848
 5851WAT     OW17551   5.495   3.304   3.322
 5851WAT    HW117552   5.398   3.286   3.308
 5851WAT    HW217553   5.546   3.279   3.239
 5852WAT     OW17554   3.205   2.018   4.874
 5852WAT    HW117555   3.174   2.108   4.842
 5852WAT    HW217556   3.140   1.948   4.846
 5853WAT     OW17557   1.484   4.475   0.658
 5853WAT    HW117558   1.574   4.516   0.672
 5853WAT    HW217559   1.485   4.420   0.574
 5854WAT     OW17560   4.542   6.683   3.704
 5854WAT    HW117561   4.576   6.609   3.761
 5854WAT    HW217562   4.592   6.767   3.726
 5855WAT     OW17563   2.723   1.743   2.261
 5855WAT    HW117564   2.754   1.792   2.343
 5855WAT    HW217565   2.625   1.729   2.266
 5856WAT     OW17566   4.468   2.539   5.307
 5856WAT    HW117567   4.544   2.498   5.256
 5856WAT    HW217568   4.474   2.638   5.302
 5857WAT     OW17569   4.159   0.981   3.352
 5857WAT    HW117570   4.063   0.963   3.374
 5857WAT    HW217571   4.218   0.924   3.409
 5858WAT     OW17572   4.665   0.301   3.284
 5858WAT    HW117573   4.640   0.383   3.232
 5858WAT    HW217574   4.760   0.276   3.263
 5859WAT     OW17575   0.299   2.146   6.583
 5859WAT    HW117576   0.358   2.076   6.542
 5859WAT    HW217577   0.342   2.236   6.575
 5860WAT     OW17578   1.741   5.606   2.943
 5860WAT    HW117579   1.812   5.611   3.014
 5860WAT    HW217580   1.711   5.511   2.934
 5861WAT     OW17581   2.065   1.415   3.238
 5861WAT    HW117582   2.015   1.468   3.170
 5861WAT    HW217583   2.079   1.322   3.206
 5862WAT     OW17584   3.218   3.741   4.579
 5862WAT    HW117585   3.309   3.749   4.619
 5862WAT    HW217586   3.157   3.809   4.620
 5863WAT     OW17587   2.775   1.370   1.967
 5863WAT    HW117588   2.711   1.299   1.998
 5863WAT    HW217589   2.809   1.421   2.047
 5864WAT     OW17590   3.756   0.581   3.079
 5864WAT    HW117591   3.707   0.496   3.099
 5864WAT    HW217592   3.846   0.560   3.042
 5865WAT     OW17593   0.979   5.458   1.902
 5865WAT    HW117594   1.034   5.532   1.864
 5865WAT    HW217595   1.029   5.372   1.894
 5866WAT     OW17596   6.311   5.778   3.312
 5866WAT    HW117597   6.228   5.834   3.306
 5866WAT    HW217598   6.382   5.817   3.254
 5867WAT     OW17599   4.712   6.533   1.138
 5867WAT    HW117600   4.757   6.617   1.168
 5867WAT    HW217601   4.780   6.471   1.100
 5868WAT     OW17602   2.877   5.346   3.056
 5868WAT    HW117603   2.886   5.407   3.135
 5868WAT    HW217604   2.951   5.279   3.057
 5869WAT     OW17605   0.865   3.000   6.388
 5869WAT    HW117606   0.912   2.944   6.320
 5869WAT    HW217607   0.926   3.016   6.466
 5870WAT     OW17608   1.923   2.919   0.699
 5870WAT    HW117609   1.898   2.844   0.638
 5870WAT    HW217610   1.880   3.004   0.668
 5871WAT     OW17611   3.934   5.020   4.802
 5871WAT    HW117612   3.907   4.955   4.873
 5871WAT    HW217613   3.873   5.009   4.723
 5872WAT     OW17614   0.418   5.106   0.147
 5872WAT    HW117615   0.328   5.074   0.116
 5872WAT    HW217616   0.454   5.042   0.215
 5873WAT     OW17617   2.942   2.462   5.186
 5873WAT    HW117618   2.950   2.437   5.282
 5873WAT    HW217619   3.001   2.402   5.131
 5874WAT     OW17620   1.202   3.801   0.456
 5874WAT    HW117621   1.225   3.763   0.546
 5874WAT    HW217622   1.103   3.814   0.450
 5875WAT     OW17623   4.020   6.166   2.660
 5875WAT    HW117624   4.037   6.100   2.588
 5875WAT    HW217625   4.106   6.192   2.704
 5876WAT     OW17626   6.278   0.428   3.213
 5876WAT    HW117627   6.261   0.514   3.165
 5876WAT    HW217628   6.353   0.380   3.168
 5877WAT     OW17629   3.042   2.755   4.502
 5877WAT    HW117630   2.998   2.684   4.558
 5877WAT    HW217631   2.999   2.759   4.412
 5878WAT     OW17632   4.501   4.410   4.283
 5878WAT    HW117633   4.491   4.447   4.190
 5878WAT    HW217634   4.545   4.478   4.341
 5879WAT     OW17635   1.861   1.753   1.646
 5879WAT    HW117636   1.839   1.693   1.723
 5879WAT    HW217637   1.777   1.779   1.599
 5880WAT     OW17638   1.551   3.852   2.850
 5880WAT    HW117639   1.619   3.924   2.836
 5880WAT    HW217640   1.494   3.874   2.929
 5881WAT     OW17641   5.581   5.195   4.332
 5881WAT    HW117642   5.671   5.222   4.367
 5881WAT    HW217643   5.555   5.256   4.257
 5882WAT     OW17644   6.594   5.514   5.834
 5882WAT    HW117645   6.511   5.510   5.778
 5882WAT    HW217646   6.650   5.592   5.805
 5883WAT     OW17647   6.073   1.896   3.442
 5883WAT    HW117648   6.107   1.832   3.373
 5883WAT    HW217649   6.028   1.845   3.516
 5884WAT     OW17650   2.094   3.110   2.888
 5884WAT    HW117651   2.132   3.129   2.979
 5884WAT    HW217652   2.027   3.181   2.865
 5885WAT     OW17653   2.089   4.878   4.888
 5885WAT    HW117654   2.128   4.923   4.968
 5885WAT    HW217655   2.133   4.912   4.805
 5886WAT     OW17656   6.655   2.967   1.380
 5886WAT    HW117657   6.639   2.975   1.479
 5886WAT    HW217658   6.669   3.058   1.342
 5887WAT     OW17659   4.838   1.165   0.501
 5887WAT    HW117660   4.902   1.234   0.468
 5887WAT    HW217661   4.857   1.145   0.597
 5888WAT     OW17662   5.377   3.218   2.188
 5888WAT    HW117663   5.301   3.232   2.251
 5888WAT    HW217664   5.342   3.209   2.095
 5889WAT     OW17665   3.717   0.353   5.693
 5889WAT    HW117666   3.680   0.446   5.692
 5889WAT    HW217667   3.770   0.339   5.777
 5890WAT     OW17668   2.637   4.599   1.064
 5890WAT    HW117669   2.579   4.594   1.145
 5890WAT    HW217670   2.721   4.547   1.080
 5891WAT     OW17671   2.444   6.172   1.437
 5891WAT    HW117672   2.346   6.185   1.449
 5891WAT    HW217673   2.479   6.239   1.371
 5892WAT     OW17674   1.975   5.924   3.869
 5892WAT    HW117675   1.892   5.964   3.908
 5892WAT    HW217676   1.954   5.886   3.779
 5893WAT     OW17677   2.238   5.511   2.154
 5893WAT    HW117678   2.318   5.461   2.120
 5893WAT    HW217679   2.212   5.475   2.244
 5894WAT     OW17680   5.524   2.445   1.994
 5894WAT    HW117681   5.547   2.448   2.091
 5894WAT    HW217682   5.509   2.538   1.960
 5895WAT     OW17683   3.315   1.384   1.612
 5895WAT    HW117684   3.334   1.450   1.685
 5895WAT    HW217685   3.401   1.339   1.587
 5896WAT     OW17686   2.452   1.712   2.292
 5896WAT    HW117687   2.413   1.625   2.259
 5896WAT    HW217688   2.429   1.723   2.389
 5897WAT     OW17689   4.526   4.863   5.041
 5897WAT    HW117690   4.564   4.815   5.120
 5897WAT    HW217691   4.591   4.858   4.965
 5898WAT     OW17692   1.264   6.531   6.590
 5898WAT    HW117693   1.200   6.456   6.611
 5898WAT    HW217694   1.248   6.563   6.497
 5899WAT     OW17695   0.365   6.425   6.067
 5899WAT    HW117696   0.440   6.491   6.058
 5899WAT    HW217697   0.282   6.463   6.026
 5900WAT     OW17698   2.399   5.997   5.231
 5900WAT    HW117699   2.467   5.989   5.157
 5900WAT    HW217700   2.447   6.010   5.318
 5901WAT     OW17701   4.903   2.080   5.686
 5901WAT    HW117702   4.831   2.146   5.704
 5901WAT    HW217703   4.984   2.127   5.651
 5902WAT     OW17704   1.192   1.966   5.890
 5902WAT    HW117705   1.096   1.946   5.869
 5902WAT    HW217706   1.248   1.949   5.809
 5903WAT     OW17707   4.834   1.981   2.959
 5903WAT    HW117708   4.812   1.900   3.014
 5903WAT    HW217709   4.928   1.974   2.926
 5904WAT     OW17710   4.185   2.353   0.678
 5904WAT    HW117711   4.183   2.256   0.700
 5904WAT    HW217712   4.208   2.405   0.761
 5905WAT     OW17713   0.598   4.432   4.574
 5905WAT    HW117714   0.617   4.466   4.666
 5905WAT    HW217715   0.499   4.427   4.560
 5906WAT     OW17716   4.828   2.856   3.625
 5906WAT    HW117717   4.807   2.764   3.592
 5906WAT    HW217718   4.888   2.902   3.560
 5907WAT     OW17719   4.429   3.830   4.645
 5907WAT    HW117720   4.463   3.785   4.727
 5907WAT    HW217721   4.498   3.893   4.611
 5908WAT     OW17722   4.148   5.699   2.537
 5908WAT    HW117723   4.239   5.687   2.497
 5908WAT    HW217724   4.139   5.641   2.617
 5909WAT     OW17725   5.956   3.664   4.922
 5909WAT    HW117726   5.940   3.634   4.828
 5909WAT    HW217727   5.876   3.713   4.956
 5910WAT     OW17728   4.705   5.383   1.279
 5910WAT    HW117729   4.750   5.300   1.248
 5910WAT    HW217730   4.748   5.415   1.364
 5911WAT     OW17731   0.152   3.176   2.910
 5911WAT    HW117732   0.140   3.110   2.836
 5911WAT    HW217733   0.105   3.144   2.992
 5912WAT     OW17734   1.469   6.599   4.743
 5912WAT    HW117735   1.534   6.526   4.764
 5912WAT    HW217736   1.401   6.565   4.677
 5913WAT     OW17737   4.729   5.959   1.079
 5913WAT    HW117738   4.815   5.927   1.039
 5913WAT    HW217739   4.744   5.979   1.176
 5914WAT     OW17740   3.112   1.472   0.511
 5914WAT    HW117741   3.203   1.489   0.550
 5914WAT    HW217742   3.117   1.396   0.447
 5915WAT     OW17743   1.880   1.368   5.409
 5915WAT    HW117744   1.871   1.268   5.404
 5915WAT    HW217745   1.951   1.398   5.346
 5916WAT     OW17746   0.834   2.633   1.023
 5916WAT    HW117747   0.835   2.731   1.045
 5916WAT    HW217748   0.740   2.600   1.026
 5917WAT     OW17749   0.731   3.149   6.194
 5917WAT    HW117750   0.774   3.100   6.270
 5917WAT    HW217751   0.711   3.243   6.221
 5918WAT     OW17752   4.130   3.727   0.745
 5918WAT    HW117753   4.175   3.703   0.832
 5918WAT    HW217754   4.107   3.824   0.745
 5919WAT     OW17755   4.183   3.315   6.596
 5919WAT    HW117756   4.173   3.267   6.683
 5919WAT    HW217757   4.153   3.255   6.521
 5920WAT     OW17758   1.306   3.937   1.210
 5920WAT    HW117759   1.313   3.837   1.220
 5920WAT    HW217760   1.216   3.961   1.175
 5921WAT     OW17761   1.163   0.087   0.636
 5921WAT    HW117762   1.172   0.107   0.538
 5921WAT    HW217763   1.111   0.003   0.649
 5922WAT     OW17764   2.011   4.193   6.169
 5922WAT    HW117765   2.025   4.094   6.169
 5922WAT    HW217766   1.969   4.222   6.255
 5923WAT     OW17767   4.696   2.449   2.783
 5923WAT    HW117768   4.683   2.359   2.741
 5923WAT    HW217769   4.794   2.466   2.794
 5924WAT     OW17770   6.465   5.040   2.454
 5924WAT    HW117771   6.447   4.946   2.425
 5924WAT    HW217772   6.558   5.047   2.489
 5925WAT     OW17773   0.090   5.312   3.908
 5925WAT    HW117774   0.179   5.337   3.945
 5925WAT    HW217775   0.047   5.392   3.866
 5926WAT     OW17776   3.476   4.976   6.560
 5926WAT    HW117777   3.520   4.969   6.471
 5926WAT    HW217778   3.499   5.064   6.602
 5927WAT     OW17779   2.241   2.549   3.255
 5927WAT    HW117780   2.336   2.519   3.266
 5927WAT    HW217781   2.181   2.487   3.306
 5928WAT     OW17782   4.800   6.594   0.066
 5928WAT    HW117783   4.879   6.534   0.060
 5928WAT    HW217784   4.830   6.689   0.062
 5929WAT     OW17785   2.674   4.410   2.356
 5929WAT    HW117786   2.606   4.390   2.286
 5929WAT    HW217787   2.740   4.476   2.320
 5930WAT     OW17788   3.872   4.289   4.713
 5930WAT    HW117789   3.897   4.195   4.690
 5930WAT    HW217790   3.772   4.298   4.711
 5931WAT     OW17791   0.279   2.946   0.655
 5931WAT    HW117792   0.238   2.901   0.576
 5931WAT    HW217793   0.278   3.045   0.642
 5932WAT     OW17794   4.189   3.460   4.965
 5932WAT    HW117795   4.208   3.423   5.056
 5932WAT    HW217796   4.275   3.477   4.917
 5933WAT     OW17797   2.547   0.039   0.196
 5933WAT    HW117798   2.498   0.041   0.109
 5933WAT    HW217799   2.557  -0.056   0.226
 5934WAT     OW17800   3.341   4.564   0.779
 5934WAT    HW117801   3.280   4.545   0.702
 5934WAT    HW217802   3.435   4.545   0.752
 5935WAT     OW17803   1.886   5.896   3.210
 5935WAT    HW117804   1.878   5.828   3.137
 5935WAT    HW217805   1.897   5.849   3.298
 5936WAT     OW17806   6.199   4.874   1.432
 5936WAT    HW117807   6.263   4.949   1.414
 5936WAT    HW217808   6.111   4.913   1.460
 5937WAT     OW17809   6.378   2.504   6.518
 5937WAT    HW117810   6.410   2.518   6.424
 5937WAT    HW217811   6.315   2.427   6.520
 5938WAT     OW17812   1.392   3.100   4.614
 5938WAT    HW117813   1.349   3.105   4.704
 5938WAT    HW217814   1.386   3.007   4.579
 5939WAT     OW17815   3.905   1.210   6.485
 5939WAT    HW117816   3.946   1.301   6.491
 5939WAT    HW217817   3.900   1.170   6.577
 5940WAT     OW17818   5.959   2.842   0.427
 5940WAT    HW117819   5.914   2.864   0.341
 5940WAT    HW217820   6.050   2.882   0.429
 5941WAT     OW17821   4.166   4.039   2.189
 5941WAT    HW117822   4.168   4.016   2.286
 5941WAT    HW217823   4.118   3.967   2.138
 5942WAT     OW17824   1.571   5.868   1.561
 5942WAT    HW117825   1.542   5.821   1.478
 5942WAT    HW217826   1.665   5.842   1.582
 5943WAT     OW17827   1.620   1.929   0.619
 5943WAT    HW117828   1.688   1.896   0.554
 5943WAT    HW217829   1.534   1.880   0.605
 5944WAT     OW17830   0.468   6.503   0.707
 5944WAT    HW117831   0.403   6.562   0.658
 5944WAT    HW217832   0.552   6.554   0.725
 5945WAT     OW17833   0.488   2.786   0.734
 5945WAT    HW117834   0.512   2.807   0.829
 5945WAT    HW217835   0.418   2.851   0.703
 5946WAT     OW17836   3.884   2.169   2.104
 5946WAT    HW117837   3.980   2.147   2.090
 5946WAT    HW217838   3.828   2.090   2.082
 5947WAT     OW17839   3.531   3.728   0.894
 5947WAT    HW117840   3.628   3.706   0.885
 5947WAT    HW217841   3.516   3.775   0.981
 5948WAT     OW17842   0.043   4.556   6.242
 5948WAT    HW117843   0.127   4.609   6.239
 5948WAT    HW217844   0.033   4.515   6.333
 5949WAT     OW17845   4.682   1.633   4.690
 5949WAT    HW117846   4.749   1.569   4.728
 5949WAT    HW217847   4.689   1.721   4.737
 5950WAT     OW17848   5.701   6.682   5.085
 5950WAT    HW117849   5.654   6.595   5.071
 5950WAT    HW217850   5.732   6.718   4.996
 5951WAT     OW17851   4.939   1.502   5.916
 5951WAT    HW117852   5.020   1.558   5.897
 5951WAT    HW217853   4.902   1.527   6.005
 5952WAT     OW17854   0.416   0.527   3.767
 5952WAT    HW117855   0.435   0.624   3.779
 5952WAT    HW217856   0.354   0.496   3.839
 5953WAT     OW17857   1.891   2.768   1.389
 5953WAT    HW117858   1.822   2.703   1.358
 5953WAT    HW217859   1.857   2.862   1.379
 5954WAT     OW17860   0.825   5.772   5.604
 5954WAT    HW117861   0.795   5.694   5.549
 5954WAT    HW217862   0.812   5.753   5.701
 5955WAT     OW17863   4.239   0.119   1.963
 5955WAT    HW117864   4.260   0.174   2.044
 5955WAT    HW217865   4.148   0.079   1.972
 5956WAT     OW17866   5.104   2.975   1.529
 5956WAT    HW117867   5.090   3.066   1.489
 5956WAT    HW217868   5.169   2.982   1.605
 5957WAT     OW17869   0.887   5.096   1.968
 5957WAT    HW117870   0.812   5.154   1.998
 5957WAT    HW217871   0.891   5.096   1.868
 5958WAT     OW17872   1.463   4.434   1.923
 5958WAT    HW117873   1.370   4.424   1.960
 5958WAT    HW217874   1.475   4.370   1.847
 5959WAT     OW17875   6.634   2.163   6.051
 5959WAT    HW117876   6.671   2.074   6.077
 5959WAT    HW217877   6.612   2.163   5.953
 5960WAT     OW17878   4.232   1.795   3.565
 5960WAT    HW117879   4.293   1.873   3.557
 5960WAT    HW217880   4.140   1.827   3.588
 5961WAT     OW17881   3.071   5.294   2.256
 5961WAT    HW117882   3.009   5.334   2.323
 5961WAT    HW217883   3.087   5.359   2.182
 5962WAT     OW17884   2.754   2.641   6.677
 5962WAT    HW117885   2.700   2.677   6.602
 5962WAT    HW217886   2.694   2.598   6.745
 5963WAT     OW17887   4.434   0.670   4.629
 5963WAT    HW117888   4.373   0.618   4.688
 5963WAT    HW217889   4.398   0.672   4.536
 5964WAT     OW17890   5.977   0.525   0.242
 5964WAT    HW117891   6.066   0.509   0.286
 5964WAT    HW217892   5.906   0.533   0.312
 5965WAT     OW17893   4.772   2.536   3.891
 5965WAT    HW117894   4.683   2.561   3.853
 5965WAT    HW217895   4.835   2.513   3.817
 5966WAT     OW17896   3.410   1.023   3.997
 5966WAT    HW117897   3.388   0.929   3.971
 5966WAT    HW217898   3.508   1.038   3.992
 5967WAT     OW17899   0.572   2.880   2.547
 5967WAT    HW117900   0.615   2.797   2.514
 5967WAT    HW217901   0.641   2.939   2.589
 5968WAT     OW17902   6.157   1.909   4.057
 5968WAT    HW117903   6.163   2.008   4.062
 5968WAT    HW217904   6.248   1.869   4.068
 5969WAT     OW17905   2.221   3.067   5.982
 5969WAT    HW117906   2.294   3.016   5.936
 5969WAT    HW217907   2.238   3.165   5.973
 5970WAT     OW17908   3.348   3.897   5.562
 5970WAT    HW117909   3.339   3.848   5.476
 5970WAT    HW217910   3.279   3.864   5.627
 5971WAT     OW17911   3.299   4.356   1.188
 5971WAT    HW117912   3.286   4.453   1.213
 5971WAT    HW217913   3.227   4.302   1.232
 5972WAT     OW17914   1.854   1.793   2.061
 5972WAT    HW117915   1.788   1.865   2.043
 5972WAT    HW217916   1.847   1.723   1.990
 5973WAT     OW17917   2.194   0.273   2.376
 5973WAT    HW117918   2.286   0.241   2.355
 5973WAT    HW217919   2.192   0.311   2.468
 5974WAT     OW17920   1.707   6.218   6.491
 5974WAT    HW117921   1.684   6.289   6.424
 5974WAT    HW217922   1.628   6.159   6.506
 5975WAT     OW17923   6.486   1.981   4.510
 5975WAT    HW117924   6.423   2.059   4.510
 5975WAT    HW217925   6.579   2.014   4.525
 5976WAT     OW17926   4.184   6.371   3.066
 5976WAT    HW117927   4.142   6.281   3.066
 5976WAT    HW217928   4.139   6.429   2.998
 5977WAT     OW17929   3.996   0.935   0.277
 5977WAT    HW117930   4.044   0.903   0.359
 5977WAT    HW217931   3.899   0.917   0.286
 5978WAT     OW17932   2.025   4.544   5.153
 5978WAT    HW117933   2.069   4.465   5.197
 5978WAT    HW217934   2.077   4.571   5.072
 5979WAT     OW17935   2.232   1.788   3.957
 5979WAT    HW117936   2.275   1.772   4.046
 5979WAT    HW217937   2.186   1.878   3.959
 5980WAT     OW17938   1.222   3.635   1.000
 5980WAT    HW117939   1.135   3.650   0.952
 5980WAT    HW217940   1.208   3.645   1.099
 5981WAT     OW17941   5.203   5.743   0.581
 5981WAT    HW117942   5.168   5.710   0.493
 5981WAT    HW217943   5.237   5.837   0.571
 5982WAT     OW17944   5.415   1.831   4.222
 5982WAT    HW117945   5.396   1.763   4.292
 5982WAT    HW217946   5.452   1.914   4.264
 5983WAT     OW17947   0.493   3.991   6.442
 5983WAT    HW117948   0.444   3.924   6.386
 5983WAT    HW217949   0.589   3.964   6.450
 5984WAT     OW17950   5.080   5.559   0.755
 5984WAT    HW117951   5.120   5.632   0.699
 5984WAT    HW217952   5.109   5.470   0.720
 5985WAT     OW17953   3.314   1.247   3.718
 5985WAT    HW117954   3.289   1.239   3.814
 5985WAT    HW217955   3.377   1.172   3.693
 5986WAT     OW17956   6.057   2.543   3.274
 5986WAT    HW117957   6.127   2.598   3.229
 5986WAT    HW217958   6.081   2.530   3.370
 5987WAT     OW17959   5.542   0.651   3.149
 5987WAT    HW117960   5.609   0.690   3.212
 5987WAT    HW217961   5.462   0.711   3.145
 5988WAT     OW17962   0.389   6.065   4.660
 5988WAT    HW117963   0.393   5.971   4.626
 5988WAT    HW217964   0.481   6.096   4.682
 5989WAT     OW17965   0.505   6.356   2.292
 5989WAT    HW117966   0.493   6.360   2.391
 5989WAT    HW217967   0.424   6.396   2.248
 5990WAT     OW17968   1.891   4.116   1.748
 5990WAT    HW117969   1.943   4.181   1.692
 5990WAT    HW217970   1.821   4.072   1.692
 5991WAT     OW17971   4.286   0.543   2.990
 5991WAT    HW117972   4.348   0.465   2.989
 5991WAT    HW217973   4.326   0.618   2.937
 5992WAT     OW17974   3.868   3.012   0.691
 5992WAT    HW117975   3.804   2.976   0.759
 5992WAT    HW217976   3.961   3.012   0.729
 5993WAT     OW17977   1.245   0.309   5.691
 5993WAT    HW117978   1.278   0.404   5.696
 5993WAT    HW217979   1.146   0.308   5.706
 5994WAT     OW17980   0.930   6.521   2.941
 5994WAT    HW117981   0.951   6.618   2.947
 5994WAT    HW217982   1.003   6.474   2.891
 5995WAT     OW17983   2.801   6.075   2.281
 5995WAT    HW117984   2.702   6.085   2.278
 5995WAT    HW217985   2.843   6.139   2.217
 5996WAT     OW17986   2.050   1.392   5.833
 5996WAT    HW117987   2.134   1.353   5.797
 5996WAT    HW217988   2.072   1.461   5.902
 5997WAT     OW17989   1.283   3.201   1.756
 5997WAT    HW117990   1.370   3.187   1.708
 5997WAT    HW217991   1.222   3.125   1.737
 5998WAT     OW17992   0.294   3.483   2.391
 5998WAT    HW117993   0.290   3.386   2.368
 5998WAT    HW217994   0.341   3.494   2.479
 5999WAT     OW17995   5.992   1.773   6.423
 5999WAT    HW117996   5.909   1.793   6.475
 5999WAT    HW217997   6.072   1.787   6.482
 6000WAT     OW17998   1.658   0.233   5.818
 6000WAT    HW117999   1.562   0.205   5.819
 6000WAT    HW218000   1.683   0.268   5.908
 6001WAT     OW18001   2.533   2.931   5.038
 6001WAT    HW118002   2.595   2.982   5.098
 6001WAT    HW218003   2.501   2.991   4.964
 6002WAT     OW18004   1.602   0.774   5.924
 6002WAT    HW118005   1.655   0.791   6.008
 6002WAT    HW218006   1.542   0.696   5.938
 6003WAT     OW18007   5.247   1.390   4.713
 6003WAT    HW118008   5.193   1.403   4.796
 6003WAT    HW218009   5.190   1.348   4.642
 6004WAT     OW18010   3.209   6.444   3.905
 6004WAT    HW118011   3.209   6.344   3.908
 6004WAT    HW218012   3.297   6.477   3.871
 6005WAT     OW18013   6.338   4.848   0.254
 6005WAT    HW118014   6.243   4.818   0.262
 6005WAT    HW218015   6.395   4.772   0.221
 6006WAT     OW18016   5.588   3.535   3.433
 6006WAT    HW118017   5.657   3.509   3.501
 6006WAT    HW218018   5.546   3.453   3.395
 6007WAT     OW18019   0.269   4.964   2.530
 6007WAT    HW118020   0.334   4.998   2.462
 6007WAT    HW218021   0.239   4.872   2.505
 6008WAT     OW18022   2.348   4.704   6.248
 6008WAT    HW118023   2.256   4.732   6.221
 6008WAT    HW218024   2.416   4.761   6.202
 6009WAT     OW18025   4.255   1.009   0.705
 6009WAT    HW118026   4.245   1.098   0.662
 6009WAT    HW218027   4.352   0.991   0.723
 6010WAT     OW18028   5.249   3.873   4.268
 6010WAT    HW118029   5.215   3.904   4.357
 6010WAT    HW218030   5.211   3.930   4.196
 6011WAT     OW18031   1.997   2.679   2.401
 6011WAT    HW118032   1.898   2.669   2.395
 6011WAT    HW218033   2.037   2.595   2.440
 6012WAT     OW18034   5.444   1.904   1.050
 6012WAT    HW118035   5.538   1.910   1.017
 6012WAT    HW218036   5.407   1.996   1.064
 6013WAT     OW18037   3.996   5.810   5.019
 6013WAT    HW118038   4.093   5.829   5.006
 6013WAT    HW218039   3.943   5.890   4.993
 6014WAT     OW18040   3.253   4.354   0.924
 6014WAT    HW118041   3.287   4.438   0.883
 6014WAT    HW218042   3.273   4.354   1.022
 6015WAT     OW18043   1.400   6.284   3.455
 6015WAT    HW118044   1.307   6.288   3.490
 6015WAT    HW218045   1.431   6.189   3.451
 6016WAT     OW18046   0.277   3.865   0.091
 6016WAT    HW118047   0.315   3.785   0.043
 6016WAT    HW218048   0.298   3.858   0.188
 6017WAT     OW18049   3.922   3.342   1.779
 6017WAT    HW118050   3.877   3.347   1.868
 6017WAT    HW218051   3.951   3.433   1.751
 6018WAT     OW18052   6.476   5.904   3.140
 6018WAT    HW118053   6.423   5.981   3.106
 6018WAT    HW218054   6.560   5.937   3.184
 6019WAT     OW18055   0.498   1.755   4.710
 6019WAT    HW118056   0.413   1.771   4.759
 6019WAT    HW218057   0.517   1.657   4.706
 6020WAT     OW18058   5.478   4.379   3.503
 6020WAT    HW118059   5.568   4.336   3.496
 6020WAT    HW218060   5.488   4.478   3.498
 6021WAT     OW18061   0.366   1.483   2.220
 6021WAT    HW118062   0.324   1.425   2.289
 6021WAT    HW218063   0.432   1.545   2.265
 6022WAT     OW18064   6.384   2.919   0.217
 6022WAT    HW118065   6.405   3.015   0.234
 6022WAT    HW218066   6.466   2.872   0.183
 6023WAT     OW18067   0.375   2.103   4.765
 6023WAT    HW118068   0.319   2.021   4.764
 6023WAT    HW218069   0.448   2.093   4.833
 6024WAT     OW18070   6.177   6.266   5.998
 6024WAT    HW118071   6.241   6.314   6.059
 6024WAT    HW218072   6.221   6.252   5.910
 6025WAT     OW18073   0.522   0.549   1.975
 6025WAT    HW118074   0.440   0.491   1.968
 6025WAT    HW218075   0.590   0.518   1.909
 6026WAT     OW18076   5.569   2.209   1.652
 6026WAT    HW118077   5.639   2.245   1.591
 6026WAT    HW218078   5.501   2.158   1.599
 6027WAT     OW18079   5.354   0.378   1.637
 6027WAT    HW118080   5.380   0.351   1.730
 6027WAT    HW218081   5.391   0.469   1.617
 6028WAT     OW18082   2.209   5.190   4.936
 6028WAT    HW118083   2.212   5.116   5.004
 6028WAT    HW218084   2.302   5.221   4.916
 6029WAT     OW18085   6.525   0.898   6.305
 6029WAT    HW118086   6.594   0.970   6.304
 6029WAT    HW218087   6.448   0.925   6.246
 6030WAT     OW18088   5.762   4.508   3.912
 6030WAT    HW118089   5.667   4.522   3.885
 6030WAT    HW218090   5.821   4.570   3.861
 6031WAT     OW18091   2.920   0.127   5.882
 6031WAT    HW118092   2.837   0.155   5.833
 6031WAT    HW218093   3.001   0.159   5.833
 6032WAT     OW18094   6.617   2.783   0.106
 6032WAT    HW118095   6.624   2.698   0.054
 6032WAT    HW218096   6.616   2.861   0.043
 6033WAT     OW18097   0.973   2.922   0.369
 6033WAT    HW118098   0.957   2.932   0.467
 6033WAT    HW218099   0.905   2.974   0.319
 6034WAT     OW18100   1.734   6.665   5.772
 6034WAT    HW118101   1.730   6.622   5.862
 6034WAT    HW218102   1.704   6.760   5.779
 6035WAT     OW18103   0.922   2.197   1.076
 6035WAT    HW118104   0.842   2.206   1.017
 6035WAT    HW218105   0.947   2.286   1.114
 6036WAT     OW18106   2.784   0.431   5.212
 6036WAT    HW118107   2.738   0.515   5.184
 6036WAT    HW218108   2.872   0.423   5.166
 6037WAT     OW18109   5.746   0.184   2.396
 6037WAT    HW118110   5.695   0.270   2.399
 6037WAT    HW218111   5.840   0.201   2.427
 6038WAT     OW18112   4.786   2.411   4.289
 6038WAT    HW118113   4.771   2.369   4.199
 6038WAT    HW218114   4.816   2.342   4.354
 6039WAT     OW18115   4.366   4.997   6.623
 6039WAT    HW118116   4.409   4.973   6.536
 6039WAT    HW218117   4.344   5.095   6.623
 6040WAT     OW18118   2.173   1.945   1.252
 6040WAT    HW118119   2.226   1.978   1.330
 6040WAT    HW218120   2.175   1.845   1.250
 6041WAT     OW18121   5.687   6.560   0.111
 6041WAT    HW118122   5.624   6.633   0.084
 6041WAT    HW218123   5.762   6.599   0.164
 6042WAT     OW18124   4.103   5.408   1.967
 6042WAT    HW118125   4.132   5.335   2.028
 6042WAT    HW218126   4.161   5.488   1.981
 6043WAT     OW18127   1.767   4.809   5.667
 6043WAT    HW118128   1.828   4.882   5.637
 6043WAT    HW218129   1.673   4.843   5.668
 6044WAT     OW18130   2.201   2.476   4.905
 6044WAT    HW118131   2.216   2.421   4.987
 6044WAT    HW218132   2.115   2.449   4.863
 6045WAT     OW18133   4.724   6.160   2.743
 6045WAT    HW118134   4.663   6.202   2.675
 6045WAT    HW218135   4.819   6.178   2.718
 6046WAT     OW18136   5.986   0.716   3.208
 6046WAT    HW118137   6.028   0.756   3.289
 6046WAT    HW218138   6.056   0.679   3.148
 6047WAT     OW18139   1.605   5.406   0.055
 6047WAT    HW118140   1.533   5.343   0.081
 6047WAT    HW218141   1.656   5.435   0.136
 6048WAT     OW18142   3.336   6.235   3.385
 6048WAT    HW118143   3.431   6.254   3.411
 6048WAT    HW218144   3.294   6.318   3.347
 6049WAT     OW18145   5.103   2.415   5.444
 6049WAT    HW118146   5.168   2.422   5.368
 6049WAT    HW218147   5.010   2.419   5.409
 6050WAT     OW18148   3.295   0.929   1.616
 6050WAT    HW118149   3.228   1.002   1.600
 6050WAT    HW218150   3.249   0.852   1.659
 6051WAT     OW18151   2.988   4.013   0.092
 6051WAT    HW118152   3.065   3.955   0.066
 6051WAT    HW218153   2.941   4.045   0.010
 6052WAT     OW18154   1.148   6.318   3.556
 6052WAT    HW118155   1.096   6.398   3.526
 6052WAT    HW218156   1.143   6.311   3.656
 6053WAT     OW18157   1.820   0.423   6.313
 6053WAT    HW118158   1.890   0.361   6.346
 6053WAT    HW218159   1.792   0.396   6.221
 6054WAT     OW18160   2.090   6.096   2.689
 6054WAT    HW118161   2.164   6.041   2.650
 6054WAT    HW218162   2.033   6.131   2.615
 6055WAT     OW18163   4.401   4.304   3.378
 6055WAT    HW118164   4.427   4.337   3.469
 6055WAT    HW218165   4.403   4.380   3.313
 6056WAT     OW18166   4.824   2.205   6.486
 6056WAT    HW118167   4.894   2.225   6.417
 6056WAT    HW218168   4.822   2.106   6.504
 6057WAT     OW18169   1.801   0.443   2.620
 6057WAT    HW118170   1.840   0.409   2.534
 6057WAT    HW218171   1.738   0.518   2.601
 6058WAT     OW18172   6.525   1.240   2.001
 6058WAT    HW118173   6.601   1.235   2.066
 6058WAT    HW218174   6.546   1.307   1.930
 6059WAT     OW18175   5.633   1.416   4.069
 6059WAT    HW118176   5.710   1.427   4.005
 6059WAT    HW218177   5.547   1.422   4.018
 6060WAT     OW18178   2.123   4.244   3.699
 6060WAT    HW118179   2.116   4.328   3.644
 6060WAT    HW218180   2.051   4.180   3.670
 6061WAT     OW18181   6.645   3.124   2.032
 6061WAT    HW118182   6.572   3.185   2.001
 6061WAT    HW218183   6.728   3.178   2.048
 6062WAT     OW18184   5.436   1.582   0.643
 6062WAT    HW118185   5.417   1.586   0.741
 6062WAT    HW218186   5.434   1.486   0.613
 6063WAT     OW18187   0.513   6.175   0.886
 6063WAT    HW118188   0.526   6.203   0.791
 6063WAT    HW218189   0.588   6.210   0.942
 6064WAT     OW18190   2.796   4.193   1.922
 6064WAT    HW118191   2.777   4.105   1.965
 6064WAT    HW218192   2.713   4.249   1.924
 6065WAT     OW18193   3.311   0.601   4.144
 6065WAT    HW118194   3.313   0.618   4.242
 6065WAT    HW218195   3.335   0.505   4.126
 6066WAT     OW18196   3.494   6.383   1.860
 6066WAT    HW118197   3.501   6.301   1.803
 6066WAT    HW218198   3.570   6.444   1.838
 6067WAT     OW18199   6.231   2.630   5.501
 6067WAT    HW118200   6.262   2.544   5.458
 6067WAT    HW218201   6.300   2.661   5.566
 6068WAT     OW18202   1.399   0.783   3.791
 6068WAT    HW118203   1.488   0.828   3.786
 6068WAT    HW218204   1.332   0.847   3.828
 6069WAT     OW18205   6.234   5.286   1.496
 6069WAT    HW118206   6.289   5.210   1.460
 6069WAT    HW218207   6.227   5.277   1.595
 6070WAT     OW18208   2.295   4.006   2.718
 6070WAT    HW118209   2.242   3.960   2.789
 6070WAT    HW218210   2.392   4.005   2.743
 6071WAT     OW18211   3.234   2.196   3.278
 6071WAT    HW118212   3.178   2.278   3.269
 6071WAT    HW218213   3.329   2.218   3.255
 6072WAT     OW18214   1.408   5.995   3.180
 6072WAT    HW118215   1.445   6.009   3.272
 6072WAT    HW218216   1.363   5.905   3.176
 6073WAT     OW18217   3.333   0.199   4.576
 6073WAT    HW118218   3.237   0.223   4.585
 6073WAT    HW218219   3.374   0.190   4.667
 6074WAT     OW18220   2.258   3.164   0.791
 6074WAT    HW118221   2.339   3.223   0.782
 6074WAT    HW218222   2.220   3.146   0.700
 6075WAT     OW18223   2.083   0.966   5.501
 6075WAT    HW118224   2.101   0.912   5.583
 6075WAT    HW218225   2.067   0.906   5.423
 6076WAT     OW18226   2.792   1.735   5.703
 6076WAT    HW118227   2.737   1.733   5.619
 6076WAT    HW218228   2.776   1.652   5.756
 6077WAT     OW18229   6.114   6.672   0.980
 6077WAT    HW118230   6.195   6.628   0.940
 6077WAT    HW218231   6.143   6.744   1.043
 6078WAT     OW18232   2.562   6.378   3.242
 6078WAT    HW118233   2.545   6.357   3.146
 6078WAT    HW218234   2.528   6.469   3.263
 6079WAT     OW18235   3.160   2.635   5.184
 6079WAT    HW118236   3.079   2.579   5.166
 6079WAT    HW218237   3.152   2.676   5.275
 6080WAT     OW18238   3.705   5.151   5.266
 6080WAT    HW118239   3.750   5.062   5.275
 6080WAT    HW218240   3.774   5.223   5.261
 6081WAT     OW18241   1.951   0.391   1.081
 6081WAT    HW118242   1.905   0.412   0.994
 6081WAT    HW218243   1.945   0.471   1.141
 6082WAT     OW18244   2.946   4.567   3.175
 6082WAT    HW118245   2.944   4.641   3.108
 6082WAT    HW218246   2.981   4.602   3.263
 6083WAT     OW18247   3.841   5.769   5.254
 6083WAT    HW118248   3.820   5.677   5.287
 6083WAT    HW218249   3.903   5.763   5.176
 6084WAT     OW18250   3.126   1.221   3.137
 6084WAT    HW118251   3.174   1.254   3.055
 6084WAT    HW218252   3.027   1.234   3.124
 6085WAT     OW18253   3.504   1.932   1.652
 6085WAT    HW118254   3.598   1.907   1.628
 6085WAT    HW218255   3.440   1.875   1.600
 6086WAT     OW18256   1.952   2.420   4.808
 6086WAT    HW118257   1.918   2.511   4.787
 6086WAT    HW218258   1.936   2.359   4.731
 6087WAT     OW18259   3.608   4.520   0.725
 6087WAT    HW118260   3.664   4.508   0.807
 6087WAT    HW218261   3.622   4.612   0.688
 6088WAT     OW18262   2.195   5.190   3.172
 6088WAT    HW118263   2.214   5.251   3.250
 6088WAT    HW218264   2.113   5.222   3.125
 6089WAT     OW18265   4.409   6.564   0.699
 6089WAT    HW118266   4.455   6.631   0.757
 6089WAT    HW218267   4.383   6.607   0.613
 6090WAT     OW18268   4.876   3.576   4.663
 6090WAT    HW118269   4.916   3.517   4.593
 6090WAT    HW218270   4.905   3.670   4.647
 6091WAT     OW18271   6.584   4.261   1.963
 6091WAT    HW118272   6.550   4.217   2.046
 6091WAT    HW218273   6.590   4.193   1.890
 6092WAT     OW18274   5.340   0.936   6.350
 6092WAT    HW118275   5.312   0.885   6.269
 6092WAT    HW218276   5.294   0.899   6.430
 6093WAT     OW18277   1.173   4.107   2.308
 6093WAT    HW118278   1.192   4.042   2.382
 6093WAT    HW218279   1.165   4.199   2.347
 6094WAT     OW18280   2.536   5.480   3.097
 6094WAT    HW118281   2.608   5.548   3.083
 6094WAT    HW218282   2.578   5.391   3.113
 6095WAT     OW18283   6.195   3.668   1.400
 6095WAT    HW118284   6.121   3.727   1.434
 6095WAT    HW218285   6.235   3.708   1.318
 6096WAT     OW18286   1.541   6.253   4.375
 6096WAT    HW118287   1.565   6.204   4.291
 6096WAT    HW218288   1.492   6.337   4.351
 6097WAT     OW18289   4.816   1.726   3.070
 6097WAT    HW118290   4.907   1.689   3.056
 6097WAT    HW218291   4.785   1.704   3.163
 6098WAT     OW18292   5.657   0.758   0.041
 6098WAT    HW118293   5.628   0.713  -0.044
 6098WAT    HW218294   5.668   0.856   0.025
 6099WAT     OW18295   3.048   3.385   3.821
 6099WAT    HW118296   3.122   3.361   3.884
 6099WAT    HW218297   2.961   3.386   3.870
 6100WAT     OW18298   3.799   1.703   3.424
 6100WAT    HW118299   3.835   1.767   3.492
 6100WAT    HW218300   3.832   1.728   3.334
 6101WAT     OW18301   3.215   5.848   3.568
 6101WAT    HW118302   3.119   5.820   3.572
 6101WAT    HW218303   3.220   5.947   3.570
 6102WAT     OW18304   6.270   0.883   4.504
 6102WAT    HW118305   6.313   0.796   4.528
 6102WAT    HW218306   6.316   0.958   4.553
 6103WAT     OW18307   1.269   2.477   6.129
 6103WAT    HW118308   1.363   2.470   6.094
 6103WAT    HW218309   1.215   2.534   6.067
 6104WAT     OW18310   4.022   1.133   4.790
 6104WAT    HW118311   3.931   1.152   4.755
 6104WAT    HW218312   4.055   1.046   4.753
 6105WAT     OW18313   6.463   5.303   5.267
 6105WAT    HW118314   6.553   5.276   5.301
 6105WAT    HW218315   6.460   5.294   5.167
 6106WAT     OW18316   1.083   4.740   6.599
 6106WAT    HW118317   1.086   4.667   6.531
 6106WAT    HW218318   1.158   4.729   6.664
 6107WAT     OW18319   5.601   5.747   6.093
 6107WAT    HW118320   5.649   5.692   6.162
 6107WAT    HW218321   5.669   5.792   6.034
 6108WAT     OW18322   0.863   2.076   0.733
 6108WAT    HW118323   0.800   2.120   0.798
 6108WAT    HW218324   0.835   1.981   0.719
 6109WAT     OW18325   1.140   0.945   4.247
 6109WAT    HW118326   1.165   0.956   4.343
 6109WAT    HW218327   1.132   0.848   4.226
 6110WAT     OW18328   4.523   5.982   4.319
 6110WAT    HW118329   4.517   5.971   4.220
 6110WAT    HW218330   4.432   5.974   4.359
 6111WAT     OW18331   3.143   2.331   5.054
 6111WAT    HW118332   3.125   2.300   4.961
 6111WAT    HW218333   3.233   2.375   5.057
 6112WAT     OW18334   4.871   0.020   3.857
 6112WAT    HW118335   4.965   0.052   3.869
 6112WAT    HW218336   4.817   0.092   3.812
 6113WAT     OW18337   3.897   0.566   6.106
 6113WAT    HW118338   3.987   0.541   6.140
 6113WAT    HW218339   3.866   0.649   6.151
 6114WAT     OW18340   0.034   2.714   1.046
 6114WAT    HW118341   0.097   2.776   1.000
 6114WAT    HW218342  -0.042   2.691   0.985
 6115WAT     OW18343   5.829   4.253   3.963
 6115WAT    HW118344   5.802   4.348   3.948
 6115WAT    HW218345   5.910   4.250   4.021
 6116WAT     OW18346   5.226   2.750   6.627
 6116WAT    HW118347   5.198   2.839   6.591
 6116WAT    HW218348   5.309   2.720   6.581
 6117WAT     OW18349   5.826   3.718   6.480
 6117WAT    HW118350   5.829   3.662   6.398
 6117WAT    HW218351   5.920   3.736   6.511
 6118WAT     OW18352   6.068   0.075   4.828
 6118WAT    HW118353   6.085   0.156   4.773
 6118WAT    HW218354   6.084  -0.007   4.773
 6119WAT     OW18355   3.865   4.271   5.911
 6119WAT    HW118356   3.960   4.294   5.932
 6119WAT    HW218357   3.859   4.177   5.878
 6120WAT     OW18358   3.052   3.909   3.174
 6120WAT    HW118359   3.112   3.986   3.195
 6120WAT    HW218360   3.013   3.921   3.083
 6121WAT     OW18361   6.364   0.992   2.004
 6121WAT    HW118362   6.278   1.003   2.053
 6121WAT    HW218363   6.412   1.080   2.002
 6122WAT     OW18364   0.035   1.388   0.169
 6122WAT    HW118365  -0.043   1.340   0.209
 6122WAT    HW218366   0.050   1.473   0.219
 6123WAT     OW18367   2.057   0.755   3.506
 6123WAT    HW118368   2.075   0.741   3.603
 6123WAT    HW218369   2.070   0.851   3.482
 6124WAT     OW18370   2.810   1.351   4.894
 6124WAT    HW118371   2.775   1.339   4.801
 6124WAT    HW218372   2.898   1.398   4.890
 6125WAT     OW18373   5.172   3.736   3.013
 6125WAT    HW118374   5.196   3.650   3.057
 6125WAT    HW218375   5.160   3.807   3.082
 6126WAT     OW18376   2.631   5.791   1.161
 6126WAT    HW118377   2.648   5.857   1.087
 6126WAT    HW218378   2.549   5.819   1.212
 6127WAT     OW18379   6.315   2.670   2.322
 6127WAT    HW118380   6.328   2.589   2.264
 6127WAT    HW218381   6.305   2.751   2.265
 6128WAT     OW18382   5.474   4.579   4.811
 6128WAT    HW118383   5.398   4.636   4.780
 6128WAT    HW218384   5.553   4.593   4.752
 6129WAT     OW18385   2.643   3.788   2.651
 6129WAT    HW118386   2.742   3.794   2.642
 6129WAT    HW218387   2.600   3.789   2.561
 6130WAT     OW18388   4.149   6.312   1.974
 6130WAT    HW118389   4.057   6.350   1.969
 6130WAT    HW218390   4.171   6.288   2.069
 6131WAT     OW18391   0.912   4.869   4.086
 6131WAT    HW118392   0.882   4.837   3.996
 6131WAT    HW218393   0.905   4.969   4.089
 6132WAT     OW18394   5.513   2.053   4.342
 6132WAT    HW118395   5.495   2.038   4.440
 6132WAT    HW218396   5.602   2.097   4.331
 6133WAT     OW18397   2.657   5.791   2.584
 6133WAT    HW118398   2.723   5.866   2.575
 6133WAT    HW218399   2.611   5.798   2.673
 6134WAT     OW18400   2.532   5.688   0.453
 6134WAT    HW118401   2.446   5.736   0.475
 6134WAT    HW218402   2.517   5.589   0.457
 6135WAT     OW18403   0.282   6.451   0.905
 6135WAT    HW118404   0.213   6.386   0.874
 6135WAT    HW218405   0.345   6.470   0.830
 6136WAT     OW18406   4.227   1.153   2.506
 6136WAT    HW118407   4.319   1.150   2.546
 6136WAT    HW218408   4.207   1.066   2.462
 6137WAT     OW18409   3.331   5.325   0.670
 6137WAT    HW118410   3.410   5.293   0.618
 6137WAT    HW218411   3.360   5.354   0.761
 6138WAT     OW18412   4.931   2.166   5.219
 6138WAT    HW118413   4.847   2.129   5.181
 6138WAT    HW218414   4.912   2.250   5.269
 6139WAT     OW18415   0.977   4.246   3.279
 6139WAT    HW118416   1.018   4.157   3.298
 6139WAT    HW218417   1.047   4.309   3.243
 6140WAT     OW18418   6.442   3.772   4.355
 6140WAT    HW118419   6.473   3.677   4.348
 6140WAT    HW218420   6.375   3.780   4.429
 6141WAT     OW18421   3.081   4.520   1.557
 6141WAT    HW118422   3.030   4.576   1.622
 6141WAT    HW218423   3.166   4.489   1.600
 6142WAT     OW18424   0.224   3.803   0.946
 6142WAT    HW118425   0.304   3.863   0.940
 6142WAT    HW218426   0.252   3.711   0.970
 6143WAT     OW18427   3.753   5.527   5.357
 6143WAT    HW118428   3.744   5.521   5.457
 6143WAT    HW218429   3.808   5.450   5.324
 6144WAT     OW18430   4.538   2.669   1.225
 6144WAT    HW118431   4.516   2.720   1.308
 6144WAT    HW218432   4.473   2.593   1.214
 6145WAT     OW18433   4.422   5.847   0.672
 6145WAT    HW118434   4.522   5.836   0.669
 6145WAT    HW218435   4.395   5.882   0.762
 6146WAT     OW18436   3.180   0.543   3.664
 6146WAT    HW118437   3.201   0.470   3.598
 6146WAT    HW218438   3.167   0.629   3.615
 6147WAT     OW18439   2.819   0.056   5.426
 6147WAT    HW118440   2.798   0.152   5.445
 6147WAT    HW218441   2.904   0.031   5.471
 6148WAT     OW18442   6.001   2.691   4.492
 6148WAT    HW118443   6.012   2.750   4.412
 6148WAT    HW218444   6.047   2.733   4.570
 6149WAT     OW18445   2.242   2.075   2.707
 6149WAT    HW118446   2.241   2.174   2.718
 6149WAT    HW218447   2.307   2.050   2.635
 6150WAT     OW18448   4.792   5.011   1.437
 6150WAT    HW118449   4.882   5.002   1.480
 6150WAT    HW218450   4.802   5.058   1.349
 6151WAT     OW18451   0.988   2.647   4.694
 6151WAT    HW118452   1.054   2.713   4.728
 6151WAT    HW218453   0.915   2.695   4.644
 6152WAT     OW18454   4.814   2.872   5.865
 6152WAT    HW118455   4.779   2.966   5.871
 6152WAT    HW218456   4.800   2.826   5.953
 6153WAT     OW18457   0.749   3.799   2.879
 6153WAT    HW118458   0.755   3.880   2.937
 6153WAT    HW218459   0.824   3.799   2.813
 6154WAT     OW18460   0.205   5.402   3.477
 6154WAT    HW118461   0.228   5.413   3.381
 6154WAT    HW218462   0.184   5.491   3.517
 6155WAT     OW18463   3.906   6.663   4.082
 6155WAT    HW118464   3.982   6.704   4.031
 6155WAT    HW218465   3.825   6.659   4.024
 6156WAT     OW18466   5.055   1.370   0.821
 6156WAT    HW118467   5.054   1.432   0.743
 6156WAT    HW218468   5.008   1.413   0.898
 6157WAT     OW18469   6.337   1.751   0.133
 6157WAT    HW118470   6.306   1.667   0.176
 6157WAT    HW218471   6.437   1.753   0.130
 6158WAT     OW18472   2.742   2.624   5.553
 6158WAT    HW118473   2.767   2.642   5.458
 6158WAT    HW218474   2.791   2.688   5.613
 6159WAT     OW18475   6.083   5.727   3.651
 6159WAT    HW118476   6.112   5.720   3.747
 6159WAT    HW218477   6.077   5.635   3.611
 6160WAT     OW18478   2.287   0.611   1.391
 6160WAT    HW118479   2.316   0.707   1.381
 6160WAT    HW218480   2.190   0.607   1.414
 6161WAT     OW18481   1.290   6.514   0.955
 6161WAT    HW118482   1.364   6.539   0.892
 6161WAT    HW218483   1.214   6.577   0.943
 6162WAT     OW18484   4.667   2.766   3.061
 6162WAT    HW118485   4.754   2.771   3.012
 6162WAT    HW218486   4.675   2.700   3.136
 6163WAT     OW18487   1.769   1.223   3.581
 6163WAT    HW118488   1.849   1.179   3.622
 6163WAT    HW218489   1.799   1.302   3.528
 6164WAT     OW18490   1.823   1.366   2.002
 6164WAT    HW118491   1.835   1.401   2.094
 6164WAT    HW218492   1.773   1.279   2.005
 6165WAT     OW18493   4.427   1.030   0.273
 6165WAT    HW118494   4.428   0.980   0.359
 6165WAT    HW218495   4.428   0.966   0.197
 6166WAT     OW18496   0.259   1.336   4.577
 6166WAT    HW118497   0.358   1.322   4.572
 6166WAT    HW218498   0.234   1.416   4.523
 6167WAT     OW18499   5.552   6.630   0.485
 6167WAT    HW118500   5.497   6.643   0.568
 6167WAT    HW218501   5.554   6.533   0.461
 6168WAT     OW18502   3.929   5.053   0.482
 6168WAT    HW118503   3.877   5.045   0.396
 6168WAT    HW218504   3.943   5.150   0.502
 6169WAT     OW18505   5.954   1.082   6.538
 6169WAT    HW118506   5.989   1.122   6.454
 6169WAT    HW218507   6.010   1.003   6.563
 6170WAT     OW18508   1.334   6.526   1.948
 6170WAT    HW118509   1.285   6.441   1.931
 6170WAT    HW218510   1.295   6.571   2.029
 6171WAT     OW18511   3.441   1.180   2.024
 6171WAT    HW118512   3.418   1.105   2.086
 6171WAT    HW218513   3.446   1.145   1.931
 6172WAT     OW18514   6.005   1.793   6.152
 6172WAT    HW118515   6.104   1.789   6.135
 6172WAT    HW218516   5.987   1.777   6.249
 6173WAT     OW18517   6.565   4.886   6.302
 6173WAT    HW118518   6.665   4.887   6.309
 6173WAT    HW218519   6.526   4.872   6.393
 6174WAT     OW18520   0.501   3.267   2.120
 6174WAT    HW118521   0.472   3.287   2.214
 6174WAT    HW218522   0.584   3.212   2.122
 6175WAT     OW18523   5.858   2.993   1.528
 6175WAT    HW118524   5.826   2.954   1.615
 6175WAT    HW218525   5.957   2.977   1.520
 6176WAT     OW18526   1.620   3.605   4.325
 6176WAT    HW118527   1.679   3.578   4.249
 6176WAT    HW218528   1.646   3.555   4.407
 6177WAT     OW18529   5.943   4.389   1.934
 6177WAT    HW118530   5.871   4.397   1.865
 6177WAT    HW218531   6.017   4.332   1.898
 6178WAT     OW18532   3.984   0.317   1.955
 6178WAT    HW118533   3.930   0.362   1.883
 6178WAT    HW218534   3.985   0.218   1.938
 6179WAT     OW18535   3.648   0.195   3.109
 6179WAT    HW118536   3.598   0.281   3.121
 6179WAT    HW218537   3.720   0.188   3.178
 6180WAT     OW18538   3.205   2.129   5.231
 6180WAT    HW118539   3.174   2.200   5.168
 6180WAT    HW218540   3.190   2.039   5.190
 6181WAT     OW18541   3.221   2.072   1.503
 6181WAT    HW118542   3.283   2.121   1.563
 6181WAT    HW218543   3.136   2.124   1.493
 6182WAT     OW18544   0.556   5.115   3.932
 6182WAT    HW118545   0.623   5.184   3.960
 6182WAT    HW218546   0.570   5.032   3.986
 6183WAT     OW18547   6.209   3.784   0.284
 6183WAT    HW118548   6.136   3.748   0.226
 6183WAT    HW218549   6.208   3.884   0.280
 6184WAT     OW18550   0.835   6.295   5.655
 6184WAT    HW118551   0.866   6.366   5.718
 6184WAT    HW218552   0.786   6.225   5.707
 6185WAT     OW18553   6.214   1.826   6.576
 6185WAT    HW118554   6.239   1.804   6.670
 6185WAT    HW218555   6.290   1.803   6.515
 6186WAT     OW18556   2.374   0.675   5.262
 6186WAT    HW118557   2.373   0.599   5.197
 6186WAT    HW218558   2.370   0.638   5.355
 6187WAT     OW18559   1.995   4.940   6.384
 6187WAT    HW118560   1.988   4.864   6.448
 6187WAT    HW218561   1.904   4.966   6.353
 6188WAT     OW18562   4.422   3.231   2.194
 6188WAT    HW118563   4.441   3.275   2.106
 6188WAT    HW218564   4.361   3.153   2.181
 6189WAT     OW18565   6.324   0.266   0.716
 6189WAT    HW118566   6.275   0.202   0.657
 6189WAT    HW218567   6.391   0.217   0.772
 6190WAT     OW18568   5.973   0.095   1.803
 6190WAT    HW118569   5.952   0.011   1.753
 6190WAT    HW218570   6.061   0.130   1.773
 6191WAT     OW18571   5.124   2.282   4.470
 6191WAT    HW118572   5.180   2.266   4.388
 6191WAT    HW218573   5.028   2.260   4.450
 6192WAT     OW18574   2.374   2.345   3.879
 6192WAT    HW118575   2.424   2.330   3.794
 6192WAT    HW218576   2.276   2.331   3.864
 6193WAT     OW18577   3.760   5.447   1.573
 6193WAT    HW118578   3.826   5.410   1.639
 6193WAT    HW218579   3.667   5.434   1.609
 6194WAT     OW18580   2.484   5.608   5.251
 6194WAT    HW118581   2.394   5.624   5.210
 6194WAT    HW218582   2.472   5.589   5.349
 6195WAT     OW18583   0.683   2.908   5.146
 6195WAT    HW118584   0.706   2.824   5.196
 6195WAT    HW218585   0.604   2.951   5.189
 6196WAT     OW18586   1.752   6.042   5.010
 6196WAT    HW118587   1.671   5.989   5.033
 6196WAT    HW218588   1.764   6.044   4.910
 6197WAT     OW18589   3.874   0.982   5.551
 6197WAT    HW118590   3.787   1.025   5.576
 6197WAT    HW218591   3.870   0.950   5.456
 6198WAT     OW18592   2.633   5.000   3.232
 6198WAT    HW118593   2.618   5.090   3.192
 6198WAT    HW218594   2.724   4.967   3.208
 6199WAT     OW18595   2.883   6.262   2.088
 6199WAT    HW118596   2.910   6.203   2.011
 6199WAT    HW218597   2.952   6.333   2.102
 6200WAT     OW18598   2.942   5.602   5.432
 6200WAT    HW118599   2.892   5.588   5.518
 6200WAT    HW218600   2.924   5.694   5.398
 6201WAT     OW18601   2.493   3.916   1.429
 6201WAT    HW118602   2.502   3.911   1.330
 6201WAT    HW218603   2.564   3.976   1.466
 6202WAT     OW18604   6.040   1.561   0.645
 6202WAT    HW118605   6.127   1.525   0.680
 6202WAT    HW218606   6.058   1.621   0.567
 6203WAT     OW18607   2.623   2.142   1.782
 6203WAT    HW118608   2.719   2.139   1.752
 6203WAT    HW218609   2.599   2.054   1.824
 6204WAT     OW18610   5.710   5.014   0.384
 6204WAT    HW118611   5.628   5.019   0.441
 6204WAT    HW218612   5.701   5.079   0.308
 6205WAT     OW18613   3.983   2.997   3.642
 6205WAT    HW118614   3.988   2.912   3.694
 6205WAT    HW218615   3.894   3.041   3.659
 6206WAT     OW18616   1.797   3.480   1.670
 6206WAT    HW118617   1.787   3.579   1.663
 6206WAT    HW218618   1.800   3.441   1.578
 6207WAT     OW18619   4.914   1.141   0.774
 6207WAT    HW118620   4.820   1.167   0.796
 6207WAT    HW218621   4.975   1.218   0.791
 6208WAT     OW18622   2.116   5.441   1.518
 6208WAT    HW118623   2.107   5.528   1.469
 6208WAT    HW218624   2.024   5.406   1.538
 6209WAT     OW18625   6.118   1.465   3.822
 6209WAT    HW118626   6.112   1.377   3.774
 6209WAT    HW218627   6.186   1.523   3.776
 6210WAT     OW18628   2.434   2.711   2.899
 6210WAT    HW118629   2.337   2.714   2.926
 6210WAT    HW218630   2.478   2.634   2.945
 6211WAT     OW18631   5.722   6.442   0.828
 6211WAT    HW118632   5.624   6.425   0.832
 6211WAT    HW218633   5.740   6.513   0.760
 6212WAT     OW18634   4.120   1.111   5.594
 6212WAT    HW118635   4.156   1.116   5.687
 6212WAT    HW218636   4.027   1.075   5.597
 6213WAT     OW18637   2.358   4.853   0.706
 6213WAT    HW118638   2.399   4.811   0.787
 6213WAT    HW218639   2.334   4.948   0.727
 6214WAT     OW18640   2.710   5.388   2.817
 6214WAT    HW118641   2.778   5.387   2.890
 6214WAT    HW218642   2.664   5.299   2.814
 6215WAT     OW18643   4.715   5.686   0.440
 6215WAT    HW118644   4.648   5.695   0.367
 6215WAT    HW218645   4.761   5.597   0.433
 6216WAT     OW18646   2.486   3.047   1.813
 6216WAT    HW118647   2.471   3.017   1.719
 6216WAT    HW218648   2.575   3.015   1.845
 6217WAT     OW18649   0.753   4.853   3.219
 6217WAT    HW118650   0.825   4.848   3.288
 6217WAT    HW218651   0.706   4.765   3.214
 6218WAT     OW18652   6.597   0.200   0.082
 6218WAT    HW118653   6.498   0.189   0.078
 6218WAT    HW218654   6.619   0.289   0.123
 6219WAT     OW18655   1.003   3.235   1.125
 6219WAT    HW118656   0.909   3.257   1.100
 6219WAT    HW218657   1.037   3.304   1.189
 6220WAT     OW18658   5.142   4.653   4.032
 6220WAT    HW118659   5.171   4.622   3.942
 6220WAT    HW218660   5.095   4.579   4.080
 6221WAT     OW18661   2.452   3.447   3.787
 6221WAT    HW118662   2.537   3.450   3.735
 6221WAT    HW218663   2.387   3.386   3.741
 6222WAT     OW18664   4.388   2.045   0.415
 6222WAT    HW118665   4.476   2.010   0.448
 6222WAT    HW218666   4.323   1.970   0.409
 6223WAT     OW18667   2.972   5.938   2.769
 6223WAT    HW118668   3.069   5.916   2.760
 6223WAT    HW218669   2.937   5.970   2.681
 6224WAT     OW18670   2.144   2.107   3.393
 6224WAT    HW118671   2.066   2.076   3.448
 6224WAT    HW218672   2.228   2.065   3.427
 6225WAT     OW18673   1.182   4.512   0.215
 6225WAT    HW118674   1.218   4.431   0.169
 6225WAT    HW218675   1.225   4.594   0.176
 6226WAT     OW18676   0.667   1.439   0.984
 6226WAT    HW118677   0.590   1.377   0.972
 6226WAT    HW218678   0.682   1.454   1.082
 6227WAT     OW18679   2.746   2.242   5.472
 6227WAT    HW118680   2.674   2.264   5.406
 6227WAT    HW218681   2.791   2.156   5.446
 6228WAT     OW18682   2.028   5.479   6.263
 6228WAT    HW118683   2.062   5.572   6.277
 6228WAT    HW218684   2.012   5.463   6.166
 6229WAT     OW18685   0.449   4.196   4.930
 6229WAT    HW118686   0.539   4.174   4.968
 6229WAT    HW218687   0.383   4.125   4.956
 6230WAT     OW18688   6.158   0.042   4.118
 6230WAT    HW118689   6.255   0.069   4.118
 6230WAT    HW218690   6.107   0.102   4.179
 6231WAT     OW18691   0.619   4.337   0.599
 6231WAT    HW118692   0.690   4.335   0.670
 6231WAT    HW218693   0.647   4.401   0.527
 6232WAT     OW18694   0.635   3.296   5.832
 6232WAT    HW118695   0.579   3.372   5.864
 6232WAT    HW218696   0.579   3.214   5.823
 6233WAT     OW18697   6.436   1.382   5.552
 6233WAT    HW118698   6.521   1.435   5.546
 6233WAT    HW218699   6.358   1.443   5.550
 6234WAT     OW18700   5.370   1.053   2.816
 6234WAT    HW118701   5.461   1.061   2.774
 6234WAT    HW218702   5.327   0.968   2.787
 6235WAT     OW18703   6.597   5.078   0.024
 6235WAT    HW118704   6.539   5.144  -0.024
 6235WAT    HW218705   6.593   5.095   0.122
 6236WAT     OW18706   4.789   5.003   6.162
 6236WAT    HW118707   4.738   4.928   6.206
 6236WAT    HW218708   4.857   4.965   6.100
 6237WAT     OW18709   5.036   1.160   2.986
 6237WAT    HW118710   5.009   1.119   2.899
 6237WAT    HW218711   4.997   1.107   3.061
 6238WAT     OW18712   4.646   1.189   6.568
 6238WAT    HW118713   4.583   1.263   6.591
 6238WAT    HW218714   4.601   1.126   6.504
 6239WAT     OW18715   0.788   1.788   1.988
 6239WAT    HW118716   0.825   1.760   1.900
 6239WAT    HW218717   0.792   1.888   1.995
 6240WAT     OW18718   5.373   4.924   3.463
 6240WAT    HW118719   5.290   4.974   3.435
 6240WAT    HW218720   5.451   4.987   3.463
 6241WAT     OW18721   5.411   5.589   0.667
 6241WAT    HW118722   5.448   5.555   0.580
 6241WAT    HW218723   5.333   5.649   0.649
 6242WAT     OW18724   4.973   1.042   3.233
 6242WAT    HW118725   4.918   1.120   3.263
 6242WAT    HW218726   5.044   1.023   3.301
 6243WAT     OW18727   5.621   0.599   3.522
 6243WAT    HW118728   5.690   0.609   3.594
 6243WAT    HW218729   5.652   0.648   3.440
 6244WAT     OW18730   1.773   3.416   0.224
 6244WAT    HW118731   1.691   3.470   0.242
 6244WAT    HW218732   1.854   3.473   0.239
 6245WAT     OW18733   1.513   2.835   0.907
 6245WAT    HW118734   1.465   2.800   0.827
 6245WAT    HW218735   1.590   2.775   0.930
 6246WAT     OW18736   2.888   0.331   6.079
 6246WAT    HW118737   2.930   0.299   6.164
 6246WAT    HW218738   2.894   0.258   6.010
 6247WAT     OW18739   1.667   0.385   4.994
 6247WAT    HW118740   1.568   0.376   4.982
 6247WAT    HW218741   1.704   0.443   4.922
 6248WAT     OW18742   5.406   4.285   2.570
 6248WAT    HW118743   5.497   4.277   2.531
 6248WAT    HW218744   5.405   4.361   2.636
 6249WAT     OW18745   0.229   1.979   4.393
 6249WAT    HW118746   0.221   2.000   4.296
 6249WAT    HW218747   0.322   2.001   4.424
 6250WAT     OW18748   3.045   4.184   2.751
 6250WAT    HW118749   3.046   4.282   2.730
 6250WAT    HW218750   3.136   4.145   2.734
 6251WAT     OW18751   0.258   0.801   6.177
 6251WAT    HW118752   0.356   0.791   6.163
 6251WAT    HW218753   0.215   0.711   6.183
 6252WAT     OW18754   4.845   4.071   2.510
 6252WAT    HW118755   4.932   4.074   2.462
 6252WAT    HW218756   4.860   4.040   2.604
 6253WAT     OW18757   4.620   4.940   0.560
 6253WAT    HW118758   4.568   4.923   0.644
 6253WAT    HW218759   4.593   5.029   0.522
 6254WAT     OW18760   0.121   3.579   3.099
 6254WAT    HW118761   0.160   3.575   3.191
 6254WAT    HW218762   0.172   3.518   3.038
 6255WAT     OW18763   3.566   3.711   0.139
 6255WAT    HW118764   3.492   3.757   0.188
 6255WAT    HW218765   3.557   3.728   0.040
 6256WAT     OW18766   0.947   4.272   4.752
 6256WAT    HW118767   0.895   4.285   4.837
 6256WAT    HW218768   1.023   4.210   4.768
 6257WAT     OW18769   3.669   4.259   1.114
 6257WAT    HW118770   3.634   4.192   1.049
 6257WAT    HW218771   3.610   4.262   1.194
 6258WAT     OW18772   3.785   2.398   5.192
 6258WAT    HW118773   3.798   2.481   5.138
 6258WAT    HW218774   3.868   2.378   5.244
 6259WAT     OW18775   0.235   2.624   3.671
 6259WAT    HW118776   0.218   2.709   3.620
 6259WAT    HW218777   0.242   2.548   3.607
 6260WAT     OW18778   6.449   5.014   0.844
 6260WAT    HW118779   6.519   4.946   0.822
 6260WAT    HW218780   6.430   5.069   0.763
 6261WAT     OW18781   0.435   1.277   0.971
 6261WAT    HW118782   0.371   1.352   0.956
 6261WAT    HW218783   0.451   1.228   0.885
 6262WAT     OW18784   4.795   3.502   3.904
 6262WAT    HW118785   4.756   3.411   3.920
 6262WAT    HW218786   4.738   3.571   3.949
 6263WAT     OW18787   4.108   4.400   6.548
 6263WAT    HW118788   4.015   4.371   6.571
 6263WAT    HW218789   4.158   4.322   6.511
 6264WAT     OW18790   2.433   3.763   6.334
 6264WAT    HW118791   2.455   3.855   6.366
 6264WAT    HW218792   2.514   3.720   6.296
 6265WAT     OW18793   5.634   6.196   5.300
 6265WAT    HW118794   5.724   6.225   5.333
 6265WAT    HW218795   5.574   6.276   5.291
 6266WAT     OW18796   0.844   5.540   2.473
 6266WAT    HW118797   0.816   5.603   2.401
 6266WAT    HW218798   0.944   5.545   2.485
 6267WAT     OW18799   0.210   0.214   5.107
 6267WAT    HW118800   0.228   0.296   5.161
 6267WAT    HW218801   0.288   0.152   5.114
 6268WAT     OW18802   6.146   0.801   6.118
 6268WAT    HW118803   6.110   0.744   6.191
 6268WAT    HW218804   6.157   0.746   6.035
 6269WAT     OW18805   1.164   3.017   1.203
 6269WAT    HW118806   1.092   3.080   1.174
 6269WAT    HW218807   1.246   3.069   1.227
 6270WAT     OW18808   4.607   2.302   0.898
 6270WAT    HW118809   4.559   2.385   0.869
 6270WAT    HW218810   4.622   2.243   0.819
 6271WAT     OW18811   2.575   2.405   6.381
 6271WAT    HW118812   2.516   2.485   6.372
 6271WAT    HW218813   2.572   2.372   6.475
 6272WAT     OW18814   4.417   0.997   4.977
 6272WAT    HW118815   4.501   0.944   4.988
 6272WAT    HW218816   4.349   0.967   5.044
 6273WAT     OW18817   1.721   6.494   1.405
 6273WAT    HW118818   1.659   6.529   1.335
 6273WAT    HW218819   1.801   6.454   1.361
 6274WAT     OW18820   1.935   5.188   0.810
 6274WAT    HW118821   1.925   5.138   0.724
 6274WAT    HW218822   1.953   5.124   0.884
 6275WAT     OW18823   2.308   3.949   1.642
 6275WAT    HW118824   2.380   3.933   1.575
 6275WAT    HW218825   2.349   3.983   1.727
 6276WAT     OW18826   4.792   1.763   1.548
 6276WAT    HW118827   4.860   1.758   1.622
 6276WAT    HW218828   4.806   1.847   1.496
 6277WAT     OW18829   0.596   1.756   6.647
 6277WAT    HW118830   0.638   1.815   6.716
 6277WAT    HW218831   0.595   1.661   6.680
 6278WAT     OW18832   0.804   0.602   6.680
 6278WAT    HW118833   0.711   0.611   6.645
 6278WAT    HW218834   0.802   0.592   6.779
 6279WAT     OW18835   3.443   5.392   3.790
 6279WAT    HW118836   3.518   5.459   3.794
 6279WAT    HW218837   3.453   5.337   3.707
 6280WAT     OW18838   4.027   5.972   4.190
 6280WAT    HW118839   4.064   6.017   4.109
 6280WAT    HW218840   3.957   5.906   4.163
 6281WAT     OW18841   3.312   2.270   0.702
 6281WAT    HW118842   3.283   2.194   0.644
 6281WAT    HW218843   3.231   2.314   0.742
 6282WAT     OW18844   5.903   5.808   4.786
 6282WAT    HW118845   5.822   5.854   4.748
 6282WAT    HW218846   5.873   5.734   4.846
 6283WAT     OW18847   6.118   3.324   4.483
 6283WAT    HW118848   6.132   3.331   4.582
 6283WAT    HW218849   6.161   3.403   4.438
 6284WAT     OW18850   3.815   5.592   1.871
 6284WAT    HW118851   3.860   5.515   1.825
 6284WAT    HW218852   3.824   5.674   1.815
 6285WAT     OW18853   2.053   4.226   0.180
 6285WAT    HW118854   1.998   4.142   0.187
 6285WAT    HW218855   2.010   4.288   0.115
 6286WAT     OW18856   5.709   2.322   6.113
 6286WAT    HW118857   5.766   2.326   6.030
 6286WAT    HW218858   5.736   2.242   6.167
 6287WAT     OW18859   3.038   1.788   4.885
 6287WAT    HW118860   3.097   1.725   4.834
 6287WAT    HW218861   3.072   1.796   4.979
 6288WAT     OW18862   2.136   1.107   2.094
 6288WAT    HW118863   2.126   1.176   2.023
 6288WAT    HW218864   2.183   1.146   2.173
 6289WAT     OW18865   6.397   5.103   6.261
 6289WAT    HW118866   6.460   5.179   6.281
 6289WAT    HW218867   6.448   5.017   6.261
 6290WAT     OW18868   1.471   3.638   1.412
 6290WAT    HW118869   1.481   3.676   1.504
 6290WAT    HW218870   1.535   3.683   1.350
 6291WAT     OW18871   2.647   2.056   1.389
 6291WAT    HW118872   2.700   1.990   1.441
 6291WAT    HW218873   2.603   2.011   1.311
 6292WAT     OW18874   1.282   3.338   4.536
 6292WAT    HW118875   1.331   3.253   4.554
 6292WAT    HW218876   1.202   3.343   4.595
 6293WAT     OW18877   0.898   0.743   4.737
 6293WAT    HW118878   0.891   0.828   4.685
 6293WAT    HW218879   0.907   0.665   4.674
 6294WAT     OW18880   2.478   4.975   3.463
 6294WAT    HW118881   2.551   4.985   3.395
 6294WAT    HW218882   2.391   4.956   3.416
 6295WAT     OW18883   4.069   5.467   4.272
 6295WAT    HW118884   4.091   5.489   4.177
 6295WAT    HW218885   4.025   5.377   4.276
 6296WAT     OW18886   1.242   0.725   0.408
 6296WAT    HW118887   1.191   0.773   0.479
 6296WAT    HW218888   1.322   0.681   0.448
 6297WAT     OW18889   4.632   5.197   0.935
 6297WAT    HW118890   4.533   5.212   0.934
 6297WAT    HW218891   4.652   5.110   0.980
 6298WAT     OW18892   3.350   6.258   5.002
 6298WAT    HW118893   3.371   6.177   5.057
 6298WAT    HW218894   3.432   6.287   4.952
 6299WAT     OW18895   1.135   1.778   2.591
 6299WAT    HW118896   1.123   1.689   2.548
 6299WAT    HW218897   1.072   1.786   2.668
 6300WAT     OW18898   5.523   1.143   2.380
 6300WAT    HW118899   5.615   1.148   2.420
 6300WAT    HW218900   5.515   1.061   2.324
 6301WAT     OW18901   3.390   4.264   3.359
 6301WAT    HW118902   3.330   4.206   3.305
 6301WAT    HW218903   3.433   4.333   3.300
 6302WAT     OW18904   2.752   2.779   4.688
 6302WAT    HW118905   2.780   2.874   4.697
 6302WAT    HW218906   2.832   2.720   4.688
 6303WAT     OW18907   2.707   0.886   0.593
 6303WAT    HW118908   2.786   0.947   0.598
 6303WAT    HW218909   2.721   0.820   0.520
 6304WAT     OW18910   1.645   3.833   4.062
 6304WAT    HW118911   1.569   3.770   4.073
 6304WAT    HW218912   1.724   3.785   4.024
 6305WAT     OW18913   4.719   2.884   5.449
 6305WAT    HW118914   4.788   2.833   5.500
 6305WAT    HW218915   4.739   2.981   5.453
 6306WAT     OW18916   2.288   0.271   6.337
 6306WAT    HW118917   2.316   0.189   6.288
 6306WAT    HW218918   2.321   0.352   6.287
 6307WAT     OW18919   1.676   2.650   1.788
 6307WAT    HW118920   1.734   2.593   1.730
 6307WAT    HW218921   1.711   2.744   1.788
 6308WAT     OW18922   1.170   4.818   1.741
 6308WAT    HW118923   1.095   4.763   1.704
 6308WAT    HW218924   1.204   4.880   1.670
 6309WAT     OW18925   0.738   1.473   5.564
 6309WAT    HW118926   0.648   1.430   5.572
 6309WAT    HW218927   0.747   1.515   5.474
 6310WAT     OW18928   5.546   4.898   5.760
 6310WAT    HW118929   5.601   4.833   5.707
 6310WAT    HW218930   5.489   4.847   5.825
 6311WAT     OW18931   5.647   1.459   4.337
 6311WAT    HW118932   5.568   1.427   4.390
 6311WAT    HW218933   5.634   1.437   4.241
 6312WAT     OW18934   1.217   0.968   3.872
 6312WAT    HW118935   1.196   1.015   3.786
 6312WAT    HW218936   1.228   1.036   3.945
 6313WAT     OW18937   3.016   2.896   2.603
 6313WAT    HW118938   3.005   2.967   2.673
 6313WAT    HW218939   2.969   2.813   2.633
 6314WAT     OW18940   2.743   1.967   0.192
 6314WAT    HW118941   2.702   1.879   0.168
 6314WAT    HW218942   2.752   2.023   0.110
 6315WAT     OW18943   4.027   4.288   5.141
 6315WAT    HW118944   4.096   4.285   5.069
 6315WAT    HW218945   4.072   4.292   5.230
 6316WAT     OW18946   2.771   6.106   6.081
 6316WAT    HW118947   2.831   6.129   6.157
 6316WAT    HW218948   2.808   6.028   6.031
 6317WAT     OW18949   4.262   5.879   4.961
 6317WAT    HW118950   4.271   5.971   4.923
 6317WAT    HW218951   4.328   5.867   5.035
 6318WAT     OW18952   4.730   5.113   3.298
 6318WAT    HW118953   4.681   5.026   3.309
 6318WAT    HW218954   4.787   5.109   3.216
 6319WAT     OW18955   5.180   1.292   5.327
 6319WAT    HW118956   5.156   1.253   5.239
 6319WAT    HW218957   5.108   1.356   5.357
 6320WAT     OW18958   1.858   0.961   3.315
 6320WAT    HW118959   1.790   0.949   3.388
 6320WAT    HW218960   1.946   0.987   3.354
 6321WAT     OW18961   5.490   1.533   2.882
 6321WAT    HW118962   5.571   1.475   2.879
 6321WAT    HW218963   5.433   1.515   2.802
 6322WAT     OW18964   3.902   4.526   4.480
 6322WAT    HW118965   4.002   4.525   4.479
 6322WAT    HW218966   3.868   4.434   4.459
 6323WAT     OW18967   1.249   1.784   0.693
 6323WAT    HW118968   1.215   1.691   0.679
 6323WAT    HW218969   1.306   1.787   0.775
 6324WAT     OW18970   6.059   6.089   2.142
 6324WAT    HW118971   6.084   6.011   2.084
 6324WAT    HW218972   6.116   6.167   2.117
 6325WAT     OW18973   5.471   2.006   3.494
 6325WAT    HW118974   5.476   2.001   3.394
 6325WAT    HW218975   5.479   2.101   3.523
 6326WAT     OW18976   3.463   2.587   1.738
 6326WAT    HW118977   3.469   2.517   1.667
 6326WAT    HW218978   3.400   2.659   1.708
 6327WAT     OW18979   6.364   1.199   2.855
 6327WAT    HW118980   6.398   1.251   2.777
 6327WAT    HW218981   6.430   1.127   2.878
 6328WAT     OW18982   0.841   2.165   3.772
 6328WAT    HW118983   0.932   2.176   3.812
 6328WAT    HW218984   0.838   2.080   3.720
 6329WAT     OW18985   5.230   0.414   0.044
 6329WAT    HW118986   5.196   0.324   0.018
 6329WAT    HW218987   5.157   0.467   0.087
 6330WAT     OW18988   0.611   1.980   0.387
 6330WAT    HW118989   0.669   2.055   0.357
 6330WAT    HW218990   0.667   1.899   0.404
 6331WAT     OW18991   5.630   3.265   0.360
 6331WAT    HW118992   5.553   3.298   0.414
 6331WAT    HW218993   5.601   3.253   0.265
 6332WAT     OW18994   2.963   2.413   5.454
 6332WAT    HW118995   3.025   2.373   5.522
 6332WAT    HW218996   2.874   2.368   5.461
 6333WAT     OW18997   3.702   3.223   3.730
 6333WAT    HW118998   3.717   3.308   3.781
 6333WAT    HW218999   3.709   3.145   3.792
 6334WAT     OW19000   5.015   6.499   5.040
 6334WAT    HW119001   4.990   6.570   4.974
 6334WAT    HW219002   4.946   6.495   5.113
 6335WAT     OW19003   1.334   2.459   1.550
 6335WAT    HW119004   1.268   2.386   1.569
 6335WAT    HW219005   1.353   2.462   1.452
 6336WAT     OW19006   4.644   0.765   3.803
 6336WAT    HW119007   4.597   0.831   3.743
 6336WAT    HW219008   4.678   0.813   3.884
 6337WAT     OW19009   6.110   0.859   6.617
 6337WAT    HW119010   6.194   0.804   6.619
 6337WAT    HW219011   6.036   0.810   6.662
 6338WAT     OW19012   0.709   6.632   0.740
 6338WAT    HW119013   0.796   6.584   0.740
 6338WAT    HW219014   0.716   6.713   0.797
 6339WAT     OW19015   6.245   4.388   3.618
 6339WAT    HW119016   6.179   4.341   3.678
 6339WAT    HW219017   6.237   4.350   3.526
 6340WAT     OW19018   5.349   6.525   1.570
 6340WAT    HW119019   5.436   6.556   1.530
 6340WAT    HW219020   5.338   6.563   1.661
 6341WAT     OW19021   4.851   5.160   1.209
 6341WAT    HW119022   4.927   5.199   1.261
 6341WAT    HW219023   4.885   5.124   1.122
 6342WAT     OW19024   6.520   6.329   0.845
 6342WAT    HW119025   6.496   6.232   0.843
 6342WAT    HW219026   6.619   6.339   0.836
 6343WAT     OW19027   5.353   2.365   0.612
 6343WAT    HW119028   5.309   2.325   0.692
 6343WAT    HW219029   5.408   2.444   0.641
 6344WAT     OW19030   6.102   1.219   3.700
 6344WAT    HW119031   6.186   1.175   3.731
 6344WAT    HW219032   6.025   1.187   3.756
 6345WAT     OW19033   0.356   0.750   5.557
 6345WAT    HW119034   0.376   0.837   5.513
 6345WAT    HW219035   0.354   0.762   5.656
 6346WAT     OW19036   4.637   4.560   4.488
 6346WAT    HW119037   4.666   4.508   4.568
 6346WAT    HW219038   4.717   4.601   4.444
 6347WAT     OW19039   3.502   2.940   0.003
 6347WAT    HW119040   3.576   2.881   0.037
 6347WAT    HW219041   3.416   2.913   0.046
 6348WAT     OW19042   2.567   6.397   0.785
 6348WAT    HW119043   2.471   6.421   0.770
 6348WAT    HW219044   2.613   6.473   0.831
 6349WAT     OW19045   4.130   2.280   3.816
 6349WAT    HW119046   4.031   2.285   3.833
 6349WAT    HW219047   4.178   2.305   3.900
 6350WAT     OW19048   4.058   0.447   4.225
 6350WAT    HW119049   4.061   0.359   4.273
 6350WAT    HW219050   4.068   0.521   4.291
 6351WAT     OW19051   5.395   4.136   0.703
 6351WAT    HW119052   5.474   4.164   0.649
 6351WAT    HW219053   5.396   4.037   0.715
 6352WAT     OW19054   6.150   3.300   4.763
 6352WAT    HW119055   6.050   3.308   4.767
 6352WAT    HW219056   6.190   3.345   4.843
 6353WAT     OW19057   0.615   4.836   2.281
 6353WAT    HW119058   0.684   4.845   2.354
 6353WAT    HW219059   0.660   4.842   2.192
 6354WAT     OW19060   5.879   1.021   2.289
 6354WAT    HW119061   5.824   0.951   2.336
 6354WAT    HW219062   5.827   1.057   2.211
 6355WAT     OW19063   5.123   1.964   5.274
 6355WAT    HW119064   5.090   1.888   5.330
 6355WAT    HW219065   5.049   2.029   5.260
 6356WAT     OW19066   6.127   0.211   6.396
 6356WAT    HW119067   6.120   0.190   6.493
 6356WAT    HW219068   6.074   0.293   6.375
 6357WAT     OW19069   5.429   4.477   5.349
 6357WAT    HW119070   5.345   4.519   5.315
 6357WAT    HW219071   5.442   4.388   5.305
 6358WAT     OW19072   0.118   0.764   5.218
 6358WAT    HW119073   0.065   0.848   5.215
 6358WAT    HW219074   0.119   0.722   5.127
 6359WAT     OW19075   5.685   4.905   1.708
 6359WAT    HW119076   5.702   4.913   1.609
 6359WAT    HW219077   5.711   4.990   1.753
 6360WAT     OW19078   1.003   0.106   5.143
 6360WAT    HW119079   0.937   0.086   5.215
 6360WAT    HW219080   1.087   0.144   5.183
 6361WAT     OW19081   0.720   5.934   1.384
 6361WAT    HW119082   0.671   5.910   1.468
 6361WAT    HW219083   0.798   5.872   1.371
 6362WAT     OW19084   5.328   5.463   6.384
 6362WAT    HW119085   5.273   5.522   6.325
 6362WAT    HW219086   5.269   5.395   6.427
 6363WAT     OW19087   3.848   5.258   4.918
 6363WAT    HW119088   3.886   5.170   4.889
 6363WAT    HW219089   3.919   5.312   4.963
 6364WAT     OW19090   0.286   4.666   3.596
 6364WAT    HW119091   0.202   4.704   3.556
 6364WAT    HW219092   0.277   4.662   3.695
 6365WAT     OW19093   1.640   5.786   4.713
 6365WAT    HW119094   1.587   5.748   4.789
 6365WAT    HW219095   1.730   5.742   4.710
 6366WAT     OW19096   6.614   5.091   1.521
 6366WAT    HW119097   6.645   5.000   1.494
 6366WAT    HW219098   6.692   5.154   1.524
 6367WAT     OW19099   4.078   5.768   0.445
 6367WAT    HW119100   4.164   5.717   0.437
 6367WAT    HW219101   4.096   5.855   0.492
 6368WAT     OW19102   0.327   2.222   6.201
 6368WAT    HW119103   0.295   2.128   6.192
 6368WAT    HW219104   0.420   2.222   6.238
 6369WAT     OW19105   6.114   3.995   4.231
 6369WAT    HW119106   6.077   3.907   4.201
 6369WAT    HW219107   6.213   3.996   4.217
 6370WAT     OW19108   0.389   5.070   4.296
 6370WAT    HW119109   0.345   5.022   4.220
 6370WAT    HW219110   0.404   5.165   4.272
 6371WAT     OW19111   3.342   2.752   6.017
 6371WAT    HW119112   3.436   2.762   5.984
 6371WAT    HW219113   3.327   2.658   6.048
 6372WAT     OW19114   1.769   4.570   2.403
 6372WAT    HW119115   1.710   4.490   2.402
 6372WAT    HW219116   1.719   4.650   2.369
 6373WAT     OW19117   4.765   5.149   2.849
 6373WAT    HW119118   4.766   5.120   2.754
 6373WAT    HW219119   4.680   5.200   2.867
 6374WAT     OW19120   0.956   0.113   3.453
 6374WAT    HW119121   0.858   0.100   3.463
 6374WAT    HW219122   0.981   0.103   3.357
 6375WAT     OW19123   0.877   3.486   0.027
 6375WAT    HW119124   0.809   3.498   0.100
 6375WAT    HW219125   0.865   3.397  -0.016
 6376WAT     OW19126   4.344   5.682   0.461
 6376WAT    HW119127   4.368   5.739   0.539
 6376WAT    HW219128   4.402   5.707   0.383
 6377WAT     OW19129   2.309   0.887   1.333
 6377WAT    HW119130   2.277   0.908   1.241
 6377WAT    HW219131   2.399   0.929   1.348
 6378WAT     OW19132   3.258   1.312   2.917
 6378WAT    HW119133   3.276   1.218   2.885
 6378WAT    HW219134   3.340   1.368   2.902
 6379WAT     OW19135   3.659   5.562   3.806
 6379WAT    HW119136   3.745   5.540   3.761
 6379WAT    HW219137   3.624   5.650   3.772
 6380WAT     OW19138   0.119   6.505   0.009
 6380WAT    HW119139   0.174   6.434   0.054
 6380WAT    HW219140   0.081   6.566   0.078
 6381WAT     OW19141   6.247   5.780   4.272
 6381WAT    HW119142   6.262   5.689   4.233
 6381WAT    HW219143   6.257   5.775   4.372
 6382WAT     OW19144   2.312   2.439   2.311
 6382WAT    HW119145   2.341   2.529   2.281
 6382WAT    HW219146   2.257   2.447   2.394
 6383WAT     OW19147   5.160   1.061   4.820
 6383WAT    HW119148   5.144   1.041   4.723
 6383WAT    HW219149   5.258   1.063   4.839
 6384WAT     OW19150   5.154   2.246   1.417
 6384WAT    HW119151   5.075   2.271   1.474
 6384WAT    HW219152   5.170   2.317   1.349
 6385WAT     OW19153   0.029   0.662   3.309
 6385WAT    HW119154  -0.045   0.646   3.374
 6385WAT    HW219155   0.034   0.760   3.288
 6386WAT     OW19156   3.340   3.143   3.093
 6386WAT    HW119157   3.360   3.196   3.175
 6386WAT    HW219158   3.424   3.130   3.041
 6387WAT     OW19159   6.185   5.036   2.820
 6387WAT    HW119160   6.127   4.955   2.807
 6387WAT    HW219161   6.165   5.076   2.909
 6388WAT     OW19162   4.399   1.626   3.713
 6388WAT    HW119163   4.433   1.671   3.796
 6388WAT    HW219164   4.339   1.690   3.663
 6389WAT     OW19165   5.807   2.861   2.746
 6389WAT    HW119166   5.881   2.894   2.688
 6389WAT    HW219167   5.842   2.789   2.806
 6390WAT     OW19168   2.857   1.868   1.760
 6390WAT    HW119169   2.878   1.964   1.741
 6390WAT    HW219170   2.828   1.858   1.855
 6391WAT     OW19171   0.732   4.769   1.638
 6391WAT    HW119172   0.683   4.783   1.724
 6391WAT    HW219173   0.676   4.716   1.575
 6392WAT     OW19174   1.874   2.092   5.193
 6392WAT    HW119175   1.896   2.181   5.154
 6392WAT    HW219176   1.778   2.070   5.174
 6393WAT     OW19177   0.885   2.164   4.379
 6393WAT    HW119178   0.947   2.134   4.451
 6393WAT    HW219179   0.867   2.262   4.390
 6394WAT     OW19180   0.413   5.781   0.205
 6394WAT    HW119181   0.350   5.782   0.128
 6394WAT    HW219182   0.463   5.868   0.208
 6395WAT     OW19183   6.267   3.765   4.561
 6395WAT    HW119184   6.287   3.693   4.628
 6395WAT    HW219185   6.176   3.752   4.523
 6396WAT     OW19186   3.118   0.955   0.402
 6396WAT    HW119187   3.218   0.947   0.403
 6396WAT    HW219188   3.090   1.005   0.320
 6397WAT     OW19189   4.145   2.853   0.334
 6397WAT    HW119190   4.056   2.889   0.362
 6397WAT    HW219191   4.202   2.838   0.415
 6398WAT     OW19192   2.115   0.436   4.251
 6398WAT    HW119193   2.181   0.506   4.222
 6398WAT    HW219194   2.161   0.347   4.253
 6399WAT     OW19195   0.947   4.475   2.109
 6399WAT    HW119196   0.978   4.571   2.113
 6399WAT    HW219197   0.868   4.463   2.170
 6400WAT     OW19198   5.287   5.955   3.575
 6400WAT    HW119199   5.299   5.916   3.666
 6400WAT    HW219200   5.222   5.900   3.523
 6401WAT     OW19201   0.814   6.679   4.321
 6401WAT    HW119202   0.833   6.610   4.391
 6401WAT    HW219203   0.738   6.737   4.352
 6402WAT     OW19204   2.481   3.779   1.946
 6402WAT    HW119205   2.482   3.694   1.895
 6402WAT    HW219206   2.521   3.764   2.037
 6403WAT     OW19207   3.976   1.901   4.547
 6403WAT    HW119208   3.898   1.839   4.540
 6403WAT    HW219209   4.046   1.860   4.606
 6404WAT     OW19210   3.469   5.548   0.025
 6404WAT    HW119211   3.545   5.519   0.083
 6404WAT    HW219212   3.464   5.488  -0.055
 6405WAT     OW19213   0.709   6.598   0.471
 6405WAT    HW119214   0.622   6.556   0.446
 6405WAT    HW219215   0.705   6.626   0.567
 6406WAT     OW19216   3.464   0.532   1.664
 6406WAT    HW119217   3.373   0.508   1.630
 6406WAT    HW219218   3.474   0.500   1.758
 6407WAT     OW19219   5.575   1.218   1.554
 6407WAT    HW119220   5.541   1.280   1.483
 6407WAT    HW219221   5.577   1.125   1.519
 6408WAT     OW19222   3.656   5.646   0.547
 6408WAT    HW119223   3.652   5.696   0.634
 6408WAT    HW219224   3.666   5.548   0.565
 6409WAT     OW19225   4.293   5.596   4.376
 6409WAT    HW119226   4.270   5.661   4.449
 6409WAT    HW219227   4.211   5.549   4.347
 6410WAT     OW19228   4.696   0.216   3.770
 6410WAT    HW119229   4.682   0.284   3.699
 6410WAT    HW219230   4.684   0.258   3.860
 6411WAT     OW19231   1.803   3.021   5.110
 6411WAT    HW119232   1.830   3.100   5.053
 6411WAT    HW219233   1.704   3.017   5.117
 6412WAT     OW19234   1.698   5.450   2.497
 6412WAT    HW119235   1.758   5.468   2.419
 6412WAT    HW219236   1.712   5.520   2.567
 6413WAT     OW19237   4.029   5.434   5.045
 6413WAT    HW119238   4.092   5.480   5.109
 6413WAT    HW219239   3.988   5.502   4.985
 6414WAT     OW19240   4.075   0.888   4.658
 6414WAT    HW119241   3.981   0.907   4.630
 6414WAT    HW219242   4.086   0.790   4.675
 6415WAT     OW19243   3.140   5.727   3.933
 6415WAT    HW119244   3.165   5.657   3.866
 6415WAT    HW219245   3.081   5.685   4.003
 6416WAT     OW19246   6.488   0.819   2.650
 6416WAT    HW119247   6.418   0.751   2.672
 6416WAT    HW219248   6.466   0.863   2.563
 6417WAT     OW19249   0.266   1.099   6.258
 6417WAT    HW119250   0.288   1.008   6.292
 6417WAT    HW219251   0.229   1.092   6.166
 6418WAT     OW19252   4.472   5.566   5.215
 6418WAT    HW119253   4.537   5.555   5.139
 6418WAT    HW219254   4.501   5.508   5.292
 6419WAT     OW19255   6.181   0.781   2.319
 6419WAT    HW119256   6.153   0.843   2.245
 6419WAT    HW219257   6.260   0.819   2.366
 6420WAT     OW19258   5.538   6.515   2.740
 6420WAT    HW119259   5.617   6.489   2.794
 6420WAT    HW219260   5.565   6.584   2.673
 6421WAT     OW19261   5.910   4.371   5.757
 6421WAT    HW119262   5.843   4.442   5.737
 6421WAT    HW219263   5.862   4.287   5.782
 6422WAT     OW19264   2.177   2.091   5.665
 6422WAT    HW119265   2.106   2.160   5.649
 6422WAT    HW219266   2.262   2.137   5.693
 6423WAT     OW19267   5.682   3.172   4.858
 6423WAT    HW119268   5.731   3.085   4.863
 6423WAT    HW219269   5.602   3.162   4.798
 6424WAT     OW19270   1.577   6.206   5.768
 6424WAT    HW119271   1.585   6.135   5.699
 6424WAT    HW219272   1.583   6.296   5.725
 6425WAT     OW19273   5.964   4.650   4.349
 6425WAT    HW119274   5.886   4.594   4.376
 6425WAT    HW219275   5.932   4.725   4.291
 6426WAT     OW19276   3.831   1.507   4.878
 6426WAT    HW119277   3.842   1.599   4.916
 6426WAT    HW219278   3.744   1.501   4.830
 6427WAT     OW19279   1.089   3.062   6.036
 6427WAT    HW119280   1.060   3.070   5.940
 6427WAT    HW219281   1.097   3.153   6.076
 6428WAT     OW19282   3.891   5.960   1.108
 6428WAT    HW119283   3.980   5.986   1.072
 6428WAT    HW219284   3.900   5.928   1.202
 6429WAT     OW19285   6.665   2.173   5.360
 6429WAT    HW119286   6.740   2.229   5.394
 6429WAT    HW219287   6.615   2.223   5.290
 6430WAT     OW19288   3.504   0.062   5.793
 6430WAT    HW119289   3.483  -0.022   5.843
 6430WAT    HW219290   3.470   0.054   5.699
 6431WAT     OW19291   4.127   6.115   3.982
 6431WAT    HW119292   4.200   6.168   4.026
 6431WAT    HW219293   4.064   6.177   3.935
 6432WAT     OW19294   0.028   6.640   2.538
 6432WAT    HW119295  -0.072   6.639   2.538
 6432WAT    HW219296   0.061   6.688   2.620
 6433WAT     OW19297   2.883   5.294   0.853
 6433WAT    HW119298   2.886   5.350   0.936
 6433WAT    HW219299   2.933   5.209   0.869
 6434WAT     OW19300   6.264   3.098   4.441
 6434WAT    HW119301   6.261   3.067   4.346
 6434WAT    HW219302   6.202   3.175   4.453
 6435WAT     OW19303   0.434   1.884   3.437
 6435WAT    HW119304   0.406   1.790   3.456
 6435WAT    HW219305   0.369   1.925   3.373
 6436WAT     OW19306   3.578   5.102   0.888
 6436WAT    HW119307   3.525   5.137   0.965
 6436WAT    HW219308   3.520   5.046   0.829
 6437WAT     OW19309   4.411   5.927   3.787
 6437WAT    HW119310   4.437   6.001   3.726
 6437WAT    HW219311   4.312   5.914   3.785
 6438WAT     OW19312   4.426   5.864   1.562
 6438WAT    HW119313   4.449   5.768   1.577
 6438WAT    HW219314   4.368   5.896   1.637
 6439WAT     OW19315   0.720   4.447   2.265
 6439WAT    HW119316   0.705   4.510   2.341
 6439WAT    HW219317   0.720   4.353   2.299
 6440WAT     OW19318   4.175   2.390   3.391
 6440WAT    HW119319   4.147   2.426   3.302
 6440WAT    HW219320   4.123   2.307   3.410
 6441WAT     OW19321   0.906   6.265   0.821
 6441WAT    HW119322   0.866   6.254   0.730
 6441WAT    HW219323   0.954   6.180   0.846
 6442WAT     OW19324   0.258   6.571   6.474
 6442WAT    HW119325   0.208   6.555   6.559
 6442WAT    HW219326   0.218   6.651   6.427
 6443WAT     OW19327   4.959   3.405   3.107
 6443WAT    HW119328   4.950   3.323   3.164
 6443WAT    HW219329   4.868   3.441   3.085
 6444WAT     OW19330   3.598   2.188   0.116
 6444WAT    HW119331   3.581   2.280   0.081
 6444WAT    HW219332   3.535   2.169   0.192
 6445WAT     OW19333   2.672   4.860   4.977
 6445WAT    HW119334   2.751   4.819   5.022
 6445WAT    HW219335   2.675   4.840   4.879
 6446WAT     OW19336   5.709   0.322   4.761
 6446WAT    HW119337   5.615   0.357   4.760
 6446WAT    HW219338   5.771   0.393   4.794
 6447WAT     OW19339   3.521   0.700   2.982
 6447WAT    HW119340   3.463   0.629   2.944
 6447WAT    HW219341   3.610   0.662   3.007
 6448WAT     OW19342   0.108   1.346   4.815
 6448WAT    HW119343   0.085   1.258   4.856
 6448WAT    HW219344   0.152   1.331   4.727
 6449WAT     OW19345   6.147   2.690   2.534
 6449WAT    HW119346   6.062   2.640   2.518
 6449WAT    HW219347   6.208   2.680   2.455
 6450WAT     OW19348   5.565   4.993   4.835
 6450WAT    HW119349   5.655   4.985   4.877
 6450WAT    HW219350   5.568   4.956   4.743
 6451WAT     OW19351   4.914   3.975   2.758
 6451WAT    HW119352   4.956   4.046   2.815
 6451WAT    HW219353   4.977   3.897   2.750
 6452WAT     OW19354   5.986   5.710   5.788
 6452WAT    HW119355   5.934   5.627   5.766
 6452WAT    HW219356   6.077   5.685   5.820
 6453WAT     OW19357   0.738   0.555   4.392
 6453WAT    HW119358   0.673   0.631   4.400
 6453WAT    HW219359   0.750   0.531   4.296
 6454WAT     OW19360   5.289   2.949   3.765
 6454WAT    HW119361   5.199   2.929   3.805
 6454WAT    HW219362   5.278   2.976   3.670
 6455WAT     OW19363   2.927   4.761   2.981
 6455WAT    HW119364   2.857   4.770   2.910
 6455WAT    HW219365   2.918   4.837   3.045
 6456WAT     OW19366   0.437   1.908   0.730
 6456WAT    HW119367   0.467   1.988   0.679
 6456WAT    HW219368   0.490   1.899   0.814
 6457WAT     OW19369   0.850   6.245   4.446
 6457WAT    HW119370   0.938   6.239   4.397
 6457WAT    HW219371   0.852   6.183   4.525
 6458WAT     OW19372   0.740   5.692   2.264
 6458WAT    HW119373   0.732   5.784   2.302
 6458WAT    HW219374   0.651   5.647   2.265
 6459WAT     OW19375   5.959   5.656   5.195
 6459WAT    HW119376   5.995   5.581   5.250
 6459WAT    HW219377   5.905   5.717   5.253
 6460WAT     OW19378   2.832   0.115   1.763
 6460WAT    HW119379   2.864   0.199   1.807
 6460WAT    HW219380   2.732   0.114   1.760
 6461WAT     OW19381   1.075   2.593   2.181
 6461WAT    HW119382   1.134   2.616   2.258
 6461WAT    HW219383   1.125   2.606   2.095
 6462WAT     OW19384   1.254   1.398   1.685
 6462WAT    HW119385   1.346   1.399   1.645
 6462WAT    HW219386   1.236   1.488   1.726
 6463WAT     OW19387   6.260   4.662   6.684
 6463WAT    HW119388   6.341   4.652   6.743
 6463WAT    HW219389   6.215   4.749   6.704
 6464WAT     OW19390   1.072   3.445   4.104
 6464WAT    HW119391   1.107   3.472   4.194
 6464WAT    HW219392   1.075   3.345   4.096
 6465WAT     OW19393   6.022   2.793   4.240
 6465WAT    HW119394   5.984   2.713   4.194
 6465WAT    HW219395   6.122   2.791   4.234
 6466WAT     OW19396   1.392   3.154   1.258
 6466WAT    HW119397   1.398   3.240   1.308
 6466WAT    HW219398   1.440   3.082   1.308
 6467WAT     OW19399   1.078   1.134   0.491
 6467WAT    HW119400   1.026   1.136   0.406
 6467WAT    HW219401   1.133   1.216   0.499
 6468WAT     OW19402   4.098   4.954   5.106
 6468WAT    HW119403   4.115   5.047   5.072
 6468WAT    HW219404   4.003   4.928   5.086
 6469WAT     OW19405   0.784   3.271   4.081
 6469WAT    HW119406   0.771   3.353   4.025
 6469WAT    HW219407   0.881   3.249   4.087
 6470WAT     OW19408   5.965   1.025   5.351
 6470WAT    HW119409   5.951   1.020   5.252
 6470WAT    HW219410   5.884   0.990   5.398
 6471WAT     OW19411   1.716   4.377   4.012
 6471WAT    HW119412   1.802   4.347   3.972
 6471WAT    HW219413   1.646   4.382   3.941
 6472WAT     OW19414   1.975   3.416   4.228
 6472WAT    HW119415   1.984   3.332   4.281
 6472WAT    HW219416   1.878   3.436   4.214
 6473WAT     OW19417   2.607   4.043   3.168
 6473WAT    HW119418   2.569   3.968   3.221
 6473WAT    HW219419   2.536   4.084   3.111
 6474WAT     OW19420   6.611   1.764   0.139
 6474WAT    HW119421   6.645   1.856   0.160
 6474WAT    HW219422   6.651   1.698   0.202
 6475WAT     OW19423   3.104   0.070   3.350
 6475WAT    HW119424   3.031   0.020   3.303
 6475WAT    HW219425   3.191   0.053   3.304
 6476WAT     OW19426   1.303   2.576   5.309
 6476WAT    HW119427   1.276   2.665   5.345
 6476WAT    HW219428   1.379   2.587   5.245
 6477WAT     OW19429   6.368   0.152   4.419
 6477WAT    HW119430   6.454   0.121   4.378
 6477WAT    HW219431   6.351   0.246   4.391
 6478WAT     OW19432   0.512   6.103   5.645
 6478WAT    HW119433   0.462   6.184   5.613
 6478WAT    HW219434   0.575   6.130   5.718
 6479WAT     OW19435   2.285   4.082   6.279
 6479WAT    HW119436   2.359   4.043   6.333
 6479WAT    HW219437   2.261   4.172   6.316
 6480WAT     OW19438   6.026   5.820   0.519
 6480WAT    HW119439   6.045   5.814   0.421
 6480WAT    HW219440   6.022   5.916   0.546
 6481WAT     OW19441   4.396   5.483   5.626
 6481WAT    HW119442   4.456   5.553   5.665
 6481WAT    HW219443   4.313   5.526   5.592
 6482WAT     OW19444   1.820   5.932   4.322
 6482WAT    HW119445   1.871   6.015   4.301
 6482WAT    HW219446   1.874   5.875   4.385
 6483WAT     OW19447   0.503   6.544   1.340
 6483WAT    HW119448   0.563   6.478   1.385
 6483WAT    HW219449   0.494   6.522   1.243
 6484WAT     OW19450   4.451   1.363   6.649
 6484WAT    HW119451   4.490   1.412   6.726
 6484WAT    HW219452   4.382   1.298   6.682
 6485WAT     OW19453   0.641   1.191   3.395
 6485WAT    HW119454   0.697   1.131   3.452
 6485WAT    HW219455   0.681   1.282   3.392
 6486WAT     OW19456   5.676   4.910   3.202
 6486WAT    HW119457   5.723   4.888   3.288
 6486WAT    HW219458   5.662   4.827   3.149
 6487WAT     OW19459   3.617   5.127   2.876
 6487WAT    HW119460   3.681   5.050   2.880
 6487WAT    HW219461   3.664   5.207   2.839
 6488WAT     OW19462   6.306   3.805   1.187
 6488WAT    HW119463   6.297   3.904   1.194
 6488WAT    HW219464   6.401   3.781   1.166
 6489WAT     OW19465   3.163   0.039   0.506
 6489WAT    HW119466   3.259   0.061   0.489
 6489WAT    HW219467   3.120   0.010   0.420
 6490WAT     OW19468   4.195   5.034   1.231
 6490WAT    HW119469   4.165   5.004   1.140
 6490WAT    HW219470   4.123   5.013   1.298
 6491WAT     OW19471   6.561   0.821   6.579
 6491WAT    HW119472   6.630   0.871   6.631
 6491WAT    HW219473   6.561   0.852   6.484
 6492WAT     OW19474   0.845   4.524   2.876
 6492WAT    HW119475   0.754   4.492   2.903
 6492WAT    HW219476   0.893   4.559   2.957
 6493WAT     OW19477   0.726   2.442   2.938
 6493WAT    HW119478   0.745   2.450   3.036
 6493WAT    HW219479   0.741   2.347   2.910
 6494WAT     OW19480   5.725   0.952   6.144
 6494WAT    HW119481   5.682   0.915   6.061
 6494WAT    HW219482   5.822   0.969   6.127
 6495WAT     OW19483   4.309   0.102   1.704
 6495WAT    HW119484   4.296   0.101   1.803
 6495WAT    HW219485   4.236   0.050   1.660
 6496WAT     OW19486   0.692   1.077   0.579
 6496WAT    HW119487   0.770   1.124   0.620
 6496WAT    HW219488   0.694   1.090   0.479
 6497WAT     OW19489   3.178   0.231   2.480
 6497WAT    HW119490   3.190   0.247   2.382
 6497WAT    HW219491   3.083   0.205   2.498
 6498WAT     OW19492   2.718   5.129   2.175
 6498WAT    HW119493   2.804   5.082   2.197
 6498WAT    HW219494   2.739   5.217   2.133
 6499WAT     OW19495   6.268   0.976   3.243
 6499WAT    HW119496   6.257   0.936   3.152
 6499WAT    HW219497   6.355   1.026   3.246
 6500WAT     OW19498   2.368   4.640   6.521
 6500WAT    HW119499   2.362   4.671   6.426
 6500WAT    HW219500   2.290   4.581   6.541
 6501WAT     OW19501   3.721   1.758   0.275
 6501WAT    HW119502   3.659   1.734   0.200
 6501WAT    HW219503   3.725   1.682   0.340
 6502WAT     OW19504   6.612   5.736   2.029
 6502WAT    HW119505   6.532   5.680   2.008
 6502WAT    HW219506   6.688   5.677   2.056
 6503WAT     OW19507   1.909   0.946   2.800
 6503WAT    HW119508   1.905   0.911   2.893
 6503WAT    HW219509   2.004   0.962   2.774
 6504WAT     OW19510   6.199   3.852   6.155
 6504WAT    HW119511   6.290   3.832   6.120
 6504WAT    HW219512   6.206   3.890   6.248
 6505WAT     OW19513   1.670   1.976   2.002
 6505WAT    HW119514   1.618   2.030   2.068
 6505WAT    HW219515   1.730   2.037   1.949
 6506WAT     OW19516   5.350   6.684   6.548
 6506WAT    HW119517   5.404   6.715   6.626
 6506WAT    HW219518   5.386   6.598   6.514
 6507WAT     OW19519   1.832   6.191   1.808
 6507WAT    HW119520   1.784   6.232   1.730
 6507WAT    HW219521   1.888   6.114   1.775
 6508WAT     OW19522   6.112   5.563   2.380
 6508WAT    HW119523   6.166   5.502   2.438
 6508WAT    HW219524   6.105   5.653   2.423
 6509WAT     OW19525   5.212   1.925   3.536
 6509WAT    HW119526   5.174   1.996   3.596
 6509WAT    HW219527   5.311   1.938   3.529
 6510WAT     OW19528   5.889   2.446   3.645
 6510WAT    HW119529   5.823   2.511   3.607
 6510WAT    HW219530   5.859   2.352   3.625
 6511WAT     OW19531   0.617   0.124   4.453
 6511WAT    HW119532   0.580   0.095   4.541
 6511WAT    HW219533   0.586   0.217   4.432
 6512WAT     OW19534   2.556   4.465   2.603
 6512WAT    HW119535   2.595   4.435   2.516
 6512WAT    HW219536   2.630   4.485   2.668
 6513WAT     OW19537   4.441   4.646   3.614
 6513WAT    HW119538   4.367   4.687   3.667
 6513WAT    HW219539   4.441   4.547   3.627
 6514WAT     OW19540   3.174   3.367   6.138
 6514WAT    HW119541   3.234   3.292   6.110
 6514WAT    HW219542   3.226   3.453   6.139
 6515WAT     OW19543   0.455   6.581   3.026
 6515WAT    HW119544   0.498   6.606   3.113
 6515WAT    HW219545   0.467   6.655   2.961
 6516WAT     OW19546   6.663   4.850   0.789
 6516WAT    HW119547   6.683   4.894   0.701
 6516WAT    HW219548   6.704   4.758   0.790
 6517WAT     OW19549   3.625   3.864   3.348
 6517WAT    HW119550   3.599   3.796   3.417
 6517WAT    HW219551   3.682   3.935   3.391
 6518WAT     OW19552   3.698   2.005   6.623
 6518WAT    HW119553   3.659   2.073   6.686
 6518WAT    HW219554   3.625   1.951   6.582
 6519WAT     OW19555   5.176   6.145   6.645
 6519WAT    HW119556   5.079   6.151   6.669
 6519WAT    HW219557   5.222   6.080   6.705
 6520WAT     OW19558   3.945   4.196   0.397
 6520WAT    HW119559   3.979   4.194   0.303
 6520WAT    HW219560   3.918   4.104   0.425
 6521WAT     OW19561   2.883   1.475   0.128
 6521WAT    HW119562   2.936   1.530   0.193
 6521WAT    HW219563   2.789   1.465   0.162
 6522WAT     OW19564   5.409   5.149   2.446
 6522WAT    HW119565   5.323   5.100   2.443
 6522WAT    HW219566   5.485   5.085   2.433
 6523WAT     OW19567   2.603   3.674   2.172
 6523WAT    HW119568   2.556   3.586   2.170
 6523WAT    HW219569   2.699   3.662   2.146
 6524WAT     OW19570   4.242   2.095   2.646
 6524WAT    HW119571   4.152   2.052   2.637
 6524WAT    HW219572   4.233   2.194   2.640
 6525WAT     OW19573   2.705   3.181   2.465
 6525WAT    HW119574   2.641   3.257   2.464
 6525WAT    HW219575   2.791   3.210   2.507
 6526WAT     OW19576   5.600   4.176   4.113
 6526WAT    HW119577   5.546   4.099   4.078
 6526WAT    HW219578   5.679   4.190   4.054
 6527WAT     OW19579   2.320   3.135   2.732
 6527WAT    HW119580   2.330   3.230   2.703
 6527WAT    HW219581   2.234   3.125   2.782
 6528WAT     OW19582   3.374   0.524   5.760
 6528WAT    HW119583   3.373   0.431   5.796
 6528WAT    HW219584   3.469   0.551   5.741
 6529WAT     OW19585   0.163   4.835   0.362
 6529WAT    HW119586   0.165   4.808   0.266
 6529WAT    HW219587   0.251   4.813   0.405
 6530WAT     OW19588   6.656   1.707   5.735
 6530WAT    HW119589   6.662   1.673   5.828
 6530WAT    HW219590   6.705   1.794   5.728
 6531WAT     OW19591   3.987   6.222   4.314
 6531WAT    HW119592   3.986   6.135   4.265
 6531WAT    HW219593   4.077   6.236   4.355
 6532WAT     OW19594   1.933   5.019   5.613
 6532WAT    HW119595   2.013   4.980   5.657
 6532WAT    HW219596   1.903   5.100   5.664
 6533WAT     OW19597   0.753   6.509   1.682
 6533WAT    HW119598   0.755   6.605   1.710
 6533WAT    HW219599   0.846   6.476   1.669
 6534WAT     OW19600   0.754   5.924   0.959
 6534WAT    HW119601   0.728   5.838   0.916
 6534WAT    HW219602   0.823   5.905   1.030
 6535WAT     OW19603   3.987   2.880   2.378
 6535WAT    HW119604   4.072   2.846   2.417
 6535WAT    HW219605   3.983   2.980   2.387
 6536WAT     OW19606   5.414   4.970   1.665
 6536WAT    HW119607   5.501   4.932   1.696
 6536WAT    HW219608   5.427   5.016   1.577
 6537WAT     OW19609   0.979   0.436   4.851
 6537WAT    HW119610   0.965   0.337   4.860
 6537WAT    HW219611   0.961   0.464   4.757
 6538WAT     OW19612   2.251   3.967   6.611
 6538WAT    HW119613   2.266   3.868   6.611
 6538WAT    HW219614   2.320   4.011   6.552
 6539WAT     OW19615   5.344   1.709   0.224
 6539WAT    HW119616   5.388   1.797   0.207
 6539WAT    HW219617   5.276   1.692   0.153
 6540WAT     OW19618   3.299   1.809   1.508
 6540WAT    HW119619   3.236   1.734   1.529
 6540WAT    HW219620   3.250   1.896   1.514
 6541WAT     OW19621   5.709   6.113   6.257
 6541WAT    HW119622   5.730   6.021   6.289
 6541WAT    HW219623   5.781   6.176   6.288
 6542WAT     OW19624   0.558   0.664   6.577
 6542WAT    HW119625   0.459   0.660   6.569
 6542WAT    HW219626   0.590   0.758   6.566
 6543WAT     OW19627   0.123   1.914   3.874
 6543WAT    HW119628   0.029   1.937   3.898
 6543WAT    HW219629   0.123   1.857   3.792
 6544WAT     OW19630   1.610   0.971   5.459
 6544WAT    HW119631   1.610   0.873   5.438
 6544WAT    HW219632   1.697   1.011   5.429
 6545WAT     OW19633   2.262   6.454   3.130
 6545WAT    HW119634   2.314   6.508   3.197
 6545WAT    HW219635   2.326   6.406   3.070
 6546WAT     OW19636   1.376   1.628   5.641
 6546WAT    HW119637   1.333   1.540   5.620
 6546WAT    HW219638   1.449   1.646   5.574
 6547WAT     OW19639   2.393   3.106   2.243
 6547WAT    HW119640   2.382   3.060   2.331
 6547WAT    HW219641   2.490   3.122   2.226
 6548WAT     OW19642   6.667   6.424   6.196
 6548WAT    HW119643   6.753   6.399   6.240
 6548WAT    HW219644   6.594   6.429   6.265
 6549WAT     OW19645   5.117   2.986   6.537
 6549WAT    HW119646   5.042   2.999   6.602
 6549WAT    HW219647   5.148   3.075   6.503
 6550WAT     OW19648   6.087   4.759   0.275
 6550WAT    HW119649   6.024   4.792   0.345
 6550WAT    HW219650   6.038   4.748   0.189
 6551WAT     OW19651   6.185   0.183   1.164
 6551WAT    HW119652   6.283   0.203   1.173
 6551WAT    HW219653   6.153   0.139   1.248
 6552WAT     OW19654   6.561   2.635   3.965
 6552WAT    HW119655   6.546   2.667   4.058
 6552WAT    HW219656   6.658   2.618   3.949
 6553WAT     OW19657   3.772   4.968   2.537
 6553WAT    HW119658   3.815   4.945   2.450
 6553WAT    HW219659   3.723   5.055   2.528
 6554WAT     OW19660   2.522   0.509   4.280
 6554WAT    HW119661   2.590   0.469   4.218
 6554WAT    HW219662   2.492   0.439   4.345
 6555WAT     OW19663   4.924   5.861   1.638
 6555WAT    HW119664   4.857   5.787   1.634
 6555WAT    HW219665   4.959   5.880   1.547
 6556WAT     OW19666   4.701   1.668   1.044
 6556WAT    HW119667   4.648   1.680   0.960
 6556WAT    HW219668   4.698   1.753   1.098
 6557WAT     OW19669   1.455   4.257   5.408
 6557WAT    HW119670   1.545   4.280   5.444
 6557WAT    HW219671   1.433   4.316   5.330
 6558WAT     OW19672   4.446   3.695   3.235
 6558WAT    HW119673   4.485   3.691   3.327
 6558WAT    HW219674   4.396   3.610   3.217
 6559WAT     OW19675   6.458   2.904   6.048
 6559WAT    HW119676   6.404   2.978   6.007
 6559WAT    HW219677   6.420   2.880   6.137
 6560WAT     OW19678   0.569   0.814   2.495
 6560WAT    HW119679   0.653   0.833   2.443
 6560WAT    HW219680   0.515   0.745   2.446
 6561WAT     OW19681   2.379   1.500   0.547
 6561WAT    HW119682   2.478   1.488   0.537
 6561WAT    HW219683   2.344   1.553   0.470
 6562WAT     OW19684   5.638   1.737   0.551
 6562WAT    HW119685   5.564   1.680   0.587
 6562WAT    HW219686   5.690   1.686   0.483
 6563WAT     OW19687   5.367   4.093   2.758
 6563WAT    HW119688   5.385   4.164   2.689
 6563WAT    HW219689   5.331   4.136   2.841
 6564WAT     OW19690   3.258   3.589   1.399
 6564WAT    HW119691   3.346   3.597   1.352
 6564WAT    HW219692   3.255   3.652   1.476
 6565WAT     OW19693   4.871   4.276   5.148
 6565WAT    HW119694   4.826   4.209   5.207
 6565WAT    HW219695   4.917   4.345   5.204
 6566WAT     OW19696   2.598   3.442   2.991
 6566WAT    HW119697   2.628   3.347   2.986
 6566WAT    HW219698   2.584   3.477   2.898
 6567WAT     OW19699   2.613   4.577   6.631
 6567WAT    HW119700   2.611   4.582   6.731
 6567WAT    HW219701   2.523   4.600   6.595
 6568WAT     OW19702   5.102   5.659   0.341
 6568WAT    HW119703   5.031   5.729   0.339
 6568WAT    HW219704   5.122   5.630   0.247
 6569WAT     OW19705   2.165   5.944   4.947
 6569WAT    HW119706   2.197   5.997   5.026
 6569WAT    HW219707   2.114   6.004   4.886
 6570WAT     OW19708   0.509   1.036   3.898
 6570WAT    HW119709   0.602   1.030   3.863
 6570WAT    HW219710   0.493   1.129   3.933
 6571WAT     OW19711   0.278   0.204   5.878
 6571WAT    HW119712   0.180   0.218   5.862
 6571WAT    HW219713   0.309   0.127   5.822
 6572WAT     OW19714   1.564   1.678   5.447
 6572WAT    HW119715   1.595   1.607   5.385
 6572WAT    HW219716   1.643   1.722   5.490
 6573WAT     OW19717   5.349   6.012   2.863
 6573WAT    HW119718   5.381   5.930   2.817
 6573WAT    HW219719   5.308   6.074   2.796
 6574WAT     OW19720   4.744   2.793   6.128
 6574WAT    HW119721   4.649   2.769   6.110
 6574WAT    HW219722   4.749   2.849   6.211
 6575WAT     OW19723   6.478   6.601   3.325
 6575WAT    HW119724   6.469   6.686   3.377
 6575WAT    HW219725   6.557   6.550   3.358
 6576WAT     OW19726   1.242   6.557   3.768
 6576WAT    HW119727   1.143   6.572   3.772
 6576WAT    HW219728   1.280   6.560   3.860
 6577WAT     OW19729   2.683   4.952   4.095
 6577WAT    HW119730   2.746   4.979   4.021
 6577WAT    HW219731   2.662   5.031   4.152
 6578WAT     OW19732   5.724   6.554   4.278
 6578WAT    HW119733   5.808   6.565   4.224
 6578WAT    HW219734   5.654   6.512   4.221
 6579WAT     OW19735   3.987   5.711   3.883
 6579WAT    HW119736   3.920   5.739   3.951
 6579WAT    HW219737   3.944   5.649   3.817
 6580WAT     OW19738   5.077   4.707   3.448
 6580WAT    HW119739   5.141   4.732   3.521
 6580WAT    HW219740   4.995   4.763   3.455
 6581WAT     OW19741   5.508   6.187   3.005
 6581WAT    HW119742   5.465   6.111   2.957
 6581WAT    HW219743   5.438   6.254   3.032
 6582WAT     OW19744   5.708   6.308   0.212
 6582WAT    HW119745   5.646   6.242   0.170
 6582WAT    HW219746   5.700   6.396   0.166
 6583WAT     OW19747   0.159   0.610   5.435
 6583WAT    HW119748   0.129   0.662   5.355
 6583WAT    HW219749   0.228   0.662   5.485
 6584WAT     OW19750   0.138   4.213   3.829
 6584WAT    HW119751   0.144   4.137   3.893
 6584WAT    HW219752   0.227   4.229   3.787
 6585WAT     OW19753   6.369   4.266   5.238
 6585WAT    HW119754   6.345   4.256   5.335
 6585WAT    HW219755   6.437   4.197   5.213
 6586WAT     OW19756   3.951   1.583   1.027
 6586WAT    HW119757   3.925   1.679   1.030
 6586WAT    HW219758   3.936   1.547   0.935
 6587WAT     OW19759   6.516   2.682   0.882
 6587WAT    HW119760   6.519   2.620   0.803
 6587WAT    HW219761   6.454   2.758   0.862
 6588WAT     OW19762   2.444   1.383   3.536
 6588WAT    HW119763   2.512   1.420   3.472
 6588WAT    HW219764   2.356   1.428   3.521
 6589WAT     OW19765   6.021   4.256   3.733
 6589WAT    HW119766   6.051   4.161   3.741
 6589WAT    HW219767   5.959   4.278   3.808
 6590WAT     OW19768   6.609   1.034   5.567
 6590WAT    HW119769   6.551   1.029   5.486
 6590WAT    HW219770   6.651   1.124   5.574
 6591WAT     OW19771   1.469   6.397   0.558
 6591WAT    HW119772   1.519   6.328   0.609
 6591WAT    HW219773   1.507   6.405   0.466
 6592WAT     OW19774   3.216   2.065   2.663
 6592WAT    HW119775   3.266   2.132   2.608
 6592WAT    HW219776   3.177   2.110   2.743
 6593WAT     OW19777   3.905   0.399   4.594
 6593WAT    HW119778   3.946   0.311   4.618
 6593WAT    HW219779   3.845   0.389   4.515
 6594WAT     OW19780   2.251   1.166   2.916
 6594WAT    HW119781   2.218   1.110   2.839
 6594WAT    HW219782   2.181   1.170   2.987
 6595WAT     OW19783   4.378   4.534   1.860
 6595WAT    HW119784   4.418   4.624   1.839
 6595WAT    HW219785   4.344   4.534   1.954
 6596WAT     OW19786   6.475   3.367   3.429
 6596WAT    HW119787   6.479   3.342   3.332
 6596WAT    HW219788   6.568   3.369   3.467
 6597WAT     OW19789   5.546   2.995   6.350
 6597WAT    HW119790   5.467   2.934   6.339
 6597WAT    HW219791   5.557   3.017   6.447
 6598WAT     OW19792   1.423   6.460   5.359
 6598WAT    HW119793   1.459   6.370   5.384
 6598WAT    HW219794   1.491   6.530   5.381
 6599WAT     OW19795   6.322   1.691   2.867
 6599WAT    HW119796   6.333   1.754   2.944
 6599WAT    HW219797   6.301   1.600   2.902
 6600WAT     OW19798   6.497   4.310   0.840
 6600WAT    HW119799   6.421   4.283   0.899
 6600WAT    HW219800   6.521   4.405   0.858
 6601WAT     OW19801   1.351   6.444   1.234
 6601WAT    HW119802   1.436   6.497   1.229
 6601WAT    HW219803   1.302   6.451   1.147
 6602WAT     OW19804   5.756   1.326   0.394
 6602WAT    HW119805   5.731   1.235   0.362
 6602WAT    HW219806   5.759   1.389   0.316
 6603WAT     OW19807   0.358   1.471   6.602
 6603WAT    HW119808   0.449   1.487   6.642
 6603WAT    HW219809   0.356   1.380   6.561
 6604WAT     OW19810   0.631   2.865   2.135
 6604WAT    HW119811   0.713   2.823   2.174
 6604WAT    HW219812   0.607   2.820   2.050
 6605WAT     OW19813   6.043   1.208   6.310
 6605WAT    HW119814   6.003   1.292   6.273
 6605WAT    HW219815   6.142   1.215   6.309
 6606WAT     OW19816   4.250   1.858   1.065
 6606WAT    HW119817   4.250   1.952   1.101
 6606WAT    HW219818   4.205   1.857   0.976
 6607WAT     OW19819   5.694   1.960   0.953
 6607WAT    HW119820   5.759   1.961   1.028
 6607WAT    HW219821   5.737   1.922   0.871
 6608WAT     OW19822   3.371   3.643   3.068
 6608WAT    HW119823   3.321   3.666   3.152
 6608WAT    HW219824   3.307   3.624   2.995
 6609WAT     OW19825   0.575   1.532   1.545
 6609WAT    HW119826   0.481   1.500   1.558
 6609WAT    HW219827   0.575   1.613   1.486
 6610WAT     OW19828   5.397   0.398   2.560
 6610WAT    HW119829   5.345   0.344   2.493
 6610WAT    HW219830   5.336   0.463   2.605
 6611WAT     OW19831   4.274   0.167   2.427
 6611WAT    HW119832   4.235   0.196   2.514
 6611WAT    HW219833   4.374   0.173   2.432
 6612WAT     OW19834   4.872   6.667   6.290
 6612WAT    HW119835   4.854   6.580   6.245
 6612WAT    HW219836   4.835   6.742   6.235
 6613WAT     OW19837   3.359   1.364   0.873
 6613WAT    HW119838   3.440   1.393   0.924
 6613WAT    HW219839   3.288   1.334   0.938
 6614WAT     OW19840   2.242   1.904   0.717
 6614WAT    HW119841   2.295   1.960   0.653
 6614WAT    HW219842   2.166   1.958   0.753
 6615WAT     OW19843   5.392   4.041   1.589
 6615WAT    HW119844   5.407   4.138   1.569
 6615WAT    HW219845   5.447   3.985   1.527
 6616WAT     OW19846   4.132   0.082   3.012
 6616WAT    HW119847   4.230   0.079   3.029
 6616WAT    HW219848   4.103  -0.004   2.969
 6617WAT     OW19849   3.374   3.989   6.577
 6617WAT    HW119850   3.439   3.915   6.563
 6617WAT    HW219851   3.331   4.012   6.489
 6618WAT     OW19852   3.187   2.729   4.124
 6618WAT    HW119853   3.276   2.712   4.166
 6618WAT    HW219854   3.167   2.656   4.058
 6619WAT     OW19855   5.960   3.238   2.236
 6619WAT    HW119856   6.045   3.280   2.267
 6619WAT    HW219857   5.926   3.177   2.306
 6620WAT     OW19858   5.956   4.132   2.320
 6620WAT    HW119859   6.029   4.198   2.339
 6620WAT    HW219860   5.906   4.112   2.405
 6621WAT     OW19861   5.224   3.128   0.528
 6621WAT    HW119862   5.170   3.074   0.464
 6621WAT    HW219863   5.163   3.181   0.587
 6622WAT     OW19864   1.772   3.116   3.248
 6622WAT    HW119865   1.706   3.138   3.319
 6622WAT    HW219866   1.831   3.041   3.279
 6623WAT     OW19867   1.662   3.092   4.633
 6623WAT    HW119868   1.564   3.095   4.617
 6623WAT    HW219869   1.688   3.165   4.696
 6624WAT     OW19870   6.100   6.189   1.679
 6624WAT    HW119871   6.034   6.235   1.738
 6624WAT    HW219872   6.175   6.152   1.734
 6625WAT     OW19873   2.604   2.497   0.165
 6625WAT    HW119874   2.511   2.519   0.194
 6625WAT    HW219875   2.653   2.455   0.241
 6626WAT     OW19876   5.286   6.530   2.845
 6626WAT    HW119877   5.379   6.536   2.809
 6626WAT    HW219878   5.221   6.546   2.771
 6627WAT     OW19879   6.258   2.132   5.409
 6627WAT    HW119880   6.284   2.119   5.313
 6627WAT    HW219881   6.205   2.054   5.441
 6628WAT     OW19882   4.832   0.363   1.495
 6628WAT    HW119883   4.928   0.346   1.516
 6628WAT    HW219884   4.777   0.352   1.578
 6629WAT     OW19885   4.216   1.254   0.598
 6629WAT    HW119886   4.145   1.242   0.528
 6629WAT    HW219887   4.276   1.330   0.572
 6630WAT     OW19888   6.126   3.303   1.179
 6630WAT    HW119889   6.062   3.232   1.207
 6630WAT    HW219890   6.220   3.270   1.190
 6631WAT     OW19891   4.757   4.094   5.314
 6631WAT    HW119892   4.679   4.037   5.339
 6631WAT    HW219893   4.838   4.062   5.363
 6632WAT     OW19894   2.854   2.057   4.248
 6632WAT    HW119895   2.805   1.971   4.231
 6632WAT    HW219896   2.880   2.062   4.344
 6633WAT     OW19897   5.773   1.166   2.506
 6633WAT    HW119898   5.825   1.199   2.585
 6633WAT    HW219899   5.834   1.119   2.442
 6634WAT     OW19900   0.465   3.010   5.271
 6634WAT    HW119901   0.408   3.092   5.279
 6634WAT    HW219902   0.408   2.929   5.265
 6635WAT     OW19903   0.723   0.467   1.796
 6635WAT    HW119904   0.774   0.497   1.715
 6635WAT    HW219905   0.784   0.417   1.857
 6636WAT     OW19906   5.424   0.335   1.914
 6636WAT    HW119907   5.363   0.309   1.989
 6636WAT    HW219908   5.431   0.434   1.910
 6637WAT     OW19909   6.561   2.507   0.670
 6637WAT    HW119910   6.616   2.557   0.603
 6637WAT    HW219911   6.505   2.439   0.623
 6638WAT     OW19912   1.656   0.692   5.419
 6638WAT    HW119913   1.729   0.677   5.485
 6638WAT    HW219914   1.674   0.639   5.336
 6639WAT     OW19915   6.597   4.940   3.575
 6639WAT    HW119916   6.627   5.034   3.557
 6639WAT    HW219917   6.597   4.923   3.674
 6640WAT     OW19918   3.697   0.884   3.625
 6640WAT    HW119919   3.740   0.886   3.715
 6640WAT    HW219920   3.767   0.872   3.554
 6641WAT     OW19921   4.047   4.986   0.983
 6641WAT    HW119922   4.035   5.085   0.976
 6641WAT    HW219923   3.958   4.941   0.969
 6642WAT     OW19924   4.118   3.268   4.142
 6642WAT    HW119925   4.159   3.345   4.191
 6642WAT    HW219926   4.176   3.242   4.066
 6643WAT     OW19927   3.097   3.209   5.732
 6643WAT    HW119928   3.097   3.113   5.759
 6643WAT    HW219929   3.003   3.236   5.708
 6644WAT     OW19930   4.559   0.749   5.751
 6644WAT    HW119931   4.506   0.797   5.821
 6644WAT    HW219932   4.527   0.655   5.742
 6645WAT     OW19933   4.432   6.269   3.024
 6645WAT    HW119934   4.491   6.277   3.104
 6645WAT    HW219935   4.344   6.314   3.043
 6646WAT     OW19936   4.955   5.350   2.440
 6646WAT    HW119937   4.953   5.280   2.369
 6646WAT    HW219938   4.988   5.310   2.526
 6647WAT     OW19939   5.784   3.023   5.912
 6647WAT    HW119940   5.779   3.122   5.925
 6647WAT    HW219941   5.747   2.977   5.993
 6648WAT     OW19942   3.154   2.252   3.901
 6648WAT    HW119943   3.234   2.225   3.847
 6648WAT    HW219944   3.145   2.190   3.979
 6649WAT     OW19945   5.800   0.124   5.907
 6649WAT    HW119946   5.899   0.115   5.899
 6649WAT    HW219947   5.771   0.089   5.996
 6650WAT     OW19948   6.382   0.032   1.912
 6650WAT    HW119949   6.329   0.024   1.996
 6650WAT    HW219950   6.480   0.034   1.935
 6651WAT     OW19951   6.335   2.804   6.271
 6651WAT    HW119952   6.344   2.855   6.356
 6651WAT    HW219953   6.381   2.716   6.280
 6652WAT     OW19954   5.376   6.640   0.694
 6652WAT    HW119955   5.296   6.650   0.634
 6652WAT    HW219956   5.366   6.700   0.773
 6653WAT     OW19957   1.913   0.949   2.062
 6653WAT    HW119958   1.994   1.002   2.089
 6653WAT    HW219959   1.835   1.010   2.054
 6654WAT     OW19960   5.537   2.843   4.770
 6654WAT    HW119961   5.442   2.850   4.801
 6654WAT    HW219962   5.539   2.820   4.673
 6655WAT     OW19963   0.827   3.619   0.461
 6655WAT    HW119964   0.908   3.561   0.460
 6655WAT    HW219965   0.854   3.714   0.446
 6656WAT     OW19966   4.067   6.133   3.093
 6656WAT    HW119967   4.086   6.075   3.173
 6656WAT    HW219968   3.970   6.157   3.092
 6657WAT     OW19969   2.781   5.941   4.057
 6657WAT    HW119970   2.877   5.959   4.034
 6657WAT    HW219971   2.766   5.963   4.154
 6658WAT     OW19972   4.153   6.067   3.559
 6658WAT    HW119973   4.072   6.122   3.538
 6658WAT    HW219974   4.137   6.014   3.642
 6659WAT     OW19975   2.612   4.994   5.368
 6659WAT    HW119976   2.524   4.992   5.415
 6659WAT    HW219977   2.634   5.088   5.342
 6660WAT     OW19978   3.938   3.123   4.740
 6660WAT    HW119979   4.021   3.085   4.698
 6660WAT    HW219980   3.950   3.221   4.753
 6661WAT     OW19981   1.706   1.359   4.565
 6661WAT    HW119982   1.742   1.297   4.635
 6661WAT    HW219983   1.780   1.385   4.503
 6662WAT     OW19984   5.847   1.402   4.507
 6662WAT    HW119985   5.779   1.419   4.436
 6662WAT    HW219986   5.804   1.409   4.597
 6663WAT     OW19987   1.021   0.015   3.204
 6663WAT    HW119988   0.977  -0.075   3.208
 6663WAT    HW219989   1.023   0.047   3.110
 6664WAT     OW19990   1.563   1.987   4.684
 6664WAT    HW119991   1.609   1.909   4.641
 6664WAT    HW219992   1.490   1.954   4.743
 6665WAT     OW19993   2.774   5.796   5.722
 6665WAT    HW119994   2.803   5.705   5.693
 6665WAT    HW219995   2.685   5.790   5.768
 6666WAT     OW19996   0.324   2.539   2.368
 6666WAT    HW119997   0.382   2.539   2.449
 6666WAT    HW219998   0.232   2.509   2.393
 6667WAT     OW19999   3.999   5.268   3.655
 6667WAT    HW120000   4.037   5.208   3.585
 6667WAT    HW220001   4.060   5.269   3.735
 6668WAT     OW20002   4.478   4.618   0.171
 6668WAT    HW120003   4.397   4.591   0.119
 6668WAT    HW220004   4.495   4.716   0.156
 6669WAT     OW20005   1.019   0.319   3.628
 6669WAT    HW120006   1.103   0.369   3.606
 6669WAT    HW220007   1.004   0.247   3.560
 6670WAT     OW20008   2.498   5.529   2.694
 6670WAT    HW120009   2.559   5.465   2.740
 6670WAT    HW220010   2.509   5.621   2.733
 6671WAT     OW20011   2.549   5.234   4.034
 6671WAT    HW120012   2.580   5.225   4.129
 6671WAT    HW220013   2.487   5.312   4.027
 6672WAT     OW20014   6.177   6.143   0.992
 6672WAT    HW120015   6.196   6.078   0.918
 6672WAT    HW220016   6.149   6.094   1.074
 6673WAT     OW20017   1.770   3.755   1.684
 6673WAT    HW120018   1.827   3.778   1.763
 6673WAT    HW220019   1.759   3.836   1.626
 6674WAT     OW20020   6.321   4.370   2.596
 6674WAT    HW120021   6.338   4.335   2.688
 6674WAT    HW220022   6.370   4.457   2.584
 6675WAT     OW20023   0.678   0.761   4.899
 6675WAT    HW120024   0.613   0.689   4.874
 6675WAT    HW220025   0.760   0.752   4.842
 6676WAT     OW20026   1.621   6.445   5.644
 6676WAT    HW120027   1.697   6.402   5.595
 6676WAT    HW220028   1.654   6.526   5.691
 6677WAT     OW20029   3.977   3.699   3.602
 6677WAT    HW120030   4.066   3.655   3.613
 6677WAT    HW220031   3.990   3.798   3.589
 6678WAT     OW20032   3.456   0.814   1.176
 6678WAT    HW120033   3.488   0.845   1.266
 6678WAT    HW220034   3.360   0.787   1.183
 6679WAT     OW20035   2.530   3.789   2.405
 6679WAT    HW120036   2.430   3.780   2.402
 6679WAT    HW220037   2.569   3.741   2.327
 6680WAT     OW20038   5.221   3.017   3.502
 6680WAT    HW120039   5.301   2.984   3.451
 6680WAT    HW220040   5.239   3.110   3.535
 6681WAT     OW20041   0.715   5.382   5.157
 6681WAT    HW120042   0.780   5.364   5.083
 6681WAT    HW220043   0.650   5.306   5.162
 6682WAT     OW20044   1.228   2.510   5.754
 6682WAT    HW120045   1.181   2.549   5.833
 6682WAT    HW220046   1.272   2.584   5.702
 6683WAT     OW20047   5.462   3.615   3.184
 6683WAT    HW120048   5.509   3.598   3.271
 6683WAT    HW220049   5.366   3.585   3.192
 6684WAT     OW20050   2.141   2.798   3.218
 6684WAT    HW120051   2.214   2.866   3.213
 6684WAT    HW220052   2.180   2.710   3.245
 6685WAT     OW20053   5.231   0.280   3.509
 6685WAT    HW120054   5.315   0.230   3.530
 6685WAT    HW220055   5.249   0.347   3.437
 6686WAT     OW20056   2.906   3.040   1.707
 6686WAT    HW120057   2.964   2.959   1.713
 6686WAT    HW220058   2.844   3.032   1.628
 6687WAT     OW20059   6.321   2.507   4.240
 6687WAT    HW120060   6.243   2.474   4.293
 6687WAT    HW220061   6.322   2.607   4.241
 6688WAT     OW20062   3.454   5.987   1.077
 6688WAT    HW120063   3.473   5.890   1.095
 6688WAT    HW220064   3.539   6.038   1.075
 6689WAT     OW20065   2.984   4.174   4.048
 6689WAT    HW120066   2.898   4.163   4.098
 6689WAT    HW220067   2.966   4.164   3.950
 6690WAT     OW20068   3.188   4.867   4.672
 6690WAT    HW120069   3.216   4.771   4.683
 6690WAT    HW220070   3.092   4.877   4.697
 6691WAT     OW20071   5.881   1.371   3.228
 6691WAT    HW120072   5.816   1.328   3.164
 6691WAT    HW220073   5.954   1.306   3.250
 6692WAT     OW20074   5.946   5.402   0.481
 6692WAT    HW120075   5.975   5.446   0.396
 6692WAT    HW220076   5.955   5.303   0.471
 6693WAT     OW20077   0.030   4.641   3.955
 6693WAT    HW120078   0.025   4.618   4.052
 6693WAT    HW220079  -0.039   4.589   3.904
 6694WAT     OW20080   2.131   6.042   6.416
 6694WAT    HW120081   2.120   5.957   6.467
 6694WAT    HW220082   2.227   6.070   6.418
 6695WAT     OW20083   1.385   6.482   4.339
 6695WAT    HW120084   1.349   6.502   4.430
 6695WAT    HW220085   1.309   6.460   4.277
 6696WAT     OW20086   3.332   0.322   4.109
 6696WAT    HW120087   3.239   0.304   4.143
 6696WAT    HW220088   3.329   0.337   4.010
 6697WAT     OW20089   1.551   0.048   0.353
 6697WAT    HW120090   1.516   0.139   0.379
 6697WAT    HW220091   1.474  -0.014   0.339
 6698WAT     OW20092   6.273   2.697   3.200
 6698WAT    HW120093   6.255   2.737   3.290
 6698WAT    HW220094   6.368   2.668   3.194
 6699WAT     OW20095   2.730   4.450   3.040
 6699WAT    HW120096   2.639   4.488   3.055
 6699WAT    HW220097   2.795   4.495   3.102
 6700WAT     OW20098   1.377   0.809   3.324
 6700WAT    HW120099   1.350   0.745   3.253
 6700WAT    HW220100   1.386   0.901   3.285
 6701WAT     OW20101   1.346   4.545   4.579
 6701WAT    HW120102   1.285   4.611   4.535
 6701WAT    HW220103   1.384   4.484   4.509
 6702WAT     OW20104   0.031   5.199   4.424
 6702WAT    HW120105   0.041   5.156   4.514
 6702WAT    HW220106  -0.066   5.200   4.398
 6703WAT     OW20107   1.961   2.694   3.762
 6703WAT    HW120108   2.044   2.750   3.751
 6703WAT    HW220109   1.965   2.647   3.851
 6704WAT     OW20110   6.342   0.472   1.925
 6704WAT    HW120111   6.442   0.481   1.933
 6704WAT    HW220112   6.318   0.464   1.828
 6705WAT     OW20113   2.573   2.148   2.751
 6705WAT    HW120114   2.526   2.164   2.838
 6705WAT    HW220115   2.669   2.124   2.770
 6706WAT     OW20116   6.303   5.220   3.757
 6706WAT    HW120117   6.388   5.206   3.808
 6706WAT    HW220118   6.262   5.307   3.782
 6707WAT     OW20119   4.270   2.083   2.920
 6707WAT    HW120120   4.175   2.080   2.951
 6707WAT    HW220121   4.273   2.094   2.821
 6708WAT     OW20122   3.098   3.069   0.917
 6708WAT    HW120123   3.136   3.096   0.829
 6708WAT    HW220124   3.130   3.131   0.989
 6709WAT     OW20125   1.142   0.320   1.001
 6709WAT    HW120126   1.241   0.321   1.019
 6709WAT    HW220127   1.100   0.402   1.039
 6710WAT     OW20128   5.951   0.343   0.831
 6710WAT    HW120129   6.050   0.358   0.827
 6710WAT    HW220130   5.904   0.424   0.797
 6711WAT     OW20131   0.750   4.747   5.906
 6711WAT    HW120132   0.725   4.784   5.996
 6711WAT    HW220133   0.667   4.727   5.855
 6712WAT     OW20134   2.088   6.658   3.985
 6712WAT    HW120135   1.991   6.649   4.005
 6712WAT    HW220136   2.141   6.600   4.048
 6713WAT     OW20137   1.201   4.196   0.778
 6713WAT    HW120138   1.173   4.106   0.813
 6713WAT    HW220139   1.264   4.183   0.701
 6714WAT     OW20140   4.465   4.436   4.001
 6714WAT    HW120141   4.435   4.355   3.950
 6714WAT    HW220142   4.541   4.479   3.953
 6715WAT     OW20143   3.015   5.455   6.613
 6715WAT    HW120144   2.937   5.513   6.590
 6715WAT    HW220145   3.078   5.506   6.671
 6716WAT     OW20146   4.085   0.200   3.262
 6716WAT    HW120147   4.106   0.168   3.169
 6716WAT    HW220148   4.124   0.291   3.276
 6717WAT     OW20149   0.404   4.643   2.770
 6717WAT    HW120150   0.440   4.715   2.830
 6717WAT    HW220151   0.476   4.613   2.708
 6718WAT     OW20152   6.396   1.320   4.685
 6718WAT    HW120153   6.394   1.369   4.772
 6718WAT    HW220154   6.309   1.334   4.637
 6719WAT     OW20155   2.940   3.903   5.588
 6719WAT    HW120156   2.896   3.979   5.635
 6719WAT    HW220157   2.873   3.830   5.574
 6720WAT     OW20158   2.123   2.869   2.554
 6720WAT    HW120159   2.087   2.797   2.495
 6720WAT    HW220160   2.213   2.898   2.521
 6721WAT     OW20161   3.046   4.471   0.106
 6721WAT    HW120162   3.028   4.564   0.138
 6721WAT    HW220163   3.140   4.445   0.128
 6722WAT     OW20164   5.286   5.216   3.613
 6722WAT    HW120165   5.228   5.171   3.545
 6722WAT    HW220166   5.232   5.238   3.694
 6723WAT     OW20167   5.857   4.146   5.446
 6723WAT    HW120168   5.926   4.215   5.466
 6723WAT    HW220169   5.895   4.055   5.464
 6724WAT     OW20170   3.100   0.455   0.398
 6724WAT    HW120171   3.085   0.384   0.467
 6724WAT    HW220172   3.112   0.543   0.442
 6725WAT     OW20173   1.247   4.814   4.732
 6725WAT    HW120174   1.181   4.858   4.792
 6725WAT    HW220175   1.328   4.786   4.785
 6726WAT     OW20176   3.963   0.100   6.304
 6726WAT    HW120177   3.959   0.006   6.338
 6726WAT    HW220178   3.872   0.141   6.309
 6727WAT     OW20179   0.047   0.972   0.047
 6727WAT    HW120180   0.062   0.920   0.131
 6727WAT    HW220181   0.103   1.055   0.049
 6728WAT     OW20182   5.254   1.309   2.124
 6728WAT    HW120183   5.247   1.393   2.071
 6728WAT    HW220184   5.184   1.308   2.195
 6729WAT     OW20185   3.155   3.010   6.340
 6729WAT    HW120186   3.077   2.961   6.378
 6729WAT    HW220187   3.240   2.975   6.380
 6730WAT     OW20188   4.640   3.693   4.021
 6730WAT    HW120189   4.631   3.792   4.024
 6730WAT    HW220190   4.597   3.653   4.102
 6731WAT     OW20191   4.100   4.306   2.163
 6731WAT    HW120192   4.025   4.332   2.225
 6731WAT    HW220193   4.123   4.210   2.178
 6732WAT     OW20194   1.044   6.413   6.240
 6732WAT    HW120195   1.069   6.407   6.144
 6732WAT    HW220196   1.077   6.332   6.289
 6733WAT     OW20197   5.380   1.537   5.987
 6733WAT    HW120198   5.298   1.580   5.950
 6733WAT    HW220199   5.359   1.444   6.017
 6734WAT     OW20200   5.295   5.688   6.602
 6734WAT    HW120201   5.340   5.630   6.535
 6734WAT    HW220202   5.361   5.717   6.671
 6735WAT     OW20203   4.499   4.006   2.674
 6735WAT    HW120204   4.401   3.990   2.685
 6735WAT    HW220205   4.546   3.918   2.668
 6736WAT     OW20206   4.055   2.217   0.971
 6736WAT    HW120207   4.093   2.162   0.896
 6736WAT    HW220208   3.956   2.206   0.973
 6737WAT     OW20209   2.381   5.567   1.349
 6737WAT    HW120210   2.388   5.504   1.273
 6737WAT    HW220211   2.287   5.603   1.354
 6738WAT     OW20212   5.996   4.121   0.183
 6738WAT    HW120213   6.086   4.090   0.211
 6738WAT    HW220214   5.979   4.213   0.220
 6739WAT     OW20215   3.943   1.973   1.209
 6739WAT    HW120216   3.925   1.930   1.121
 6739WAT    HW220217   3.941   1.903   1.281
 6740WAT     OW20218   5.272   6.543   1.847
 6740WAT    HW120219   5.355   6.487   1.855
 6740WAT    HW220220   5.199   6.488   1.805
 6741WAT     OW20221   4.750   1.677   2.473
 6741WAT    HW120222   4.682   1.667   2.545
 6741WAT    HW220223   4.723   1.750   2.411
 6742WAT     OW20224   4.186   5.063   4.691
 6742WAT    HW120225   4.104   5.040   4.742
 6742WAT    HW220226   4.254   5.103   4.752
 6743WAT     OW20227   1.632   2.276   6.471
 6743WAT    HW120228   1.605   2.373   6.466
 6743WAT    HW220229   1.603   2.229   6.388
 6744WAT     OW20230   0.573   2.552   1.001
 6744WAT    HW120231   0.501   2.506   1.053
 6744WAT    HW220232   0.589   2.501   0.916
 6745WAT     OW20233   1.665   5.436   1.006
 6745WAT    HW120234   1.654   5.365   1.075
 6745WAT    HW220235   1.668   5.526   1.052
 6746WAT     OW20236   6.101   4.812   4.529
 6746WAT    HW120237   6.128   4.879   4.461
 6746WAT    HW220238   6.048   4.739   4.485
 6747WAT     OW20239   3.524   4.075   0.582
 6747WAT    HW120240   3.526   3.975   0.589
 6747WAT    HW220241   3.471   4.113   0.657
 6748WAT     OW20242   0.655   1.077   0.299
 6748WAT    HW120243   0.678   1.003   0.236
 6748WAT    HW220244   0.566   1.058   0.342
 6749WAT     OW20245   5.605   3.522   2.713
 6749WAT    HW120246   5.532   3.547   2.650
 6749WAT    HW220247   5.650   3.606   2.746
 6750WAT     OW20248   2.862   3.606   4.728
 6750WAT    HW120249   2.897   3.609   4.635
 6750WAT    HW220250   2.914   3.670   4.785
 6751WAT     OW20251   4.174   0.440   3.342
 6751WAT    HW120252   4.165   0.436   3.442
 6751WAT    HW220253   4.205   0.531   3.315
 6752WAT     OW20254   5.916   3.076   4.597
 6752WAT    HW120255   5.902   3.045   4.503
 6752WAT    HW220256   5.872   3.011   4.660
 6753WAT     OW20257   4.223   0.111   5.861
 6753WAT    HW120258   4.176   0.189   5.820
 6753WAT    HW220259   4.222   0.120   5.961
 6754WAT     OW20260   4.071   0.855   1.346
 6754WAT    HW120261   4.034   0.907   1.269
 6754WAT    HW220262   4.026   0.883   1.430
 6755WAT     OW20263   4.946   4.785   1.015
 6755WAT    HW120264   4.940   4.882   0.993
 6755WAT    HW220265   4.962   4.732   0.932
 6756WAT     OW20266   1.742   4.169   5.121
 6756WAT    HW120267   1.806   4.117   5.064
 6756WAT    HW220268   1.754   4.267   5.105
 6757WAT     OW20269   3.955   0.261   2.901
 6757WAT    HW120270   4.021   0.199   2.944
 6757WAT    HW220271   3.883   0.207   2.858
 6758WAT     OW20272   0.689   0.910   6.551
 6758WAT    HW120273   0.741   0.992   6.577
 6758WAT    HW220274   0.677   0.909   6.452
 6759WAT     OW20275   4.234   0.675   0.833
 6759WAT    HW120276   4.198   0.584   0.852
 6759WAT    HW220277   4.163   0.744   0.851
 6760WAT     OW20278   4.455   0.727   2.425
 6760WAT    HW120279   4.519   0.786   2.472
 6760WAT    HW220280   4.398   0.679   2.492
 6761WAT     OW20281   4.604   3.177   5.260
 6761WAT    HW120282   4.663   3.175   5.341
 6761WAT    HW220283   4.656   3.148   5.180
 6762WAT     OW20284   5.853   0.254   4.027
 6762WAT    HW120285   5.907   0.227   4.106
 6762WAT    HW220286   5.787   0.325   4.053
 6763WAT     OW20287   2.250   0.273   3.478
 6763WAT    HW120288   2.152   0.292   3.469
 6763WAT    HW220289   2.302   0.355   3.452
 6764WAT     OW20290   2.178   0.391   2.620
 6764WAT    HW120291   2.114   0.467   2.628
 6764WAT    HW220292   2.217   0.371   2.709
 6765WAT     OW20293   5.020   1.351   0.431
 6765WAT    HW120294   5.022   1.424   0.499
 6765WAT    HW220295   5.014   1.391   0.340
 6766WAT     OW20296   0.506   4.811   5.092
 6766WAT    HW120297   0.508   4.885   5.025
 6766WAT    HW220298   0.598   4.791   5.124
 6767WAT     OW20299   1.698   0.941   0.622
 6767WAT    HW120300   1.672   0.937   0.525
 6767WAT    HW220301   1.797   0.953   0.629
 6768WAT     OW20302   2.230   0.966   1.085
 6768WAT    HW120303   2.306   0.974   1.020
 6768WAT    HW220304   2.172   0.889   1.059
 6769WAT     OW20305   0.517   5.176   5.139
 6769WAT    HW120306   0.478   5.156   5.228
 6769WAT    HW220307   0.460   5.244   5.092
 6770WAT     OW20308   0.002   6.433   5.414
 6770WAT    HW120309   0.024   6.348   5.368
 6770WAT    HW220310   0.001   6.419   5.513
 6771WAT     OW20311   5.547   5.510   0.883
 6771WAT    HW120312   5.489   5.546   0.811
 6771WAT    HW220313   5.581   5.420   0.856
 6772WAT     OW20314   0.357   1.219   6.498
 6772WAT    HW120315   0.454   1.201   6.486
 6772WAT    HW220316   0.306   1.183   6.419
 6773WAT     OW20317   1.679   5.619   1.906
 6773WAT    HW120318   1.645   5.541   1.959
 6773WAT    HW220319   1.750   5.587   1.843
 6774WAT     OW20320   4.314   4.941   4.480
 6774WAT    HW120321   4.350   4.854   4.512
 6774WAT    HW220322   4.262   4.985   4.553
 6775WAT     OW20323   3.377   3.624   1.805
 6775WAT    HW120324   3.315   3.582   1.872
 6775WAT    HW220325   3.418   3.706   1.845
 6776WAT     OW20326   4.493   3.304   1.939
 6776WAT    HW120327   4.576   3.251   1.920
 6776WAT    HW220328   4.503   3.396   1.902
 6777WAT     OW20329   4.279   2.736   1.774
 6777WAT    HW120330   4.287   2.642   1.741
 6777WAT    HW220331   4.368   2.766   1.808
 6778WAT     OW20332   0.367   5.291   2.810
 6778WAT    HW120333   0.344   5.194   2.808
 6778WAT    HW220334   0.440   5.309   2.743
 6779WAT     OW20335   0.056   3.466   5.515
 6779WAT    HW120336   0.147   3.479   5.474
 6779WAT    HW220337   0.031   3.548   5.566
 6780WAT     OW20338   2.896   6.644   4.202
 6780WAT    HW120339   2.929   6.625   4.294
 6780WAT    HW220340   2.833   6.721   4.204
 6781WAT     OW20341   6.308   2.724   5.912
 6781WAT    HW120342   6.379   2.781   5.952
 6781WAT    HW220343   6.221   2.740   5.958
 6782WAT     OW20344   6.559   0.119   5.463
 6782WAT    HW120345   6.618   0.056   5.514
 6782WAT    HW220346   6.595   0.133   5.371
 6783WAT     OW20347   5.200   5.233   1.610
 6783WAT    HW120348   5.180   5.291   1.689
 6783WAT    HW220349   5.290   5.256   1.574
 6784WAT     OW20350   3.809   4.284   4.384
 6784WAT    HW120351   3.861   4.200   4.397
 6784WAT    HW220352   3.806   4.307   4.287
 6785WAT     OW20353   3.997   0.574   2.517
 6785WAT    HW120354   3.915   0.517   2.511
 6785WAT    HW220355   4.036   0.585   2.425
 6786WAT     OW20356   1.786   0.839   5.731
 6786WAT    HW120357   1.726   0.804   5.803
 6786WAT    HW220358   1.822   0.762   5.678
 6787WAT     OW20359   0.080   5.705   2.818
 6787WAT    HW120360   0.095   5.775   2.749
 6787WAT    HW220361  -0.009   5.662   2.804
 6788WAT     OW20362   4.483   5.600   1.629
 6788WAT    HW120363   4.578   5.629   1.638
 6788WAT    HW220364   4.479   5.501   1.619
 6789WAT     OW20365   3.732   2.885   4.531
 6789WAT    HW120366   3.822   2.849   4.504
 6789WAT    HW220367   3.702   2.839   4.615
 6790WAT     OW20368   5.893   6.091   0.558
 6790WAT    HW120369   5.880   6.129   0.649
 6790WAT    HW220370   5.825   6.019   0.542
 6791WAT     OW20371   3.687   6.667   4.498
 6791WAT    HW120372   3.749   6.708   4.431
 6791WAT    HW220373   3.593   6.678   4.468
 6792WAT     OW20374   3.600   2.797   5.928
 6792WAT    HW120375   3.639   2.803   5.836
 6792WAT    HW220376   3.654   2.854   5.991
 6793WAT     OW20377   2.732   0.728   5.815
 6793WAT    HW120378   2.672   0.704   5.739
 6793WAT    HW220379   2.796   0.653   5.832
 6794WAT     OW20380   5.827   4.059   4.994
 6794WAT    HW120381   5.799   3.963   5.005
 6794WAT    HW220382   5.919   4.062   4.957
 6795WAT     OW20383   0.173   5.197   0.864
 6795WAT    HW120384   0.191   5.099   0.859
 6795WAT    HW220385   0.080   5.212   0.898
 6796WAT     OW20386   3.542   2.434   5.743
 6796WAT    HW120387   3.467   2.412   5.806
 6796WAT    HW220388   3.526   2.523   5.701
 6797WAT     OW20389   3.338   2.550   1.331
 6797WAT    HW120390   3.327   2.483   1.258
 6797WAT    HW220391   3.356   2.640   1.292
 6798WAT     OW20392   2.103   3.081   3.738
 6798WAT    HW120393   2.140   2.989   3.745
 6798WAT    HW220394   2.040   3.097   3.814
 6799WAT     OW20395   3.533   4.187   2.399
 6799WAT    HW120396   3.540   4.275   2.353
 6799WAT    HW220397   3.439   4.172   2.430
 6800WAT     OW20398   1.655   5.915   2.675
 6800WAT    HW120399   1.605   5.934   2.759
 6800WAT    HW220400   1.592   5.876   2.607
 6801WAT     OW20401   1.599   0.162   1.199
 6801WAT    HW120402   1.619   0.211   1.284
 6801WAT    HW220403   1.682   0.156   1.144
 6802WAT     OW20404   1.369   4.711   1.900
 6802WAT    HW120405   1.392   4.616   1.878
 6802WAT    HW220406   1.293   4.741   1.843
 6803WAT     OW20407   6.091   2.169   3.779
 6803WAT    HW120408   6.104   2.070   3.767
 6803WAT    HW220409   6.146   2.218   3.711
 6804WAT     OW20410   0.972   0.717   6.506
 6804WAT    HW120411   0.921   0.722   6.420
 6804WAT    HW220412   0.914   0.675   6.577
 6805WAT     OW20413   5.018   2.265   3.528
 6805WAT    HW120414   5.080   2.262   3.450
 6805WAT    HW220415   4.924   2.256   3.497
 6806WAT     OW20416   0.448   0.580   5.127
 6806WAT    HW120417   0.423   0.677   5.136
 6806WAT    HW220418   0.528   0.561   5.183
 6807WAT     OW20419   2.628   5.263   5.335
 6807WAT    HW120420   2.532   5.281   5.355
 6807WAT    HW220421   2.652   5.306   5.247
 6808WAT     OW20422   4.342   5.657   3.107
 6808WAT    HW120423   4.337   5.706   3.194
 6808WAT    HW220424   4.354   5.722   3.032
 6809WAT     OW20425   0.051   0.217   3.129
 6809WAT    HW120426   0.129   0.269   3.094
 6809WAT    HW220427   0.076   0.176   3.217
 6810WAT     OW20428   0.385   3.304   1.880
 6810WAT    HW120429   0.428   3.290   1.969
 6810WAT    HW220430   0.393   3.221   1.825
 6811WAT     OW20431   1.707   4.738   3.474
 6811WAT    HW120432   1.772   4.708   3.405
 6811WAT    HW220433   1.679   4.832   3.456
 6812WAT     OW20434   6.682   4.042   2.336
 6812WAT    HW120435   6.680   3.971   2.266
 6812WAT    HW220436   6.771   4.042   2.381
 6813WAT     OW20437   1.823   6.621   4.050
 6813WAT    HW120438   1.817   6.657   4.143
 6813WAT    HW220439   1.742   6.647   3.998
 6814WAT     OW20440   3.572   2.449   0.033
 6814WAT    HW120441   3.640   2.490   0.093
 6814WAT    HW220442   3.614   2.425  -0.054
 6815WAT     OW20443   2.515   2.099   4.799
 6815WAT    HW120444   2.593   2.129   4.855
 6815WAT    HW220445   2.493   2.170   4.732
 6816WAT     OW20446   2.153   4.698   2.605
 6816WAT    HW120447   2.138   4.688   2.703
 6816WAT    HW220448   2.158   4.795   2.581
 6817WAT     OW20449   1.708   4.566   1.113
 6817WAT    HW120450   1.753   4.492   1.063
 6817WAT    HW220451   1.612   4.543   1.127
 6818WAT     OW20452   6.323   0.187   0.106
 6818WAT    HW120453   6.239   0.188   0.051
 6818WAT    HW220454   6.311   0.124   0.183
 6819WAT     OW20455   4.156   5.196   5.004
 6819WAT    HW120456   4.117   5.287   5.020
 6819WAT    HW220457   4.235   5.204   4.943
 6820WAT     OW20458   0.782   0.301   5.255
 6820WAT    HW120459   0.788   0.214   5.303
 6820WAT    HW220460   0.872   0.344   5.252
 6821WAT     OW20461   5.721   2.094   6.515
 6821WAT    HW120462   5.774   2.129   6.592
 6821WAT    HW220463   5.638   2.149   6.504
 6822WAT     OW20464   0.026   4.722   6.572
 6822WAT    HW120465  -0.067   4.756   6.584
 6822WAT    HW220466   0.073   4.776   6.502
 6823WAT     OW20467   2.148   6.299   6.002
 6823WAT    HW120468   2.143   6.214   6.054
 6823WAT    HW220469   2.205   6.365   6.051
 6824WAT     OW20470   1.048   5.660   1.078
 6824WAT    HW120471   1.011   5.752   1.095
 6824WAT    HW220472   1.096   5.660   0.990
 6825WAT     OW20473   0.702   1.788   4.303
 6825WAT    HW120474   0.772   1.760   4.237
 6825WAT    HW220475   0.679   1.884   4.289
 6826WAT     OW20476   0.847   3.887   0.730
 6826WAT    HW120477   0.866   3.965   0.670
 6826WAT    HW220478   0.748   3.874   0.736
 6827WAT     OW20479   4.168   1.770   6.168
 6827WAT    HW120480   4.219   1.688   6.191
 6827WAT    HW220481   4.192   1.801   6.076
 6828WAT     OW20482   3.657   1.745   0.886
 6828WAT    HW120483   3.631   1.787   0.973
 6828WAT    HW220484   3.610   1.790   0.811
 6829WAT     OW20485   5.589   1.802   5.697
 6829WAT    HW120486   5.595   1.706   5.724
 6829WAT    HW220487   5.504   1.841   5.733
 6830WAT     OW20488   1.726   0.594   1.863
 6830WAT    HW120489   1.692   0.675   1.815
 6830WAT    HW220490   1.704   0.601   1.960
 6831WAT     OW20491   3.195   0.744   1.252
 6831WAT    HW120492   3.136   0.808   1.203
 6831WAT    HW220493   3.167   0.739   1.348
 6832WAT     OW20494   1.451   0.930   4.399
 6832WAT    HW120495   1.511   0.926   4.479
 6832WAT    HW220496   1.358   0.948   4.428
 6833WAT     OW20497   1.987   5.439   6.003
 6833WAT    HW120498   2.012   5.344   5.985
 6833WAT    HW220499   1.998   5.493   5.919
 6834WAT     OW20500   5.100   5.765   1.167
 6834WAT    HW120501   5.111   5.673   1.128
 6834WAT    HW220502   5.188   5.813   1.165
 6835WAT     OW20503   0.666   4.014   5.854
 6835WAT    HW120504   0.736   4.070   5.810
 6835WAT    HW220505   0.686   3.917   5.839
 6836WAT     OW20506   4.591   2.885   4.716
 6836WAT    HW120507   4.572   2.891   4.814
 6836WAT    HW220508   4.665   2.819   4.701
 6837WAT     OW20509   1.973   4.579   0.818
 6837WAT    HW120510   2.023   4.544   0.739
 6837WAT    HW220511   2.035   4.588   0.896
 6838WAT     OW20512   4.177   0.895   5.433
 6838WAT    HW120513   4.088   0.858   5.404
 6838WAT    HW220514   4.162   0.978   5.487
 6839WAT     OW20515   2.206   6.084   3.896
 6839WAT    HW120516   2.126   6.025   3.879
 6839WAT    HW220517   2.259   6.092   3.811
 6840WAT     OW20518   1.392   2.038   1.476
 6840WAT    HW120519   1.297   2.040   1.446
 6840WAT    HW220520   1.395   2.053   1.575
 6841WAT     OW20521   3.055   4.622   5.427
 6841WAT    HW120522   3.089   4.539   5.471
 6841WAT    HW220523   3.129   4.689   5.420
 6842WAT     OW20524   2.294   3.415   4.007
 6842WAT    HW120525   2.202   3.390   3.977
 6842WAT    HW220526   2.353   3.424   3.926
 6843WAT     OW20527   6.335   4.866   5.755
 6843WAT    HW120528   6.431   4.885   5.774
 6843WAT    HW220529   6.281   4.877   5.838
 6844WAT     OW20530   0.702   3.329   4.958
 6844WAT    HW120531   0.624   3.370   5.005
 6844WAT    HW220532   0.699   3.354   4.861
 6845WAT     OW20533   4.608   5.223   0.094
 6845WAT    HW120534   4.530   5.268   0.138
 6845WAT    HW220535   4.651   5.160   0.159
 6846WAT     OW20536   4.340   1.347   5.011
 6846WAT    HW120537   4.267   1.281   5.028
 6846WAT    HW220538   4.427   1.309   5.042
 6847WAT     OW20539   1.489   3.173   0.029
 6847WAT    HW120540   1.414   3.239   0.022
 6847WAT    HW220541   1.575   3.218   0.007
 6848WAT     OW20542   1.295   1.189   1.853
 6848WAT    HW120543   1.262   1.209   1.945
 6848WAT    HW220544   1.279   1.268   1.793
 6849WAT     OW20545   2.710   4.089   6.153
 6849WAT    HW120546   2.685   4.047   6.065
 6849WAT    HW220547   2.809   4.077   6.168
 6850WAT     OW20548   2.653   4.005   3.707
 6850WAT    HW120549   2.690   4.011   3.615
 6850WAT    HW220550   2.647   4.097   3.747
 6851WAT     OW20551   0.363   5.622   2.041
 6851WAT    HW120552   0.358   5.716   2.008
 6851WAT    HW220553   0.414   5.620   2.127
 6852WAT     OW20554   4.889   0.211   5.188
 6852WAT    HW120555   4.837   0.293   5.212
 6852WAT    HW220556   4.897   0.152   5.268
 6853WAT     OW20557   5.029   5.951   2.111
 6853WAT    HW120558   5.025   6.039   2.159
 6853WAT    HW220559   5.108   5.951   2.049
 6854WAT     OW20560   4.950   4.164   5.891
 6854WAT    HW120561   4.933   4.251   5.845
 6854WAT    HW220562   4.954   4.179   5.990
 6855WAT     OW20563   6.060   5.004   5.380
 6855WAT    HW120564   6.056   5.089   5.328
 6855WAT    HW220565   6.060   4.926   5.317
 6856WAT     OW20566   6.184   2.310   6.521
 6856WAT    HW120567   6.103   2.355   6.558
 6856WAT    HW220568   6.159   2.223   6.479
 6857WAT     OW20569   0.759   5.422   1.392
 6857WAT    HW120570   0.798   5.393   1.479
 6857WAT    HW220571   0.704   5.505   1.406
 6858WAT     OW20572   0.749   4.962   2.971
 6858WAT    HW120573   0.753   4.917   3.060
 6858WAT    HW220574   0.777   5.057   2.981
 6859WAT     OW20575   4.278   3.553   5.674
 6859WAT    HW120576   4.213   3.548   5.749
 6859WAT    HW220577   4.322   3.643   5.674
 6860WAT     OW20578   2.548   0.921   4.865
 6860WAT    HW120579   2.624   0.932   4.930
 6860WAT    HW220580   2.579   0.867   4.787
 6861WAT     OW20581   1.122   3.990   1.751
 6861WAT    HW120582   1.181   4.052   1.803
 6861WAT    HW220583   1.034   4.035   1.734
 6862WAT     OW20584   2.304   3.387   5.355
 6862WAT    HW120585   2.218   3.337   5.370
 6862WAT    HW220586   2.381   3.324   5.367
 6863WAT     OW20587   4.177   3.939   6.491
 6863WAT    HW120588   4.254   3.877   6.502
 6863WAT    HW220589   4.114   3.928   6.568
 6864WAT     OW20590   6.359   5.989   5.647
 6864WAT    HW120591   6.290   5.973   5.576
 6864WAT    HW220592   6.441   6.028   5.605
 6865WAT     OW20593   2.495   4.919   2.733
 6865WAT    HW120594   2.483   4.931   2.634
 6865WAT    HW220595   2.405   4.910   2.776
 6866WAT     OW20596   0.623   0.646   2.207
 6866WAT    HW120597   0.546   0.638   2.271
 6866WAT    HW220598   0.594   0.613   2.117
 6867WAT     OW20599   4.719   5.616   2.965
 6867WAT    HW120600   4.691   5.618   2.869
 6867WAT    HW220601   4.814   5.587   2.971
 6868WAT     OW20602   2.640   1.472   3.355
 6868WAT    HW120603   2.601   1.526   3.280
 6868WAT    HW220604   2.723   1.518   3.389
 6869WAT     OW20605   2.260   1.198   2.324
 6869WAT    HW120606   2.186   1.148   2.369
 6869WAT    HW220607   2.344   1.188   2.376
 6870WAT     OW20608   4.825   3.831   1.861
 6870WAT    HW120609   4.819   3.905   1.928
 6870WAT    HW220610   4.807   3.743   1.907
 6871WAT     OW20611   1.996   5.798   4.482
 6871WAT    HW120612   2.047   5.726   4.434
 6871WAT    HW220613   2.060   5.869   4.511
 6872WAT     OW20614   3.007   2.794   3.493
 6872WAT    HW120615   3.066   2.857   3.444
 6872WAT    HW220616   3.021   2.804   3.592
 6873WAT     OW20617   4.184   3.089   5.977
 6873WAT    HW120618   4.200   3.179   6.016
 6873WAT    HW220619   4.163   3.097   5.880
 6874WAT     OW20620   3.055   4.541   5.166
 6874WAT    HW120621   3.054   4.591   5.252
 6874WAT    HW220622   3.075   4.445   5.183
 6875WAT     OW20623   3.311   5.336   4.668
 6875WAT    HW120624   3.262   5.268   4.614
 6875WAT    HW220625   3.246   5.387   4.725
 6876WAT     OW20626   6.325   1.740   2.201
 6876WAT    HW120627   6.362   1.819   2.250
 6876WAT    HW220628   6.230   1.759   2.175
 6877WAT     OW20629   4.963   4.154   1.311
 6877WAT    HW120630   4.995   4.195   1.225
 6877WAT    HW220631   4.975   4.219   1.386
 6878WAT     OW20632   0.758   1.916   2.881
 6878WAT    HW120633   0.687   1.873   2.826
 6878WAT    HW220634   0.736   1.906   2.978
 6879WAT     OW20635   1.726   6.035   3.941
 6879WAT    HW120636   1.701   6.110   3.880
 6879WAT    HW220637   1.695   6.057   4.034
 6880WAT     OW20638   5.674   6.170   1.815
 6880WAT    HW120639   5.654   6.125   1.902
 6880WAT    HW220640   5.684   6.102   1.744
 6881WAT     OW20641   5.265   3.948   6.441
 6881WAT    HW120642   5.269   3.855   6.403
 6881WAT    HW220643   5.170   3.979   6.444
 6882WAT     OW20644   4.169   5.585   5.518
 6882WAT    HW120645   4.155   5.684   5.518
 6882WAT    HW220646   4.162   5.551   5.424
 6883WAT     OW20647   4.115   1.403   4.146
 6883WAT    HW120648   4.032   1.398   4.090
 6883WAT    HW220649   4.117   1.491   4.194
 6884WAT     OW20650   3.161   4.804   2.436
 6884WAT    HW120651   3.152   4.904   2.435
 6884WAT    HW220652   3.257   4.779   2.445
 6885WAT     OW20653   0.823   4.380   5.804
 6885WAT    HW120654   0.812   4.448   5.732
 6885WAT    HW220655   0.839   4.290   5.763
 6886WAT     OW20656   5.118   0.665   0.738
 6886WAT    HW120657   5.102   0.761   0.762
 6886WAT    HW220658   5.208   0.655   0.695
 6887WAT     OW20659   0.049   2.037   6.597
 6887WAT    HW120660   0.029   2.024   6.695
 6887WAT    HW220661   0.132   2.090   6.587
 6888WAT     OW20662   0.968   0.173   3.860
 6888WAT    HW120663   1.051   0.167   3.915
 6888WAT    HW220664   0.986   0.229   3.779
 6889WAT     OW20665   6.112   4.420   4.799
 6889WAT    HW120666   6.162   4.502   4.772
 6889WAT    HW220667   6.148   4.386   4.886
 6890WAT     OW20668   6.146   0.395   5.208
 6890WAT    HW120669   6.181   0.322   5.148
 6890WAT    HW220670   6.170   0.375   5.303
 6891WAT     OW20671   4.900   1.933   6.201
 6891WAT    HW120672   4.893   1.984   6.116
 6891WAT    HW220673   4.827   1.865   6.206
 6892WAT     OW20674   2.103   1.147   0.198
 6892WAT    HW120675   2.033   1.130   0.268
 6892WAT    HW220676   2.095   1.078   0.126
 6893WAT     OW20677   3.339   4.189   1.546
 6893WAT    HW120678   3.385   4.101   1.538
 6893WAT    HW220679   3.240   4.174   1.558
 6894WAT     OW20680   4.355   5.212   2.615
 6894WAT    HW120681   4.366   5.142   2.686
 6894WAT    HW220682   4.381   5.301   2.653
 6895WAT     OW20683   0.259   5.454   3.214
 6895WAT    HW120684   0.176   5.424   3.167
 6895WAT    HW220685   0.339   5.434   3.159
 6896WAT     OW20686   0.090   6.044   3.922
 6896WAT    HW120687   0.003   6.036   3.972
 6896WAT    HW220688   0.115   6.141   3.915
 6897WAT     OW20689   1.456   1.315   4.932
 6897WAT    HW120690   1.372   1.325   4.880
 6897WAT    HW220691   1.435   1.310   5.030
 6898WAT     OW20692   6.632   4.072   0.795
 6898WAT    HW120693   6.568   4.008   0.837
 6898WAT    HW220694   6.602   4.166   0.814
 6899WAT     OW20695   6.456   4.864   2.874
 6899WAT    HW120696   6.494   4.948   2.834
 6899WAT    HW220697   6.412   4.886   2.961
 6900WAT     OW20698   0.371   1.547   3.213
 6900WAT    HW120699   0.442   1.607   3.175
 6900WAT    HW220700   0.374   1.459   3.165
 6901WAT     OW20701   1.433   6.215   6.252
 6901WAT    HW120702   1.504   6.284   6.265
 6901WAT    HW220703   1.421   6.198   6.154
 6902WAT     OW20704   0.242   1.065   1.003
 6902WAT    HW120705   0.312   1.135   1.010
 6902WAT    HW220706   0.184   1.066   1.084
 6903WAT     OW20707   6.073   4.920   3.162
 6903WAT    HW120708   6.095   5.014   3.136
 6903WAT    HW220709   5.976   4.903   3.143
 6904WAT     OW20710   2.723   1.069   0.869
 6904WAT    HW120711   2.668   1.109   0.796
 6904WAT    HW220712   2.788   1.137   0.902
 6905WAT     OW20713   5.743   3.968   6.564
 6905WAT    HW120714   5.754   3.873   6.534
 6905WAT    HW220715   5.647   3.994   6.555
 6906WAT     OW20716   4.513   5.137   5.066
 6906WAT    HW120717   4.602   5.180   5.077
 6906WAT    HW220718   4.524   5.038   5.058
 6907WAT     OW20719   2.102   2.947   5.558
 6907WAT    HW120720   2.004   2.944   5.536
 6907WAT    HW220721   2.153   2.896   5.489
 6908WAT     OW20722   0.775   3.151   2.427
 6908WAT    HW120723   0.825   3.237   2.435
 6908WAT    HW220724   0.803   3.090   2.502
 6909WAT     OW20725   5.961   0.257   1.441
 6909WAT    HW120726   6.026   0.181   1.446
 6909WAT    HW220727   5.921   0.259   1.349
 6910WAT     OW20728   4.417   0.793   6.685
 6910WAT    HW120729   4.430   0.729   6.610
 6910WAT    HW220730   4.320   0.811   6.699
 6911WAT     OW20731   6.018   3.707   0.101
 6911WAT    HW120732   5.941   3.766   0.124
 6911WAT    HW220733   6.050   3.728   0.009
 6912WAT     OW20734   2.048   3.348   6.115
 6912WAT    HW120735   2.069   3.388   6.204
 6912WAT    HW220736   2.133   3.338   6.062
 6913WAT     OW20737   5.524   5.543   1.943
 6913WAT    HW120738   5.547   5.609   2.014
 6913WAT    HW220739   5.466   5.471   1.982
 6914WAT     OW20740   5.871   0.951   0.449
 6914WAT    HW120741   5.966   0.950   0.416
 6914WAT    HW220742   5.869   0.979   0.545
 6915WAT     OW20743   1.096   5.800   5.820
 6915WAT    HW120744   1.184   5.806   5.866
 6915WAT    HW220745   1.094   5.721   5.759
 6916WAT     OW20746   1.109   0.908   0.846
 6916WAT    HW120747   1.127   0.839   0.917
 6916WAT    HW220748   1.195   0.935   0.803
 6917WAT     OW20749   2.428   4.368   5.226
 6917WAT    HW120750   2.508   4.357   5.286
 6917WAT    HW220751   2.404   4.464   5.220
 6918WAT     OW20752   4.782   2.526   0.672
 6918WAT    HW120753   4.813   2.432   0.658
 6918WAT    HW220754   4.701   2.543   0.617
 6919WAT     OW20755   1.458   1.286   0.530
 6919WAT    HW120756   1.476   1.228   0.609
 6919WAT    HW220757   1.361   1.311   0.529
 6920WAT     OW20758   2.757   0.944   1.228
 6920WAT    HW120759   2.717   0.870   1.175
 6920WAT    HW220760   2.685   1.000   1.268
 6921WAT     OW20761   2.691   0.676   6.527
 6921WAT    HW120762   2.616   0.712   6.582
 6921WAT    HW220763   2.701   0.578   6.544
 6922WAT     OW20764   2.002   1.362   0.502
 6922WAT    HW120765   1.955   1.281   0.468
 6922WAT    HW220766   2.066   1.396   0.432
 6923WAT     OW20767   5.776   3.126   3.612
 6923WAT    HW120768   5.805   3.095   3.521
 6923WAT    HW220769   5.831   3.081   3.682
 6924WAT     OW20770   1.668   1.003   3.118
 6924WAT    HW120771   1.727   1.003   3.199
 6924WAT    HW220772   1.698   0.930   3.056
 6925WAT     OW20773   0.334   5.870   1.937
 6925WAT    HW120774   0.395   5.943   1.969
 6925WAT    HW220775   0.240   5.903   1.938
 6926WAT     OW20776   0.143   4.880   6.378
 6926WAT    HW120777   0.191   4.963   6.403
 6926WAT    HW220778   0.206   4.816   6.334
 6927WAT     OW20779   0.845   6.173   1.428
 6927WAT    HW120780   0.793   6.090   1.406
 6927WAT    HW220781   0.906   6.155   1.505
 6928WAT     OW20782   0.513   2.275   2.644
 6928WAT    HW120783   0.500   2.372   2.623
 6928WAT    HW220784   0.606   2.248   2.620
 6929WAT     OW20785   6.276   1.655   4.683
 6929WAT    HW120786   6.255   1.752   4.693
 6929WAT    HW220787   6.207   1.612   4.625
 6930WAT     OW20788   3.528   2.756   3.470
 6930WAT    HW120789   3.592   2.737   3.395
 6930WAT    HW220790   3.566   2.723   3.556
 6931WAT     OW20791   4.936   0.913   6.481
 6931WAT    HW120792   4.930   1.012   6.477
 6931WAT    HW220793   4.883   0.873   6.406
 6932WAT     OW20794   2.214   4.026   2.462
 6932WAT    HW120795   2.185   4.119   2.437
 6932WAT    HW220796   2.253   4.027   2.554
 6933WAT     OW20797   2.721   3.409   6.207
 6933WAT    HW120798   2.692   3.504   6.212
 6933WAT    HW220799   2.764   3.383   6.294
 6934WAT     OW20800   3.226   0.585   5.537
 6934WAT    HW120801   3.296   0.615   5.472
 6934WAT    HW220802   3.268   0.568   5.626
 6935WAT     OW20803   3.762   2.431   3.997
 6935WAT    HW120804   3.667   2.406   4.011
 6935WAT    HW220805   3.806   2.365   3.936
 6936WAT     OW20806   5.463   3.804   2.439
 6936WAT    HW120807   5.461   3.800   2.339
 6936WAT    HW220808   5.385   3.857   2.472
 6937WAT     OW20809   5.299   6.363   3.050
 6937WAT    HW120810   5.210   6.340   3.088
 6937WAT    HW220811   5.288   6.423   2.971
 6938WAT     OW20812   2.461   2.996   2.935
 6938WAT    HW120813   2.459   2.897   2.920
 6938WAT    HW220814   2.414   3.042   2.859
 6939WAT     OW20815   1.086   0.710   4.467
 6939WAT    HW120816   1.095   0.683   4.372
 6939WAT    HW220817   1.046   0.635   4.520
 6940WAT     OW20818   5.146   4.175   3.217
 6940WAT    HW120819   5.219   4.176   3.285
 6940WAT    HW220820   5.081   4.248   3.237
 6941WAT     OW20821   6.589   4.121   4.556
 6941WAT    HW120822   6.539   4.054   4.611
 6941WAT    HW220823   6.682   4.130   4.592
 6942WAT     OW20824   5.626   5.776   2.998
 6942WAT    HW120825   5.647   5.828   3.080
 6942WAT    HW220826   5.670   5.818   2.919
 6943WAT     OW20827   6.218   2.164   4.801
 6943WAT    HW120828   6.142   2.178   4.864
 6943WAT    HW220829   6.200   2.213   4.716
 6944WAT     OW20830   3.719   2.312   0.616
 6944WAT    HW120831   3.668   2.348   0.538
 6944WAT    HW220832   3.772   2.386   0.658
 6945WAT     OW20833   6.146   5.307   4.980
 6945WAT    HW120834   6.074   5.343   4.921
 6945WAT    HW220835   6.190   5.229   4.936
 6946WAT     OW20836   1.169   6.191   5.841
 6946WAT    HW120837   1.088   6.133   5.844
 6946WAT    HW220838   1.206   6.191   5.748
 6947WAT     OW20839   5.019   0.537   5.670
 6947WAT    HW120840   5.096   0.578   5.717
 6947WAT    HW220841   5.047   0.506   5.579
 6948WAT     OW20842   0.216   0.589   2.169
 6948WAT    HW120843   0.247   0.520   2.104
 6948WAT    HW220844   0.120   0.573   2.191
 6949WAT     OW20845   1.187   3.050   5.265
 6949WAT    HW120846   1.219   3.126   5.321
 6949WAT    HW220847   1.087   3.054   5.257
 6950WAT     OW20848   3.911   5.327   5.265
 6950WAT    HW120849   3.943   5.364   5.178
 6950WAT    HW220850   3.989   5.296   5.319
 6951WAT     OW20851   5.527   2.131   0.823
 6951WAT    HW120852   5.569   2.221   0.819
 6951WAT    HW220853   5.585   2.069   0.877
 6952WAT     OW20854   3.580   6.340   4.849
 6952WAT    HW120855   3.633   6.408   4.898
 6952WAT    HW220856   3.574   6.364   4.752
 6953WAT     OW20857   1.551   4.989   3.025
 6953WAT    HW120858   1.498   4.903   3.024
 6953WAT    HW220859   1.488   5.066   3.034
 6954WAT     OW20860   5.763   0.109   0.429
 6954WAT    HW120861   5.821   0.061   0.363
 6954WAT    HW220862   5.689   0.047   0.459
 6955WAT     OW20863   1.115   6.064   5.077
 6955WAT    HW120864   1.139   6.009   4.998
 6955WAT    HW220865   1.083   6.005   5.151
 6956WAT     OW20866   2.644   5.984   0.964
 6956WAT    HW120867   2.589   6.059   1.002
 6956WAT    HW220868   2.733   6.020   0.934
 6957WAT     OW20869   3.531   5.724   1.108
 6957WAT    HW120870   3.471   5.709   1.030
 6957WAT    HW220871   3.594   5.646   1.118
 6958WAT     OW20872   0.116   6.498   5.975
 6958WAT    HW120873   0.090   6.453   5.889
 6958WAT    HW220874   0.062   6.460   6.050
 6959WAT     OW20875   1.182   0.165   1.419
 6959WAT    HW120876   1.267   0.137   1.463
 6959WAT    HW220877   1.191   0.259   1.385
 6960WAT     OW20878   5.290   1.080   3.074
 6960WAT    HW120879   5.334   1.071   2.985
 6960WAT    HW220880   5.197   1.112   3.062
 6961WAT     OW20881   1.471   3.654   2.687
 6961WAT    HW120882   1.516   3.726   2.739
 6961WAT    HW220883   1.504   3.655   2.593
 6962WAT     OW20884   2.939   2.809   0.106
 6962WAT    HW120885   3.030   2.782   0.073
 6962WAT    HW220886   2.871   2.744   0.072
 6963WAT     OW20887   5.904   3.570   4.670
 6963WAT    HW120888   5.824   3.601   4.619
 6963WAT    HW220889   5.895   3.472   4.689
 6964WAT     OW20890   1.553   5.749   6.599
 6964WAT    HW120891   1.468   5.791   6.568
 6964WAT    HW220892   1.569   5.665   6.547
 6965WAT     OW20893   1.837   0.323   3.929
 6965WAT    HW120894   1.757   0.356   3.880
 6965WAT    HW220895   1.837   0.360   4.022
 6966WAT     OW20896   0.578   3.288   1.244
 6966WAT    HW120897   0.624   3.251   1.325
 6966WAT    HW220898   0.642   3.289   1.167
 6967WAT     OW20899   3.163   5.515   0.576
 6967WAT    HW120900   3.072   5.473   0.579
 6967WAT    HW220901   3.231   5.449   0.605
 6968WAT     OW20902   3.207   5.433   1.807
 6968WAT    HW120903   3.305   5.419   1.797
 6968WAT    HW220904   3.181   5.519   1.763
 6969WAT     OW20905   0.155   0.462   3.464
 6969WAT    HW120906   0.099   0.459   3.546
 6969WAT    HW220907   0.121   0.534   3.403
 6970WAT     OW20908   0.118   4.207   1.130
 6970WAT    HW120909   0.055   4.253   1.192
 6970WAT    HW220910   0.146   4.270   1.058
 6971WAT     OW20911   2.675   1.537   5.050
 6971WAT    HW120912   2.733   1.477   4.995
 6971WAT    HW220913   2.589   1.490   5.070
 6972WAT     OW20914   0.037   3.304   0.756
 6972WAT    HW120915  -0.059   3.312   0.729
 6972WAT    HW220916   0.077   3.396   0.759
 6973WAT     OW20917   1.028   0.378   6.272
 6973WAT    HW120918   0.931   0.360   6.286
 6973WAT    HW220919   1.052   0.357   6.177
 6974WAT     OW20920   3.623   4.838   3.374
 6974WAT    HW120921   3.593   4.745   3.395
 6974WAT    HW220922   3.645   4.886   3.458
 6975WAT     OW20923   2.523   3.816   4.761
 6975WAT    HW120924   2.489   3.806   4.668
 6975WAT    HW220925   2.553   3.727   4.796
 6976WAT     OW20926   5.880   1.941   1.150
 6976WAT    HW120927   5.888   1.848   1.187
 6976WAT    HW220928   5.887   2.007   1.224
 6977WAT     OW20929   2.663   6.622   6.541
 6977WAT    HW120930   2.637   6.556   6.471
 6977WAT    HW220931   2.581   6.651   6.591
 6978WAT     OW20932   5.848   5.114   3.854
 6978WAT    HW120933   5.939   5.105   3.813
 6978WAT    HW220934   5.822   5.028   3.897
 6979WAT     OW20935   2.521   4.580   4.736
 6979WAT    HW120936   2.528   4.519   4.657
 6979WAT    HW220937   2.515   4.525   4.820
 6980WAT     OW20938   0.593   2.724   1.904
 6980WAT    HW120939   0.657   2.740   1.829
 6980WAT    HW220940   0.588   2.626   1.923
 6981WAT     OW20941   3.300   3.959   1.260
 6981WAT    HW120942   3.240   4.039   1.261
 6981WAT    HW220943   3.349   3.953   1.347
 6982WAT     OW20944   3.077   2.235   1.908
 6982WAT    HW120945   3.172   2.204   1.908
 6982WAT    HW220946   3.070   2.322   1.859
 6983WAT     OW20947   3.778   2.870   5.411
 6983WAT    HW120948   3.768   2.956   5.360
 6983WAT    HW220949   3.874   2.853   5.430
 6984WAT     OW20950   0.287   0.860   6.632
 6984WAT    HW120951   0.196   0.899   6.647
 6984WAT    HW220952   0.278   0.774   6.584
 6985WAT     OW20953   4.410   0.748   2.849
 6985WAT    HW120954   4.348   0.799   2.790
 6985WAT    HW220955   4.474   0.811   2.893
 6986WAT     OW20956   4.033   1.414   1.990
 6986WAT    HW120957   4.046   1.316   2.000
 6986WAT    HW220958   4.012   1.454   2.079
 6987WAT     OW20959   6.520   0.961   2.883
 6987WAT    HW120960   6.516   0.912   2.796
 6987WAT    HW220961   6.610   0.947   2.924
 6988WAT     OW20962   2.197   1.432   0.889
 6988WAT    HW120963   2.164   1.433   0.983
 6988WAT    HW220964   2.176   1.519   0.845
 6989WAT     OW20965   3.066   5.855   4.550
 6989WAT    HW120966   3.027   5.763   4.555
 6989WAT    HW220967   3.024   5.913   4.619
 6990WAT     OW20968   2.900   5.868   0.670
 6990WAT    HW120969   2.900   5.930   0.749
 6990WAT    HW220970   2.842   5.906   0.598
 6991WAT     OW20971   2.686   0.735   6.260
 6991WAT    HW120972   2.689   0.835   6.271
 6991WAT    HW220973   2.694   0.691   6.349
 6992WAT     OW20974   0.945   1.251   3.416
 6992WAT    HW120975   1.000   1.207   3.345
 6992WAT    HW220976   0.902   1.181   3.474
 6993WAT     OW20977   6.129   3.951   5.729
 6993WAT    HW120978   6.132   3.870   5.788
 6993WAT    HW220979   6.064   3.937   5.655
 6994WAT     OW20980   5.158   0.451   5.438
 6994WAT    HW120981   5.165   0.449   5.338
 6994WAT    HW220982   5.198   0.368   5.476
 6995WAT     OW20983   6.361   6.311   5.088
 6995WAT    HW120984   6.411   6.378   5.143
 6995WAT    HW220985   6.279   6.354   5.050
 6996WAT     OW20986   0.016   5.994   3.261
 6996WAT    HW120987   0.086   6.017   3.328
 6996WAT    HW220988   0.058   5.954   3.180
 6997WAT     OW20989   2.489   0.418   1.377
 6997WAT    HW120990   2.404   0.471   1.385
 6997WAT    HW220991   2.565   0.480   1.360
 6998WAT     OW20992   6.466   4.209   3.316
 6998WAT    HW120993   6.374   4.239   3.341
 6998WAT    HW220994   6.461   4.118   3.274
 6999WAT     OW20995   3.082   0.187   3.590
 6999WAT    HW120996   3.011   0.152   3.651
 6999WAT    HW220997   3.080   0.135   3.504
 7000WAT     OW20998   2.450   1.382   2.643
 7000WAT    HW120999   2.435   1.385   2.742
 7000WAT    HW221000   2.377   1.432   2.597
 7001WAT     OW21001   0.573   2.060   4.941
 7001WAT    HW121002   0.584   1.970   4.983
 7001WAT    HW221003   0.647   2.076   4.876
 7002WAT     OW21004   4.677   2.545   4.504
 7002WAT    HW121005   4.583   2.572   4.485
 7002WAT    HW221006   4.715   2.500   4.423
 7003WAT     OW21007   2.863   3.644   2.081
 7003WAT    HW121008   2.873   3.544   2.080
 7003WAT    HW221009   2.869   3.679   1.988
 7004WAT     OW21010   5.190   2.366   0.394
 7004WAT    HW121011   5.131   2.447   0.395
 7004WAT    HW221012   5.249   2.367   0.474
 7005WAT     OW21013   3.881   3.353   5.354
 7005WAT    HW121014   3.892   3.407   5.271
 7005WAT    HW221015   3.950   3.380   5.421
 7006WAT     OW21016   1.398   4.878   2.755
 7006WAT    HW121017   1.381   4.846   2.849
 7006WAT    HW221018   1.491   4.854   2.728
 7007WAT     OW21019   4.625   0.650   1.516
 7007WAT    HW121020   4.595   0.554   1.521
 7007WAT    HW221021   4.635   0.676   1.420
 7008WAT     OW21022   3.936   3.792   5.225
 7008WAT    HW121023   3.972   3.742   5.304
 7008WAT    HW221024   3.918   3.887   5.250
 7009WAT     OW21025   0.685   4.522   0.400
 7009WAT    HW121026   0.765   4.521   0.340
 7009WAT    HW221027   0.602   4.524   0.344
 7010WAT     OW21028   5.717   6.357   4.721
 7010WAT    HW121029   5.719   6.338   4.623
 7010WAT    HW221030   5.689   6.274   4.770
 7011WAT     OW21031   0.751   0.335   6.272
 7011WAT    HW121032   0.754   0.411   6.206
 7011WAT    HW221033   0.691   0.360   6.348
 7012WAT     OW21034   5.943   3.239   2.638
 7012WAT    HW121035   6.029   3.208   2.678
 7012WAT    HW221036   5.929   3.194   2.550
 7013WAT     OW21037   6.371   1.059   4.127
 7013WAT    HW121038   6.284   1.109   4.129
 7013WAT    HW221039   6.435   1.102   4.191
 7014WAT     OW21040   0.402   1.291   0.571
 7014WAT    HW121041   0.371   1.260   0.481
 7014WAT    HW221042   0.419   1.212   0.630
 7015WAT     OW21043   1.378   5.657   5.596
 7015WAT    HW121044   1.429   5.657   5.510
 7015WAT    HW221045   1.367   5.752   5.627
 7016WAT     OW21046   4.830   5.441   0.464
 7016WAT    HW121047   4.918   5.410   0.428
 7016WAT    HW221048   4.803   5.382   0.541
 7017WAT     OW21049   2.770   0.190   0.234
 7017WAT    HW121050   2.742   0.284   0.215
 7017WAT    HW221051   2.692   0.129   0.218
 7018WAT     OW21052   5.239   4.188   6.156
 7018WAT    HW121053   5.271   4.215   6.246
 7018WAT    HW221054   5.139   4.176   6.157
 7019WAT     OW21055   3.496   5.808   1.997
 7019WAT    HW121056   3.400   5.791   2.021
 7019WAT    HW221057   3.554   5.739   2.041
 7020WAT     OW21058   1.362   5.989   4.151
 7020WAT    HW121059   1.346   5.908   4.095
 7020WAT    HW221060   1.301   5.987   4.230
 7021WAT     OW21061   5.139   0.949   0.772
 7021WAT    HW121062   5.066   1.018   0.779
 7021WAT    HW221063   5.170   0.944   0.678
 7022WAT     OW21064   3.995   5.022   1.418
 7022WAT    HW121065   3.916   5.056   1.367
 7022WAT    HW221066   4.024   5.091   1.484
 7023WAT     OW21067   3.148   5.339   4.374
 7023WAT    HW121068   3.049   5.341   4.358
 7023WAT    HW221069   3.172   5.254   4.422
 7024WAT     OW21070   6.096   1.238   5.483
 7024WAT    HW121071   6.118   1.309   5.415
 7024WAT    HW221072   6.043   1.166   5.439
 7025WAT     OW21073   3.473   3.805   0.633
 7025WAT    HW121074   3.482   3.790   0.732
 7025WAT    HW221075   3.526   3.736   0.584
 7026WAT     OW21076   2.310   6.495   6.119
 7026WAT    HW121077   2.323   6.583   6.166
 7026WAT    HW221078   2.395   6.467   6.076
 7027WAT     OW21079   5.434   3.980   4.000
 7027WAT    HW121080   5.446   3.905   3.936
 7027WAT    HW221081   5.336   3.991   4.021
 7028WAT     OW21082   6.202   0.189   2.603
 7028WAT    HW121083   6.184   0.205   2.700
 7028WAT    HW221084   6.124   0.220   2.548
 7029WAT     OW21085   6.270   5.737   1.321
 7029WAT    HW121086   6.183   5.744   1.368
 7029WAT    HW221087   6.300   5.642   1.319
 7030WAT     OW21088   0.262   3.358   3.885
 7030WAT    HW121089   0.214   3.430   3.935
 7030WAT    HW221090   0.291   3.393   3.796
 7031WAT     OW21091   6.066   4.235   4.098
 7031WAT    HW121092   6.067   4.156   4.159
 7031WAT    HW221093   6.135   4.224   4.026
 7032WAT     OW21094   2.670   0.347   0.900
 7032WAT    HW121095   2.705   0.356   0.993
 7032WAT    HW221096   2.716   0.271   0.854
 7033WAT     OW21097   5.394   3.947   1.062
 7033WAT    HW121098   5.343   3.900   1.133
 7033WAT    HW221099   5.490   3.954   1.090
 7034WAT     OW21100   0.176   5.017   0.029
 7034WAT    HW121101   0.080   5.043   0.026
 7034WAT    HW221102   0.185   4.922   0.058
 7035WAT     OW21103   1.481   1.646   2.257
 7035WAT    HW121104   1.436   1.735   2.267
 7035WAT    HW221105   1.579   1.656   2.272
 7036WAT     OW21106   2.131   6.504   5.596
 7036WAT    HW121107   2.082   6.508   5.509
 7036WAT    HW221108   2.226   6.532   5.582
 7037WAT     OW21109   1.208   0.963   1.225
 7037WAT    HW121110   1.268   0.925   1.295
 7037WAT    HW221111   1.226   1.061   1.214
 7038WAT     OW21112   6.615   1.547   0.975
 7038WAT    HW121113   6.663   1.594   0.901
 7038WAT    HW221114   6.681   1.519   1.045
 7039WAT     OW21115   5.782   6.102   5.990
 7039WAT    HW121116   5.744   6.110   6.082
 7039WAT    HW221117   5.785   6.006   5.963
 7040WAT     OW21118   2.748   3.285   0.819
 7040WAT    HW121119   2.752   3.376   0.861
 7040WAT    HW221120   2.820   3.277   0.750
 7041WAT     OW21121   0.459   2.351   1.390
 7041WAT    HW121122   0.463   2.447   1.417
 7041WAT    HW221123   0.395   2.302   1.449
 7042WAT     OW21124   2.474   3.078   3.650
 7042WAT    HW121125   2.407   3.152   3.648
 7042WAT    HW221126   2.466   3.023   3.567
 7043WAT     OW21127   2.924   1.335   2.515
 7043WAT    HW121128   2.852   1.391   2.557
 7043WAT    HW221129   3.012   1.382   2.523
 7044WAT     OW21130   4.651   4.131   1.007
 7044WAT    HW121131   4.684   4.071   1.080
 7044WAT    HW221132   4.677   4.092   0.919
 7045WAT     OW21133   6.351   0.479   3.977
 7045WAT    HW121134   6.399   0.518   4.056
 7045WAT    HW221135   6.260   0.448   4.005
 7046WAT     OW21136   3.274   6.058   0.616
 7046WAT    HW121137   3.255   6.152   0.588
 7046WAT    HW221138   3.265   6.050   0.715
 7047WAT     OW21139   2.404   5.398   1.129
 7047WAT    HW121140   2.412   5.304   1.160
 7047WAT    HW221141   2.315   5.413   1.086
 7048WAT     OW21142   5.482   2.421   5.733
 7048WAT    HW121143   5.471   2.377   5.822
 7048WAT    HW221144   5.551   2.372   5.680
 7049WAT     OW21145   0.720   5.862   3.844
 7049WAT    HW121146   0.818   5.852   3.861
 7049WAT    HW221147   0.690   5.792   3.779
 7050WAT     OW21148   3.754   2.372   1.954
 7050WAT    HW121149   3.663   2.384   1.993
 7050WAT    HW221150   3.808   2.311   2.012
 7051WAT     OW21151   1.458   4.895   0.641
 7051WAT    HW121152   1.490   4.871   0.733
 7051WAT    HW221153   1.438   4.993   0.638
 7052WAT     OW21154   2.410   6.494   2.753
 7052WAT    HW121155   2.456   6.508   2.665
 7052WAT    HW221156   2.318   6.459   2.737
 7053WAT     OW21157   5.581   5.826   1.201
 7053WAT    HW121158   5.599   5.800   1.107
 7053WAT    HW221159   5.656   5.795   1.259
 7054WAT     OW21160   4.523   0.990   1.481
 7054WAT    HW121161   4.472   1.073   1.455
 7054WAT    HW221162   4.475   0.910   1.446
 7055WAT     OW21163   3.857   6.016   0.670
 7055WAT    HW121164   3.844   6.004   0.572
 7055WAT    HW221165   3.853   5.927   0.715
 7056WAT     OW21166   1.117   3.191   2.414
 7056WAT    HW121167   1.213   3.168   2.430
 7056WAT    HW221168   1.074   3.219   2.500
 7057WAT     OW21169   2.840   0.888   1.484
 7057WAT    HW121170   2.798   0.960   1.541
 7057WAT    HW221171   2.817   0.903   1.388
 7058WAT     OW21172   4.147   1.783   4.982
 7058WAT    HW121173   4.176   1.874   5.012
 7058WAT    HW221174   4.202   1.713   5.029
 7059WAT     OW21175   5.164   2.245   3.298
 7059WAT    HW121176   5.129   2.164   3.251
 7059WAT    HW221177   5.256   2.266   3.266
 7060WAT     OW21178   1.404   0.325   1.095
 7060WAT    HW121179   1.464   0.400   1.066
 7060WAT    HW221180   1.459   0.248   1.126
 7061WAT     OW21181   3.914   5.245   3.985
 7061WAT    HW121182   3.849   5.316   4.013
 7061WAT    HW221183   3.999   5.289   3.954
 7062WAT     OW21184   2.217   2.060   2.107
 7062WAT    HW121185   2.184   2.152   2.131
 7062WAT    HW221186   2.227   2.053   2.008
 7063WAT     OW21187   5.481   3.466   6.244
 7063WAT    HW121188   5.529   3.380   6.227
 7063WAT    HW221189   5.520   3.537   6.186
 7064WAT     OW21190   5.041   0.263   2.578
 7064WAT    HW121191   4.982   0.230   2.504
 7064WAT    HW221192   5.031   0.205   2.658
 7065WAT     OW21193   5.593   6.599   1.480
 7065WAT    HW121194   5.638   6.633   1.563
 7065WAT    HW221195   5.646   6.628   1.400
 7066WAT     OW21196   6.656   5.401   1.920
 7066WAT    HW121197   6.712   5.451   1.986
 7066WAT    HW221198   6.703   5.318   1.891
 7067WAT     OW21199   2.830   3.791   3.306
 7067WAT    HW121200   2.771   3.758   3.232
 7067WAT    HW221201   2.912   3.834   3.266
 7068WAT     OW21202   5.074   0.167   1.158
 7068WAT    HW121203   5.140   0.094   1.176
 7068WAT    HW221204   5.099   0.248   1.211
 7069WAT     OW21205   1.058   2.650   3.591
 7069WAT    HW121206   0.971   2.622   3.631
 7069WAT    HW221207   1.132   2.629   3.655
 7070WAT     OW21208   3.294   5.608   5.093
 7070WAT    HW121209   3.347   5.551   5.156
 7070WAT    HW221210   3.355   5.668   5.042
 7071WAT     OW21211   1.082   4.089   5.288
 7071WAT    HW121212   1.114   3.997   5.265
 7071WAT    HW221213   1.086   4.147   5.206
 7072WAT     OW21214   3.940   0.831   3.480
 7072WAT    HW121215   3.992   0.762   3.532
 7072WAT    HW221216   3.885   0.786   3.410
 7073WAT     OW21217   5.341   6.646   2.470
 7073WAT    HW121218   5.320   6.571   2.533
 7073WAT    HW221219   5.305   6.624   2.379
 7074WAT     OW21220   4.211   4.996   6.233
 7074WAT    HW121221   4.129   5.053   6.225
 7074WAT    HW221222   4.291   5.054   6.247
 7075WAT     OW21223   3.774   6.443   0.942
 7075WAT    HW121224   3.756   6.358   0.892
 7075WAT    HW221225   3.873   6.455   0.953
 7076WAT     OW21226   4.304   1.571   0.867
 7076WAT    HW121227   4.303   1.598   0.963
 7076WAT    HW221228   4.250   1.488   0.855
 7077WAT     OW21229   0.454   4.647   2.400
 7077WAT    HW121230   0.506   4.615   2.479
 7077WAT    HW221231   0.506   4.716   2.351
 7078WAT     OW21232   4.391   0.526   2.253
 7078WAT    HW121233   4.403   0.604   2.314
 7078WAT    HW221234   4.478   0.477   2.244
 7079WAT     OW21235   4.339   0.802   1.377
 7079WAT    HW121236   4.382   0.818   1.289
 7079WAT    HW221237   4.242   0.824   1.372
 7080WAT     OW21238   6.145   1.957   2.605
 7080WAT    HW121239   6.170   2.020   2.678
 7080WAT    HW221240   6.214   1.885   2.598
 7081WAT     OW21241   6.238   3.952   6.412
 7081WAT    HW121242   6.199   4.044   6.419
 7081WAT    HW221243   6.331   3.953   6.449
 7082WAT     OW21244   3.038   5.115   6.377
 7082WAT    HW121245   2.992   5.132   6.465
 7082WAT    HW221246   3.101   5.038   6.387
 7083WAT     OW21247   4.854   0.924   0.379
 7083WAT    HW121248   4.854   1.015   0.420
 7083WAT    HW221249   4.811   0.928   0.289
 7084WAT     OW21250   0.275   4.034   3.531
 7084WAT    HW121251   0.176   4.048   3.539
 7084WAT    HW221252   0.302   3.955   3.586
 7085WAT     OW21253   4.345   5.265   6.568
 7085WAT    HW121254   4.287   5.346   6.575
 7085WAT    HW221255   4.431   5.289   6.523
 7086WAT     OW21256   4.290   4.813   3.203
 7086WAT    HW121257   4.193   4.839   3.198
 7086WAT    HW221258   4.330   4.849   3.288
 7087WAT     OW21259   0.249   4.235   4.360
 7087WAT    HW121260   0.297   4.187   4.287
 7087WAT    HW221261   0.158   4.263   4.328
 7088WAT     OW21262   5.960   3.380   0.785
 7088WAT    HW121263   5.957   3.419   0.878
 7088WAT    HW221264   5.998   3.288   0.788
 7089WAT     OW21265   3.081   3.977   3.748
 7089WAT    HW121266   3.173   4.011   3.729
 7089WAT    HW221267   3.017   4.054   3.749
 7090WAT     OW21268   5.505   3.450   2.281
 7090WAT    HW121269   5.468   3.365   2.244
 7090WAT    HW221270   5.605   3.451   2.269
 7091WAT     OW21271   5.945   1.300   0.022
 7091WAT    HW121272   5.946   1.217  -0.033
 7091WAT    HW221273   5.965   1.379  -0.036
 7092WAT     OW21274   3.484   1.052   3.624
 7092WAT    HW121275   3.559   0.986   3.621
 7092WAT    HW221276   3.399   1.007   3.597
 7093WAT     OW21277   4.735   4.362   3.660
 7093WAT    HW121278   4.782   4.279   3.690
 7093WAT    HW221279   4.787   4.405   3.586
 7094WAT     OW21280   0.727   1.708   6.413
 7094WAT    HW121281   0.676   1.735   6.494
 7094WAT    HW221282   0.712   1.775   6.340
 7095WAT     OW21283   0.752   5.686   5.856
 7095WAT    HW121284   0.811   5.686   5.937
 7095WAT    HW221285   0.684   5.759   5.864
 7096WAT     OW21286   4.853   2.223   4.470
 7096WAT    HW121287   4.822   2.257   4.559
 7096WAT    HW221288   4.815   2.131   4.455
 7097WAT     OW21289   2.228   0.022   1.945
 7097WAT    HW121290   2.250  -0.074   1.959
 7097WAT    HW221291   2.304   0.079   1.975
 7098WAT     OW21292   4.657   2.975   2.044
 7098WAT    HW121293   4.680   3.045   1.977
 7098WAT    HW221294   4.651   3.017   2.135
 7099WAT     OW21295   6.208   1.283   3.459
 7099WAT    HW121296   6.153   1.243   3.385
 7099WAT    HW221297   6.168   1.259   3.547
 7100WAT     OW21298   2.764   1.825   1.504
 7100WAT    HW121299   2.821   1.762   1.452
 7100WAT    HW221300   2.801   1.836   1.596
 7101WAT     OW21301   2.258   4.644   5.691
 7101WAT    HW121302   2.259   4.677   5.597
 7101WAT    HW221303   2.336   4.583   5.707
 7102WAT     OW21304   0.602   4.549   1.083
 7102WAT    HW121305   0.511   4.513   1.107
 7102WAT    HW221306   0.665   4.531   1.159
 7103WAT     OW21307   2.423   1.676   6.617
 7103WAT    HW121308   2.360   1.736   6.665
 7103WAT    HW221309   2.419   1.696   6.519
 7104WAT     OW21310   0.087   3.053   6.434
 7104WAT    HW121311   0.037   3.091   6.356
 7104WAT    HW221312   0.022   3.028   6.505
 7105WAT     OW21313   0.374   4.764   0.722
 7105WAT    HW121314   0.389   4.770   0.624
 7105WAT    HW221315   0.457   4.731   0.767
 7106WAT     OW21316   2.315   4.270   5.885
 7106WAT    HW121317   2.341   4.182   5.925
 7106WAT    HW221318   2.264   4.324   5.951
 7107WAT     OW21319   2.698   6.138   1.723
 7107WAT    HW121320   2.787   6.106   1.690
 7107WAT    HW221321   2.626   6.082   1.681
 7108WAT     OW21322   4.477   2.815   1.443
 7108WAT    HW121323   4.536   2.809   1.523
 7108WAT    HW221324   4.408   2.886   1.457
 7109WAT     OW21325   6.453   6.134   2.033
 7109WAT    HW121326   6.538   6.184   2.018
 7109WAT    HW221327   6.469   6.061   2.098
 7110WAT     OW21328   3.935   6.198   2.250
 7110WAT    HW121329   3.872   6.193   2.172
 7110WAT    HW221330   3.896   6.147   2.327
 7111WAT     OW21331   5.105   4.627   6.367
 7111WAT    HW121332   5.188   4.592   6.323
 7111WAT    HW221333   5.117   4.629   6.466
 7112WAT     OW21334   1.405   1.387   2.230
 7112WAT    HW121335   1.428   1.484   2.228
 7112WAT    HW221336   1.327   1.370   2.171
 7113WAT     OW21337   0.243   5.882   1.481
 7113WAT    HW121338   0.279   5.840   1.564
 7113WAT    HW221339   0.157   5.838   1.455
 7114WAT     OW21340   0.108   5.279   2.340
 7114WAT    HW121341   0.123   5.377   2.356
 7114WAT    HW221342   0.188   5.240   2.296
 7115WAT     OW21343   4.062   0.526   1.698
 7115WAT    HW121344   3.969   0.509   1.731
 7115WAT    HW221345   4.079   0.471   1.616
 7116WAT     OW21346   2.874   3.669   0.055
 7116WAT    HW121347   2.912   3.724   0.128
 7116WAT    HW221348   2.910   3.576   0.060
 7117WAT     OW21349   5.698   5.543   5.431
 7117WAT    HW121350   5.643   5.523   5.350
 7117WAT    HW221351   5.717   5.457   5.480
 7118WAT     OW21352   5.123   4.193   3.737
 7118WAT    HW121353   5.147   4.220   3.831
 7118WAT    HW221354   5.157   4.262   3.673
 7119WAT     OW21355   4.061   6.467   0.493
 7119WAT    HW121356   4.077   6.546   0.552
 7119WAT    HW221357   3.982   6.416   0.526
 7120WAT     OW21358   5.219   4.248   5.890
 7120WAT    HW121359   5.132   4.207   5.863
 7120WAT    HW221360   5.242   4.220   5.983
 7121WAT     OW21361   2.638   2.396   5.666
 7121WAT    HW121362   2.661   2.487   5.631
 7121WAT    HW221363   2.677   2.327   5.606
 7122WAT     OW21364   6.364   3.460   3.675
 7122WAT    HW121365   6.400   3.425   3.589
 7122WAT    HW221366   6.410   3.415   3.752
 7123WAT     OW21367   1.790   1.748   1.144
 7123WAT    HW121368   1.823   1.710   1.057
 7123WAT    HW221369   1.707   1.801   1.128
 7124WAT     OW21370   4.870   5.707   4.995
 7124WAT    HW121371   4.862   5.794   4.946
 7124WAT    HW221372   4.922   5.721   5.079
 7125WAT     OW21373   5.889   0.128   2.804
 7125WAT    HW121374   5.859   0.082   2.887
 7125WAT    HW221375   5.888   0.064   2.727
 7126WAT     OW21376   3.579   4.761   3.814
 7126WAT    HW121377   3.616   4.852   3.835
 7126WAT    HW221378   3.654   4.694   3.814
 7127WAT     OW21379   1.133   6.455   2.777
 7127WAT    HW121380   1.150   6.371   2.725
 7127WAT    HW221381   1.211   6.517   2.767
 7128WAT     OW21382   5.256   0.218   2.405
 7128WAT    HW121383   5.291   0.129   2.435
 7128WAT    HW221384   5.176   0.241   2.459
 7129WAT     OW21385   1.428   2.200   2.641
 7129WAT    HW121386   1.332   2.211   2.665
 7129WAT    HW221387   1.449   2.258   2.562
 7130WAT     OW21388   3.424   0.643   5.373
 7130WAT    HW121389   3.452   0.739   5.377
 7130WAT    HW221390   3.500   0.588   5.338
 7131WAT     OW21391   5.040   2.608   0.377
 7131WAT    HW121392   5.044   2.666   0.458
 7131WAT    HW221393   5.047   2.664   0.295
 7132WAT     OW21394   1.811   4.416   3.358
 7132WAT    HW121395   1.815   4.411   3.458
 7132WAT    HW221396   1.843   4.506   3.328
 7133WAT     OW21397   0.311   0.038   5.645
 7133WAT    HW121398   0.325   0.099   5.567
 7133WAT    HW221399   0.217   0.005   5.645
 7134WAT     OW21400   0.297   3.606   4.979
 7134WAT    HW121401   0.244   3.613   5.064
 7134WAT    HW221402   0.353   3.689   4.969
 7135WAT     OW21403   5.554   3.902   6.228
 7135WAT    HW121404   5.494   3.904   6.308
 7135WAT    HW221405   5.644   3.938   6.253
 7136WAT     OW21406   5.964   1.011   4.016
 7136WAT    HW121407   5.914   1.075   3.957
 7136WAT    HW221408   6.008   0.941   3.960
 7137WAT     OW21409   1.873   0.632   5.574
 7137WAT    HW121410   1.953   0.622   5.515
 7137WAT    HW221411   1.856   0.545   5.621
 7138WAT     OW21412   5.827   4.564   6.572
 7138WAT    HW121413   5.791   4.496   6.636
 7138WAT    HW221414   5.752   4.603   6.519
 7139WAT     OW21415   5.440   3.551   4.013
 7139WAT    HW121416   5.446   3.625   3.946
 7139WAT    HW221417   5.368   3.570   4.079
 7140WAT     OW21418   2.319   2.315   5.386
 7140WAT    HW121419   2.413   2.321   5.353
 7140WAT    HW221420   2.310   2.371   5.468
 7141WAT     OW21421   6.161   5.285   6.586
 7141WAT    HW121422   6.100   5.262   6.511
 7141WAT    HW221423   6.122   5.250   6.672
 7142WAT     OW21424   4.609   4.870   3.326
 7142WAT    HW121425   4.611   4.772   3.346
 7142WAT    HW221426   4.523   4.908   3.360
 7143WAT     OW21427   5.381   5.032   6.596
 7143WAT    HW121428   5.293   4.995   6.624
 7143WAT    HW221429   5.390   5.026   6.497
 7144WAT     OW21430   1.311   4.013   3.496
 7144WAT    HW121431   1.296   3.926   3.542
 7144WAT    HW221432   1.311   4.087   3.563
 7145WAT     OW21433   3.121   1.150   0.757
 7145WAT    HW121434   3.194   1.173   0.693
 7145WAT    HW221435   3.125   1.210   0.836
 7146WAT     OW21436   0.083   3.215   1.194
 7146WAT    HW121437   0.177   3.193   1.220
 7146WAT    HW221438   0.069   3.314   1.199
 7147WAT     OW21439   5.501   3.881   5.563
 7147WAT    HW121440   5.411   3.841   5.545
 7147WAT    HW221441   5.505   3.912   5.658
 7148WAT     OW21442   3.014   3.517   3.268
 7148WAT    HW121443   3.026   3.426   3.305
 7148WAT    HW221444   2.921   3.549   3.285
 7149WAT     OW21445   2.157   3.144   0.537
 7149WAT    HW121446   2.088   3.112   0.472
 7149WAT    HW221447   2.247   3.143   0.493
 7150WAT     OW21448   3.803   6.233   3.034
 7150WAT    HW121449   3.798   6.171   2.955
 7150WAT    HW221450   3.779   6.326   3.005
 7151WAT     OW21451   0.570   3.513   1.868
 7151WAT    HW121452   0.549   3.580   1.940
 7151WAT    HW221453   0.501   3.441   1.869
 7152WAT     OW21454   3.411   1.650   4.251
 7152WAT    HW121455   3.418   1.560   4.207
 7152WAT    HW221456   3.501   1.693   4.252
 7153WAT     OW21457   6.210   0.174   5.045
 7153WAT    HW121458   6.152   0.140   4.971
 7153WAT    HW221459   6.232   0.099   5.108
 7154WAT     OW21460   5.137   5.538   1.029
 7154WAT    HW121461   5.120   5.542   0.930
 7154WAT    HW221462   5.174   5.448   1.053
 7155WAT     OW21463   6.087   1.215   0.693
 7155WAT    HW121464   6.136   1.217   0.605
 7155WAT    HW221465   5.998   1.259   0.683
 7156WAT     OW21466   1.866   5.033   3.286
 7156WAT    HW121467   1.777   5.010   3.326
 7156WAT    HW221468   1.875   5.132   3.280
 7157WAT     OW21469   2.783   2.498   4.936
 7157WAT    HW121470   2.829   2.504   5.024
 7157WAT    HW221471   2.707   2.564   4.933
 7158WAT     OW21472   6.217   3.530   4.333
 7158WAT    HW121473   6.214   3.528   4.233
 7158WAT    HW221474   6.148   3.595   4.367
 7159WAT     OW21475   1.046   0.876   6.226
 7159WAT    HW121476   1.033   0.971   6.255
 7159WAT    HW221477   0.963   0.823   6.247
 7160WAT     OW21478   5.877   0.141   5.224
 7160WAT    HW121479   5.878   0.232   5.182
 7160WAT    HW221480   5.807   0.085   5.180
 7161WAT     OW21481   4.228   6.533   1.068
 7161WAT    HW121482   4.314   6.533   1.119
 7161WAT    HW221483   4.236   6.474   0.988
 7162WAT     OW21484   1.931   3.878   1.876
 7162WAT    HW121485   1.895   3.878   1.969
 7162WAT    HW221486   1.924   3.969   1.837
 7163WAT     OW21487   5.795   2.520   4.732
 7163WAT    HW121488   5.778   2.538   4.635
 7163WAT    HW221489   5.711   2.538   4.784
 7164WAT     OW21490   5.147   3.119   4.452
 7164WAT    HW121491   5.099   3.207   4.450
 7164WAT    HW221492   5.246   3.136   4.456
 7165WAT     OW21493   0.858   5.204   3.024
 7165WAT    HW121494   0.876   5.293   2.982
 7165WAT    HW221495   0.834   5.217   3.120
 7166WAT     OW21496   5.201   0.801   6.141
 7166WAT    HW121497   5.162   0.886   6.107
 7166WAT    HW221498   5.128   0.742   6.174
 7167WAT     OW21499   1.605   3.707   3.208
 7167WAT    HW121500   1.657   3.707   3.294
 7167WAT    HW221501   1.623   3.792   3.158
 7168WAT     OW21502   1.045   4.988   0.401
 7168WAT    HW121503   0.996   5.057   0.454
 7168WAT    HW221504   1.102   4.933   0.462
 7169WAT     OW21505   2.386   5.613   6.233
 7169WAT    HW121506   2.400   5.586   6.328
 7169WAT    HW221507   2.452   5.684   6.208
 7170WAT     OW21508   1.820   1.875   5.820
 7170WAT    HW121509   1.796   1.972   5.821
 7170WAT    HW221510   1.757   1.824   5.878
 7171WAT     OW21511   3.495   1.406   6.441
 7171WAT    HW121512   3.429   1.333   6.455
 7171WAT    HW221513   3.448   1.491   6.417
 7172WAT     OW21514   5.719   5.628   2.370
 7172WAT    HW121515   5.761   5.717   2.386
 7172WAT    HW221516   5.702   5.583   2.458
 7173WAT     OW21517   6.499   1.582   6.216
 7173WAT    HW121518   6.409   1.544   6.195
 7173WAT    HW221519   6.489   1.657   6.282
 7174WAT     OW21520   4.329   3.010   1.187
 7174WAT    HW121521   4.305   3.003   1.284
 7174WAT    HW221522   4.323   3.105   1.158
 7175WAT     OW21523   5.055   0.207   0.888
 7175WAT    HW121524   5.065   0.306   0.891
 7175WAT    HW221525   5.048   0.171   0.981
 7176WAT     OW21526   6.444   6.079   3.561
 7176WAT    HW121527   6.467   6.117   3.471
 7176WAT    HW221528   6.347   6.054   3.563
 7177WAT     OW21529   5.721   1.820   2.476
 7177WAT    HW121530   5.718   1.848   2.380
 7177WAT    HW221531   5.632   1.784   2.503
 7178WAT     OW21532   5.772   0.377   5.784
 7178WAT    HW121533   5.788   0.288   5.825
 7178WAT    HW221534   5.680   0.409   5.807
 7179WAT     OW21535   6.392   4.786   2.364
 7179WAT    HW121536   6.316   4.833   2.318
 7179WAT    HW221537   6.429   4.716   2.303
 7180WAT     OW21538   6.615   1.681   6.566
 7180WAT    HW121539   6.610   1.720   6.658
 7180WAT    HW221540   6.544   1.723   6.509
 7181WAT     OW21541   4.621   4.535   2.726
 7181WAT    HW121542   4.565   4.494   2.655
 7181WAT    HW221543   4.576   4.525   2.815
 7182WAT     OW21544   2.934   6.307   6.516
 7182WAT    HW121545   3.029   6.279   6.504
 7182WAT    HW221546   2.931   6.396   6.561
 7183WAT     OW21547   0.079   3.937   6.595
 7183WAT    HW121548   0.132   3.908   6.674
 7183WAT    HW221549   0.090   4.035   6.580
 7184WAT     OW21550   3.324   2.908   3.838
 7184WAT    HW121551   3.295   2.953   3.922
 7184WAT    HW221552   3.387   2.834   3.860
 7185WAT     OW21553   6.527   0.408   5.164
 7185WAT    HW121554   6.573   0.324   5.195
 7185WAT    HW221555   6.486   0.454   5.242
 7186WAT     OW21556   2.631   1.740   5.479
 7186WAT    HW121557   2.674   1.762   5.391
 7186WAT    HW221558   2.563   1.669   5.467
 7187WAT     OW21559   4.906   1.495   4.041
 7187WAT    HW121560   4.809   1.500   4.015
 7187WAT    HW221561   4.934   1.582   4.082
 7188WAT     OW21562   6.473   2.418   4.718
 7188WAT    HW121563   6.570   2.439   4.705
 7188WAT    HW221564   6.420   2.503   4.714
 7189WAT     OW21565   4.021   2.402   2.494
 7189WAT    HW121566   4.097   2.374   2.553
 7189WAT    HW221567   4.056   2.461   2.421
 7190WAT     OW21568   1.208   4.667   3.702
 7190WAT    HW121569   1.229   4.595   3.636
 7190WAT    HW221570   1.122   4.647   3.747
 7191WAT     OW21571   4.002   5.058   2.682
 7191WAT    HW121572   3.911   5.016   2.675
 7191WAT    HW221573   4.038   5.045   2.774
 7192WAT     OW21574   3.146   5.187   4.981
 7192WAT    HW121575   3.157   5.087   4.977
 7192WAT    HW221576   3.052   5.209   5.005
 7193WAT     OW21577   5.933   3.460   1.048
 7193WAT    HW121578   6.004   3.411   1.099
 7193WAT    HW221579   5.845   3.447   1.093
 7194WAT     OW21580   5.800   2.645   3.274
 7194WAT    HW121581   5.895   2.613   3.279
 7194WAT    HW221582   5.759   2.614   3.188
 7195WAT     OW21583   5.238   1.298   2.837
 7195WAT    HW121584   5.160   1.271   2.893
 7195WAT    HW221585   5.293   1.217   2.815
 7196WAT     OW21586   1.859   5.838   3.626
 7196WAT    HW121587   1.793   5.770   3.658
 7196WAT    HW221588   1.812   5.923   3.606
 7197WAT     OW21589   0.959   5.912   1.138
 7197WAT    HW121590   0.961   5.884   1.234
 7197WAT    HW221591   1.012   5.996   1.125
 7198WAT     OW21592   1.532   2.476   6.031
 7198WAT    HW121593   1.629   2.458   6.049
 7198WAT    HW221594   1.510   2.444   5.938
 7199WAT     OW21595   1.290   5.414   2.945
 7199WAT    HW121596   1.244   5.405   2.857
 7199WAT    HW221597   1.352   5.492   2.942
 7200WAT     OW21598   0.882   5.108   1.699
 7200WAT    HW121599   0.883   5.207   1.681
 7200WAT    HW221600   0.837   5.061   1.623
 7201WAT     OW21601   5.333   1.849   1.639
 7201WAT    HW121602   5.312   1.848   1.737
 7201WAT    HW221603   5.361   1.758   1.610
 7202WAT     OW21604   1.602   3.474   5.681
 7202WAT    HW121605   1.641   3.427   5.601
 7202WAT    HW221606   1.615   3.573   5.670
 7203WAT     OW21607   3.780   4.679   5.552
 7203WAT    HW121608   3.833   4.670   5.467
 7203WAT    HW221609   3.774   4.775   5.578
 7204WAT     OW21610   1.605   0.936   1.041
 7204WAT    HW121611   1.696   0.922   1.001
 7204WAT    HW221612   1.578   1.032   1.031
 7205WAT     OW21613   2.807   2.430   4.235
 7205WAT    HW121614   2.778   2.355   4.175
 7205WAT    HW221615   2.797   2.517   4.185
 7206WAT     OW21616   0.312   2.069   5.802
 7206WAT    HW121617   0.410   2.061   5.783
 7206WAT    HW221618   0.295   2.150   5.857
 7207WAT     OW21619   4.141   4.504   1.028
 7207WAT    HW121620   4.087   4.435   0.981
 7207WAT    HW221621   4.202   4.459   1.093
 7208WAT     OW21622   5.776   4.877   2.138
 7208WAT    HW121623   5.828   4.911   2.217
 7208WAT    HW221624   5.837   4.859   2.062
 7209WAT     OW21625   0.108   0.163   4.173
 7209WAT    HW121626   0.206   0.147   4.155
 7209WAT    HW221627   0.097   0.247   4.226
 7210WAT     OW21628   4.702   1.514   5.040
 7210WAT    HW121629   4.750   1.500   4.953
 7210WAT    HW221630   4.642   1.594   5.032
 7211WAT     OW21631   5.050   2.257   6.030
 7211WAT    HW121632   5.064   2.353   6.006
 7211WAT    HW221633   5.047   2.248   6.130
 7212WAT     OW21634   1.471   1.111   2.729
 7212WAT    HW121635   1.419   1.103   2.645
 7212WAT    HW221636   1.409   1.107   2.808
 7213WAT     OW21637   5.306   2.136   1.093
 7213WAT    HW121638   5.223   2.103   1.138
 7213WAT    HW221639   5.282   2.175   1.004
 7214WAT     OW21640   5.677   3.870   2.599
 7214WAT    HW121641   5.632   3.871   2.688
 7214WAT    HW221642   5.612   3.841   2.528
 7215WAT     OW21643   5.268   5.980   3.122
 7215WAT    HW121644   5.287   5.999   3.025
 7215WAT    HW221645   5.169   5.983   3.137
 7216WAT     OW21646   5.887   2.294   2.546
 7216WAT    HW121647   5.823   2.276   2.471
 7216WAT    HW221648   5.877   2.223   2.616
 7217WAT     OW21649   5.061   4.461   0.156
 7217WAT    HW121650   5.019   4.496   0.240
 7217WAT    HW221651   5.004   4.388   0.118
 7218WAT     OW21652   5.546   0.300   6.081
 7218WAT    HW121653   5.535   0.352   5.996
 7218WAT    HW221654   5.476   0.328   6.146
 7219WAT     OW21655   0.985   5.372   0.039
 7219WAT    HW121656   1.061   5.434   0.018
 7219WAT    HW221657   0.979   5.302  -0.032
 7220WAT     OW21658   0.417   0.989   0.401
 7220WAT    HW121659   0.396   0.932   0.481
 7220WAT    HW221660   0.409   0.934   0.318
 7221WAT     OW21661   0.255   3.191   5.323
 7221WAT    HW121662   0.209   3.112   5.363
 7221WAT    HW221663   0.192   3.238   5.262
 7222WAT     OW21664   0.334   1.710   5.493
 7222WAT    HW121665   0.272   1.786   5.475
 7222WAT    HW221666   0.429   1.741   5.484
 7223WAT     OW21667   1.624   4.834   0.431
 7223WAT    HW121668   1.716   4.822   0.466
 7223WAT    HW221669   1.560   4.846   0.507
 7224WAT     OW21670   5.470   2.418   4.400
 7224WAT    HW121671   5.499   2.380   4.488
 7224WAT    HW221672   5.408   2.354   4.355
 7225WAT     OW21673   6.176   2.343   5.152
 7225WAT    HW121674   6.231   2.260   5.166
 7225WAT    HW221675   6.128   2.366   5.236
 7226WAT     OW21676   4.959   3.837   4.633
 7226WAT    HW121677   4.937   3.883   4.719
 7226WAT    HW221678   5.046   3.871   4.598
 7227WAT     OW21679   4.747   0.025   1.486
 7227WAT    HW121680   4.779   0.037   1.392
 7227WAT    HW221681   4.660   0.075   1.498
 7228WAT     OW21682   2.634   5.896   4.553
 7228WAT    HW121683   2.535   5.882   4.552
 7228WAT    HW221684   2.660   5.944   4.636
 7229WAT     OW21685   5.981   4.529   2.373
 7229WAT    HW121686   5.969   4.560   2.279
 7229WAT    HW221687   6.044   4.451   2.374
 7230WAT     OW21688   6.094   6.250   2.570
 7230WAT    HW121689   6.131   6.205   2.652
 7230WAT    HW221690   6.158   6.320   2.539
 7231WAT     OW21691   5.729   0.753   3.320
 7231WAT    HW121692   5.729   0.830   3.383
 7231WAT    HW221693   5.820   0.745   3.278
 7232WAT     OW21694   1.253   1.913   2.268
 7232WAT    HW121695   1.217   1.820   2.272
 7232WAT    HW221696   1.249   1.955   2.358
 7233WAT     OW21697   0.308   5.561   2.853
 7233WAT    HW121698   0.300   5.464   2.832
 7233WAT    HW221699   0.218   5.604   2.847
 7234WAT     OW21700   2.179   0.037   4.863
 7234WAT    HW121701   2.135   0.104   4.804
 7234WAT    HW221702   2.109  -0.015   4.913
 7235WAT     OW21703   2.914   2.908   6.433
 7235WAT    HW121704   2.882   2.962   6.511
 7235WAT    HW221705   2.840   2.898   6.367
 7236WAT     OW21706   0.941   0.733   2.026
 7236WAT    HW121707   0.910   0.673   2.100
 7236WAT    HW221708   0.862   0.775   1.982
 7237WAT     OW21709   4.717   4.781   0.362
 7237WAT    HW121710   4.687   4.686   0.368
 7237WAT    HW221711   4.676   4.833   0.437
 7238WAT     OW21712   4.593   4.174   2.477
 7238WAT    HW121713   4.542   4.116   2.540
 7238WAT    HW221714   4.691   4.155   2.485
 7239WAT     OW21715   4.257   3.671   0.996
 7239WAT    HW121716   4.356   3.679   0.985
 7239WAT    HW221717   4.223   3.745   1.053
 7240WAT     OW21718   3.865   0.346   5.075
 7240WAT    HW121719   3.954   0.305   5.096
 7240WAT    HW221720   3.842   0.413   5.145
 7241WAT     OW21721   6.577   4.959   1.945
 7241WAT    HW121722   6.611   4.967   2.039
 7241WAT    HW221723   6.652   4.933   1.884
 7242WAT     OW21724   0.817   3.878   5.106
 7242WAT    HW121725   0.874   3.878   5.024
 7242WAT    HW221726   0.763   3.794   5.108
 7243WAT     OW21727   0.221   4.428   2.761
 7243WAT    HW121728   0.146   4.445   2.696
 7243WAT    HW221729   0.287   4.502   2.757
 7244WAT     OW21730   4.141   2.013   5.486
 7244WAT    HW121731   4.187   2.081   5.544
 7244WAT    HW221732   4.060   1.980   5.533
 7245WAT     OW21733   5.343   3.942   4.883
 7245WAT    HW121734   5.316   3.977   4.972
 7245WAT    HW221735   5.333   4.015   4.814
 7246WAT     OW21736   5.434   0.412   4.767
 7246WAT    HW121737   5.371   0.335   4.753
 7246WAT    HW221738   5.401   0.491   4.715
 7247WAT     OW21739   1.803   1.101   1.399
 7247WAT    HW121740   1.738   1.032   1.368
 7247WAT    HW221741   1.895   1.061   1.403
 7248WAT     OW21742   6.009   1.203   4.406
 7248WAT    HW121743   5.993   1.110   4.438
 7248WAT    HW221744   5.937   1.263   4.439
 7249WAT     OW21745   5.276   0.544   2.134
 7249WAT    HW121746   5.227   0.589   2.060
 7249WAT    HW221747   5.250   0.447   2.138
 7250WAT     OW21748   0.297   2.973   3.876
 7250WAT    HW121749   0.344   2.887   3.857
 7250WAT    HW221750   0.212   2.977   3.823
 7251WAT     OW21751   0.493   1.954   1.516
 7251WAT    HW121752   0.509   1.949   1.614
 7251WAT    HW221753   0.395   1.952   1.497
 7252WAT     OW21754   0.379   0.156   4.102
 7252WAT    HW121755   0.426   0.238   4.133
 7252WAT    HW221756   0.415   0.128   4.013
 7253WAT     OW21757   4.303   4.813   4.237
 7253WAT    HW121758   4.223   4.753   4.238
 7253WAT    HW221759   4.304   4.869   4.320
 7254WAT     OW21760   1.331   0.336   4.659
 7254WAT    HW121761   1.359   0.415   4.604
 7254WAT    HW221762   1.239   0.308   4.633
 7255WAT     OW21763   6.556   5.580   4.058
 7255WAT    HW121764   6.587   5.561   3.965
 7255WAT    HW221765   6.457   5.587   4.059
 7256WAT     OW21766   1.730   4.955   6.297
 7256WAT    HW121767   1.736   4.993   6.205
 7256WAT    HW221768   1.681   4.868   6.294
 7257WAT     OW21769   2.504   1.965   5.211
 7257WAT    HW121770   2.446   1.973   5.291
 7257WAT    HW221771   2.558   1.881   5.216
 7258WAT     OW21772   3.372   4.706   5.699
 7258WAT    HW121773   3.277   4.688   5.724
 7258WAT    HW221774   3.378   4.793   5.650
 7259WAT     OW21775   0.093   3.137   3.383
 7259WAT    HW121776   0.018   3.079   3.415
 7259WAT    HW221777   0.085   3.228   3.424
 7260WAT     OW21778   3.594   2.925   2.729
 7260WAT    HW121779   3.528   2.871   2.677
 7260WAT    HW221780   3.685   2.915   2.690
 7261WAT     OW21781   5.888   2.258   5.895
 7261WAT    HW121782   5.870   2.182   5.832
 7261WAT    HW221783   5.932   2.332   5.845
 7262WAT     OW21784   2.718   0.158   4.235
 7262WAT    HW121785   2.721   0.251   4.199
 7262WAT    HW221786   2.648   0.106   4.186
 7263WAT     OW21787   1.108   2.465   0.700
 7263WAT    HW121788   1.097   2.372   0.736
 7263WAT    HW221789   1.201   2.497   0.718
 7264WAT     OW21790   4.538   3.379   3.554
 7264WAT    HW121791   4.442   3.359   3.531
 7264WAT    HW221792   4.597   3.345   3.481
 7265WAT     OW21793   0.418   4.763   0.441
 7265WAT    HW121794   0.479   4.835   0.407
 7265WAT    HW221795   0.436   4.678   0.393
 7266WAT     OW21796   0.840   3.848   2.192
 7266WAT    HW121797   0.879   3.789   2.121
 7266WAT    HW221798   0.867   3.943   2.176
 7267WAT     OW21799   0.532   5.753   4.917
 7267WAT    HW121800   0.550   5.838   4.968
 7267WAT    HW221801   0.435   5.731   4.923
 7268WAT     OW21802   3.708   2.938   3.113
 7268WAT    HW121803   3.643   2.975   3.047
 7268WAT    HW221804   3.719   3.002   3.189
 7269WAT     OW21805   2.935   0.528   4.242
 7269WAT    HW121806   2.980   0.584   4.172
 7269WAT    HW221807   2.921   0.583   4.325
 7270WAT     OW21808   2.894   4.959   3.158
 7270WAT    HW121809   2.912   4.939   3.254
 7270WAT    HW221810   2.953   5.035   3.129
 7271WAT     OW21811   1.533   0.481   3.527
 7271WAT    HW121812   1.565   0.572   3.500
 7271WAT    HW221813   1.568   0.413   3.462
 7272WAT     OW21814   3.842   2.449   2.707
 7272WAT    HW121815   3.778   2.518   2.675
 7272WAT    HW221816   3.909   2.430   2.635
 7273WAT     OW21817   2.262   2.586   4.022
 7273WAT    HW121818   2.163   2.588   4.010
 7273WAT    HW221819   2.300   2.510   3.970
 7274WAT     OW21820   4.298   3.334   2.419
 7274WAT    HW121821   4.342   3.307   2.333
 7274WAT    HW221822   4.368   3.360   2.486
 7275WAT     OW21823   4.267   4.786   4.980
 7275WAT    HW121824   4.206   4.850   5.027
 7275WAT    HW221825   4.362   4.816   4.991
 7276WAT     OW21826   1.329   1.547   6.230
 7276WAT    HW121827   1.414   1.576   6.274
 7276WAT    HW221828   1.329   1.578   6.135
 7277WAT     OW21829   2.908   1.469   6.068
 7277WAT    HW121830   2.980   1.426   6.013
 7277WAT    HW221831   2.945   1.551   6.114
 7278WAT     OW21832   3.558   5.220   6.648
 7278WAT    HW121833   3.511   5.282   6.585
 7278WAT    HW221834   3.656   5.224   6.632
 7279WAT     OW21835   2.453   5.362   2.086
 7279WAT    HW121836   2.546   5.376   2.055
 7279WAT    HW221837   2.452   5.297   2.163
 7280WAT     OW21838   5.686   4.943   6.411
 7280WAT    HW121839   5.597   4.981   6.388
 7280WAT    HW221840   5.720   4.986   6.495
 7281WAT     OW21841   6.683   1.882   6.042
 7281WAT    HW121842   6.717   1.788   6.036
 7281WAT    HW221843   6.591   1.887   6.005
 7282WAT     OW21844   4.752   0.870   4.023
 7282WAT    HW121845   4.769   0.968   4.024
 7282WAT    HW221846   4.818   0.824   4.084
 7283WAT     OW21847   4.197   2.095   0.763
 7283WAT    HW121848   4.146   2.034   0.701
 7283WAT    HW221849   4.287   2.056   0.781
 7284WAT     OW21850   4.888   2.899   4.238
 7284WAT    HW121851   4.907   2.899   4.336
 7284WAT    HW221852   4.865   2.807   4.208
 7285WAT     OW21853   5.259   4.664   5.540
 7285WAT    HW121854   5.210   4.577   5.555
 7285WAT    HW221855   5.224   4.733   5.604
 7286WAT     OW21856   1.015   2.938   0.888
 7286WAT    HW121857   1.083   2.870   0.913
 7286WAT    HW221858   0.940   2.937   0.954
 7287WAT     OW21859   3.796   2.320   3.440
 7287WAT    HW121860   3.783   2.316   3.341
 7287WAT    HW221861   3.807   2.416   3.468
 7288WAT     OW21862   6.026   4.143   2.752
 7288WAT    HW121863   6.098   4.127   2.685
 7288WAT    HW221864   6.003   4.240   2.755
 7289WAT     OW21865   3.611   2.173   2.517
 7289WAT    HW121866   3.669   2.221   2.451
 7289WAT    HW221867   3.645   2.079   2.530
 7290WAT     OW21868   2.024   4.462   1.357
 7290WAT    HW121869   2.122   4.480   1.365
 7290WAT    HW221870   1.975   4.548   1.347
 7291WAT     OW21871   6.344   1.126   3.772
 7291WAT    HW121872   6.418   1.190   3.752
 7291WAT    HW221873   6.382   1.043   3.812
 7292WAT     OW21874   0.202   3.525   0.742
 7292WAT    HW121875   0.288   3.498   0.698
 7292WAT    HW221876   0.147   3.577   0.677
 7293WAT     OW21877   1.406   6.432   2.536
 7293WAT    HW121878   1.399   6.486   2.619
 7293WAT    HW221879   1.417   6.493   2.457
 7294WAT     OW21880   4.856   0.421   0.352
 7294WAT    HW121881   4.892   0.448   0.441
 7294WAT    HW221882   4.836   0.323   0.352
 7295WAT     OW21883   3.964   5.342   1.198
 7295WAT    HW121884   4.046   5.332   1.254
 7295WAT    HW221885   3.895   5.275   1.225
 7296WAT     OW21886   1.865   3.666   1.263
 7296WAT    HW121887   1.932   3.740   1.266
 7296WAT    HW221888   1.774   3.704   1.247
 7297WAT     OW21889   1.739   2.136   5.819
 7297WAT    HW121890   1.725   2.149   5.918
 7297WAT    HW221891   1.651   2.138   5.773
 7298WAT     OW21892   2.651   4.263   3.808
 7298WAT    HW121893   2.681   4.330   3.875
 7298WAT    HW221894   2.556   4.281   3.782
 7299WAT     OW21895   5.268   3.732   5.527
 7299WAT    HW121896   5.320   3.647   5.516
 7299WAT    HW221897   5.215   3.727   5.612
 7300WAT     OW21898   4.671   0.735   1.266
 7300WAT    HW121899   4.753   0.743   1.209
 7300WAT    HW221900   4.595   0.785   1.223
 7301WAT     OW21901   5.046   5.173   2.637
 7301WAT    HW121902   4.955   5.132   2.644
 7301WAT    HW221903   5.102   5.119   2.574
 7302WAT     OW21904   4.385   0.333   6.434
 7302WAT    HW121905   4.440   0.263   6.479
 7302WAT    HW221906   4.288   0.312   6.446
 7303WAT     OW21907   6.265   2.284   3.593
 7303WAT    HW121908   6.268   2.205   3.532
 7303WAT    HW221909   6.357   2.314   3.614
 7304WAT     OW21910   5.122   0.016   2.010
 7304WAT    HW121911   5.029  -0.021   2.012
 7304WAT    HW221912   5.179  -0.040   1.950
 7305WAT     OW21913   4.799   4.742   2.332
 7305WAT    HW121914   4.709   4.766   2.297
 7305WAT    HW221915   4.869   4.771   2.266
 7306WAT     OW21916   4.845   2.636   4.916
 7306WAT    HW121917   4.853   2.675   4.824
 7306WAT    HW221918   4.748   2.632   4.942
 7307WAT     OW21919   1.712   3.321   6.653
 7307WAT    HW121920   1.789   3.298   6.593
 7307WAT    HW221921   1.747   3.351   6.742
 7308WAT     OW21922   2.202   3.610   0.689
 7308WAT    HW121923   2.166   3.559   0.768
 7308WAT    HW221924   2.300   3.594   0.681
 7309WAT     OW21925   1.595   3.165   3.449
 7309WAT    HW121926   1.531   3.239   3.427
 7309WAT    HW221927   1.651   3.192   3.528
 7310WAT     OW21928   0.048   5.739   5.751
 7310WAT    HW121929   0.144   5.717   5.738
 7310WAT    HW221930   0.014   5.788   5.671
 7311WAT     OW21931   4.245   1.495   0.190
 7311WAT    HW121932   4.339   1.465   0.202
 7311WAT    HW221933   4.241   1.565   0.119
 7312WAT     OW21934   4.743   5.027   0.227
 7312WAT    HW121935   4.832   5.073   0.228
 7312WAT    HW221936   4.745   4.949   0.290
 7313WAT     OW21937   4.825   1.923   6.473
 7313WAT    HW121938   4.859   1.925   6.379
 7313WAT    HW221939   4.748   1.860   6.479
 7314WAT     OW21940   4.002   1.186   0.426
 7314WAT    HW121941   4.010   1.101   0.375
 7314WAT    HW221942   3.924   1.180   0.488
 7315WAT     OW21943   1.887   4.727   1.996
 7315WAT    HW121944   1.875   4.647   2.055
 7315WAT    HW221945   1.973   4.719   1.946
 7316WAT     OW21946   3.536   5.994   0.133
 7316WAT    HW121947   3.546   5.942   0.217
 7316WAT    HW221948   3.619   5.985   0.078
 7317WAT     OW21949   0.974   4.474   1.070
 7317WAT    HW121950   0.887   4.477   1.119
 7317WAT    HW221951   1.049   4.465   1.136
 7318WAT     OW21952   3.370   6.302   0.317
 7318WAT    HW121953   3.336   6.236   0.251
 7318WAT    HW221954   3.468   6.318   0.301
 7319WAT     OW21955   3.635   1.584   1.514
 7319WAT    HW121956   3.611   1.610   1.608
 7319WAT    HW221957   3.698   1.506   1.516
 7320WAT     OW21958   4.155   5.261   5.380
 7320WAT    HW121959   4.241   5.216   5.357
 7320WAT    HW221960   4.103   5.204   5.444
 7321WAT     OW21961   4.447   1.171   5.299
 7321WAT    HW121962   4.503   1.210   5.226
 7321WAT    HW221963   4.441   1.072   5.286
 7322WAT     OW21964   3.869   0.338   5.924
 7322WAT    HW121965   3.882   0.401   6.001
 7322WAT    HW221966   3.821   0.257   5.956
 7323WAT     OW21967   0.906   3.742   1.087
 7323WAT    HW121968   0.930   3.708   0.996
 7323WAT    HW221969   0.890   3.664   1.148
 7324WAT     OW21970   3.701   6.474   2.900
 7324WAT    HW121971   3.609   6.440   2.876
 7324WAT    HW221972   3.765   6.448   2.828
 7325WAT     OW21973   2.998   5.011   4.336
 7325WAT    HW121974   2.938   4.931   4.327
 7325WAT    HW221975   3.034   5.035   4.246
 7326WAT     OW21976   4.426   5.127   4.310
 7326WAT    HW121977   4.379   5.068   4.375
 7326WAT    HW221978   4.432   5.220   4.348
 7327WAT     OW21979   2.970   1.041   5.680
 7327WAT    HW121980   2.902   1.016   5.611
 7327WAT    HW221981   3.062   1.026   5.643
 7328WAT     OW21982   2.861   6.110   5.327
 7328WAT    HW121983   2.789   6.149   5.270
 7328WAT    HW221984   2.931   6.179   5.344
 7329WAT     OW21985   3.514   1.608   3.807
 7329WAT    HW121986   3.493   1.705   3.824
 7329WAT    HW221987   3.583   1.602   3.735
 7330WAT     OW21988   1.209   1.967   4.024
 7330WAT    HW121989   1.192   1.903   3.948
 7330WAT    HW221990   1.297   2.013   4.009
 7331WAT     OW21991   2.790   1.119   2.421
 7331WAT    HW121992   2.746   1.065   2.492
 7331WAT    HW221993   2.850   1.188   2.463
 7332WAT     OW21994   3.789   0.100   6.611
 7332WAT    HW121995   3.753   0.128   6.521
 7332WAT    HW221996   3.790   0.000   6.617
 7333WAT     OW21997   2.095   3.913   4.814
 7333WAT    HW121998   2.185   3.925   4.855
 7333WAT    HW221999   2.082   3.817   4.790
 7334WAT     OW22000   1.797   1.693   6.313
 7334WAT    HW122001   1.819   1.658   6.222
 7334WAT    HW222002   1.813   1.792   6.316
 7335WAT     OW22003   1.941   2.429   6.305
 7335WAT    HW122004   2.029   2.393   6.274
 7335WAT    HW222005   1.923   2.399   6.399
 7336WAT     OW22006   0.733   5.457   4.593
 7336WAT    HW122007   0.711   5.425   4.501
 7336WAT    HW222008   0.734   5.380   4.656
 7337WAT     OW22009   2.891   3.040   2.111
 7337WAT    HW122010   2.916   3.002   2.199
 7337WAT    HW222011   2.971   3.043   2.051
 7338WAT     OW22012   0.480   1.919   1.788
 7338WAT    HW122013   0.490   1.820   1.797
 7338WAT    HW222014   0.395   1.948   1.832
 7339WAT     OW22015   4.515   2.527   5.746
 7339WAT    HW122016   4.572   2.496   5.821
 7339WAT    HW222017   4.434   2.574   5.782
 7340WAT     OW22018   4.997   4.438   4.132
 7340WAT    HW122019   4.998   4.383   4.216
 7340WAT    HW222020   4.904   4.473   4.116
 7341WAT     OW22021   2.366   0.564   5.789
 7341WAT    HW122022   2.339   0.540   5.696
 7341WAT    HW222023   2.344   0.661   5.806
 7342WAT     OW22024   1.872   6.196   0.015
 7342WAT    HW122025   1.808   6.213  -0.059
 7342WAT    HW222026   1.906   6.103   0.009
 7343WAT     OW22027   4.565   0.257   2.736
 7343WAT    HW122028   4.651   0.208   2.744
 7343WAT    HW222029   4.488   0.193   2.740
 7344WAT     OW22030   0.068   4.755   3.451
 7344WAT    HW122031   0.008   4.818   3.499
 7344WAT    HW222032   0.019   4.670   3.430
 7345WAT     OW22033   4.945   4.571   5.984
 7345WAT    HW122034   4.930   4.515   5.903
 7345WAT    HW222035   5.041   4.566   6.011
 7346WAT     OW22036   6.591   2.168   1.977
 7346WAT    HW122037   6.613   2.154   1.881
 7346WAT    HW222038   6.516   2.107   2.004
 7347WAT     OW22039   0.958   5.838   4.326
 7347WAT    HW122040   0.877   5.896   4.319
 7347WAT    HW222041   0.944   5.771   4.399
 7348WAT     OW22042   6.019   2.162   4.246
 7348WAT    HW122043   6.082   2.182   4.172
 7348WAT    HW222044   6.067   2.113   4.319
 7349WAT     OW22045   1.084   0.620   3.275
 7349WAT    HW122046   1.171   0.619   3.225
 7349WAT    HW222047   1.044   0.711   3.271
 7350WAT     OW22048   3.661   2.747   4.766
 7350WAT    HW122049   3.600   2.748   4.845
 7350WAT    HW222050   3.644   2.664   4.712
 7351WAT     OW22051   3.437   5.716   2.661
 7351WAT    HW122052   3.440   5.673   2.571
 7351WAT    HW222053   3.457   5.648   2.732
 7352WAT     OW22054   6.605   4.703   0.388
 7352WAT    HW122055   6.695   4.745   0.398
 7352WAT    HW222056   6.571   4.675   0.477
 7353WAT     OW22057   6.214   5.193   4.469
 7353WAT    HW122058   6.144   5.253   4.507
 7353WAT    HW222059   6.170   5.117   4.420
 7354WAT     OW22060   0.835   4.803   0.018
 7354WAT    HW122061   0.834   4.872   0.090
 7354WAT    HW222062   0.928   4.792  -0.016
 7355WAT     OW22063   3.807   2.288   2.352
 7355WAT    HW122064   3.888   2.316   2.403
 7355WAT    HW222065   3.835   2.245   2.266
 7356WAT     OW22066   6.344   0.413   4.354
 7356WAT    HW122067   6.247   0.426   4.334
 7356WAT    HW222068   6.398   0.477   4.301
 7357WAT     OW22069   1.702   0.449   0.292
 7357WAT    HW122070   1.768   0.374   0.292
 7357WAT    HW222071   1.629   0.429   0.227
 7358WAT     OW22072   5.475   2.702   1.916
 7358WAT    HW122073   5.480   2.701   1.816
 7358WAT    HW222074   5.384   2.730   1.945
 7359WAT     OW22075   0.472   2.376   4.758
 7359WAT    HW122076   0.562   2.373   4.713
 7359WAT    HW222077   0.429   2.286   4.753
 7360WAT     OW22078   3.930   0.855   2.387
 7360WAT    HW122079   3.922   0.833   2.484
 7360WAT    HW222080   3.870   0.795   2.334
 7361WAT     OW22081   1.820   3.346   1.901
 7361WAT    HW122082   1.807   3.402   1.819
 7361WAT    HW222083   1.908   3.369   1.943
 7362WAT     OW22084   4.064   6.089   6.053
 7362WAT    HW122085   4.092   6.148   6.128
 7362WAT    HW222086   4.064   5.994   6.083
 7363WAT     OW22087   4.404   6.644   3.477
 7363WAT    HW122088   4.447   6.664   3.565
 7363WAT    HW222089   4.308   6.671   3.481
 7364WAT     OW22090   0.273   1.913   5.194
 7364WAT    HW122091   0.343   1.984   5.192
 7364WAT    HW222092   0.215   1.924   5.274
 7365WAT     OW22093   0.867   0.079   5.649
 7365WAT    HW122094   0.953   0.036   5.675
 7365WAT    HW222095   0.792   0.036   5.699
 7366WAT     OW22096   5.572   1.882   1.382
 7366WAT    HW122097   5.472   1.878   1.375
 7366WAT    HW222098   5.605   1.972   1.353
 7367WAT     OW22099   0.807   2.487   3.195
 7367WAT    HW122100   0.798   2.416   3.265
 7367WAT    HW222101   0.815   2.576   3.239
 7368WAT     OW22102   4.398   4.606   2.346
 7368WAT    HW122103   4.346   4.646   2.421
 7368WAT    HW222104   4.460   4.675   2.307
 7369WAT     OW22105   2.522   2.732   0.422
 7369WAT    HW122106   2.422   2.727   0.420
 7369WAT    HW222107   2.552   2.820   0.386
 7370WAT     OW22108   1.287   4.513   4.847
 7370WAT    HW122109   1.296   4.510   4.747
 7370WAT    HW222110   1.334   4.594   4.882
 7371WAT     OW22111   0.149   5.275   1.547
 7371WAT    HW122112   0.159   5.373   1.564
 7371WAT    HW222113   0.211   5.248   1.474
 7372WAT     OW22114   1.914   4.666   3.301
 7372WAT    HW122115   1.964   4.636   3.221
 7372WAT    HW222116   1.970   4.730   3.354
 7373WAT     OW22117   0.221   5.479   0.075
 7373WAT    HW122118   0.218   5.576   0.054
 7373WAT    HW222119   0.231   5.426  -0.010
 7374WAT     OW22120   2.399   6.139   3.690
 7374WAT    HW122121   2.418   6.218   3.748
 7374WAT    HW222122   2.391   6.168   3.595
 7375WAT     OW22123   6.444   2.205   6.244
 7375WAT    HW122124   6.517   2.193   6.176
 7375WAT    HW222125   6.390   2.286   6.220
 7376WAT     OW22126   6.659   2.366   0.163
 7376WAT    HW122127   6.757   2.374   0.184
 7376WAT    HW222128   6.617   2.302   0.226
 7377WAT     OW22129   5.758   5.137   1.828
 7377WAT    HW122130   5.748   5.237   1.831
 7377WAT    HW222131   5.855   5.114   1.819
 7378WAT     OW22132   0.825   4.648   4.229
 7378WAT    HW122133   0.850   4.728   4.175
 7378WAT    HW222134   0.855   4.660   4.324
 7379WAT     OW22135   3.575   0.874   6.530
 7379WAT    HW122136   3.515   0.935   6.582
 7379WAT    HW222137   3.666   0.873   6.571
 7380WAT     OW22138   4.413   6.402   0.083
 7380WAT    HW122139   4.396   6.312   0.045
 7380WAT    HW222140   4.444   6.393   0.178
 7381WAT     OW22141   2.375   0.680   0.221
 7381WAT    HW122142   2.436   0.624   0.278
 7381WAT    HW222143   2.288   0.694   0.268
 7382WAT     OW22144   3.280   3.480   3.687
 7382WAT    HW122145   3.189   3.457   3.721
 7382WAT    HW222146   3.276   3.565   3.635
 7383WAT     OW22147   0.695   0.041   3.507
 7383WAT    HW122148   0.721  -0.032   3.570
 7383WAT    HW222149   0.657   0.118   3.560
 7384WAT     OW22150   2.863   2.784   5.742
 7384WAT    HW122151   2.928   2.860   5.751
 7384WAT    HW222152   2.893   2.708   5.800
 7385WAT     OW22153   2.833   0.290   2.972
 7385WAT    HW122154   2.887   0.292   3.055
 7385WAT    HW222155   2.769   0.367   2.972
 7386WAT     OW22156   4.404   3.379   0.678
 7386WAT    HW122157   4.444   3.319   0.609
 7386WAT    HW222158   4.473   3.446   0.707
 7387WAT     OW22159   4.835   1.823   1.981
 7387WAT    HW122160   4.806   1.896   2.042
 7387WAT    HW222161   4.891   1.757   2.031
 7388WAT     OW22162   1.519   6.369   4.036
 7388WAT    HW122163   1.614   6.402   4.043
 7388WAT    HW222164   1.457   6.447   4.034
 7389WAT     OW22165   5.178   4.472   2.204
 7389WAT    HW122166   5.086   4.492   2.239
 7389WAT    HW222167   5.211   4.387   2.244
 7390WAT     OW22168   1.197   6.271   4.621
 7390WAT    HW122169   1.274   6.208   4.614
 7390WAT    HW222170   1.146   6.253   4.705
 7391WAT     OW22171   2.336   3.920   4.935
 7391WAT    HW122172   2.414   3.894   4.877
 7391WAT    HW222173   2.366   3.987   5.002
 7392WAT     OW22174   0.374   4.625   4.942
 7392WAT    HW122175   0.420   4.694   4.998
 7392WAT    HW222176   0.443   4.567   4.897
 7393WAT     OW22177   3.925   5.973   5.420
 7393WAT    HW122178   3.855   6.016   5.477
 7393WAT    HW222179   3.882   5.906   5.360
 7394WAT     OW22180   2.573   6.540   2.520
 7394WAT    HW122181   2.576   6.577   2.427
 7394WAT    HW222182   2.654   6.570   2.570
 7395WAT     OW22183   4.118   3.575   6.564
 7395WAT    HW122184   4.162   3.485   6.568
 7395WAT    HW222185   4.027   3.569   6.604
 7396WAT     OW22186   2.336   2.044   5.425
 7396WAT    HW122187   2.264   2.019   5.490
 7396WAT    HW222188   2.327   2.141   5.401
 7397WAT     OW22189   0.996   6.115   3.453
 7397WAT    HW122190   0.923   6.150   3.395
 7397WAT    HW222191   1.057   6.190   3.478
 7398WAT     OW22192   1.476   2.185   6.242
 7398WAT    HW122193   1.425   2.258   6.288
 7398WAT    HW222194   1.411   2.118   6.205
 7399WAT     OW22195   1.010   2.400   0.432
 7399WAT    HW122196   1.049   2.449   0.510
 7399WAT    HW222197   0.997   2.304   0.456
 7400WAT     OW22198   4.956   0.394   6.105
 7400WAT    HW122199   4.963   0.486   6.144
 7400WAT    HW222200   5.018   0.332   6.153
 7401WAT     OW22201   5.111   2.024   1.267
 7401WAT    HW122202   5.181   1.955   1.282
 7401WAT    HW222203   5.129   2.103   1.327
 7402WAT     OW22204   5.453   2.576   3.123
 7402WAT    HW122205   5.549   2.578   3.094
 7402WAT    HW222206   5.398   2.626   3.057
 7403WAT     OW22207   3.475   1.412   3.540
 7403WAT    HW122208   3.561   1.447   3.578
 7403WAT    HW222209   3.433   1.350   3.606
 7404WAT     OW22210   1.020   4.325   2.818
 7404WAT    HW122211   0.954   4.398   2.838
 7404WAT    HW222212   1.110   4.353   2.853
 7405WAT     OW22213   2.871   5.512   5.944
 7405WAT    HW122214   2.944   5.445   5.954
 7405WAT    HW222215   2.888   5.590   6.004
 7406WAT     OW22216   4.119   2.318   6.679
 7406WAT    HW122217   4.128   2.257   6.600
 7406WAT    HW222218   4.091   2.265   6.759
 7407WAT     OW22219   6.485   6.227   2.443
 7407WAT    HW122220   6.528   6.277   2.368
 7407WAT    HW222221   6.497   6.128   2.429
 7408WAT     OW22222   0.101   4.930   2.923
 7408WAT    HW122223   0.108   4.848   2.866
 7408WAT    HW222224   0.096   4.904   3.019
 7409WAT     OW22225   3.916   6.627   2.172
 7409WAT    HW122226   3.931   6.671   2.084
 7409WAT    HW222227   3.819   6.631   2.196
 7410WAT     OW22228   5.577   6.380   5.685
 7410WAT    HW122229   5.675   6.403   5.686
 7410WAT    HW222230   5.534   6.419   5.767
 7411WAT     OW22231   4.410   2.928   2.374
 7411WAT    HW122232   4.351   2.959   2.299
 7411WAT    HW222233   4.502   2.963   2.361
 7412WAT     OW22234   4.854   6.197   2.437
 7412WAT    HW122235   4.913   6.204   2.357
 7412WAT    HW222236   4.906   6.219   2.519
 7413WAT     OW22237   2.037   0.407   1.671
 7413WAT    HW122238   2.056   0.405   1.769
 7413WAT    HW222239   1.971   0.334   1.649
 7414WAT     OW22240   0.605   0.501   3.387
 7414WAT    HW122241   0.650   0.427   3.337
 7414WAT    HW222242   0.531   0.463   3.443
 7415WAT     OW22243   5.503   2.580   0.697
 7415WAT    HW122244   5.577   2.638   0.731
 7415WAT    HW222245   5.447   2.632   0.632
 7416WAT     OW22246   3.404   5.221   4.902
 7416WAT    HW122247   3.313   5.209   4.942
 7416WAT    HW222248   3.394   5.253   4.807
 7417WAT     OW22249   6.193   3.331   2.346
 7417WAT    HW122250   6.256   3.257   2.367
 7417WAT    HW222251   6.192   3.397   2.421
 7418WAT     OW22252   0.085   2.040   3.035
 7418WAT    HW122253   0.106   1.946   3.006
 7418WAT    HW222254   0.102   2.103   2.959
 7419WAT     OW22255   3.922   4.758   4.063
 7419WAT    HW122256   3.949   4.845   4.023
 7419WAT    HW222257   3.988   4.731   4.133
 7420WAT     OW22258   3.639   2.645   3.692
 7420WAT    HW122259   3.585   2.565   3.718
 7420WAT    HW222260   3.638   2.711   3.767
 7421WAT     OW22261   4.471   2.463   2.313
 7421WAT    HW122262   4.567   2.488   2.297
 7421WAT    HW222263   4.466   2.389   2.380
 7422WAT     OW22264   3.860   0.089   0.931
 7422WAT    HW122265   3.784   0.041   0.886
 7422WAT    HW222266   3.830   0.180   0.957
 7423WAT     OW22267   6.077   1.978   4.455
 7423WAT    HW122268   5.989   2.015   4.484
 7423WAT    HW222269   6.062   1.901   4.392
 7424WAT     OW22270   4.781   5.858   6.454
 7424WAT    HW122271   4.817   5.936   6.402
 7424WAT    HW222272   4.820   5.773   6.418
 7425WAT     OW22273   0.783   6.301   2.541
 7425WAT    HW122274   0.807   6.301   2.444
 7425WAT    HW222275   0.850   6.248   2.592
 7426WAT     OW22276   2.271   2.478   3.601
 7426WAT    HW122277   2.354   2.424   3.610
 7426WAT    HW222278   2.295   2.575   3.595
 7427WAT     OW22279   3.577   0.577   3.433
 7427WAT    HW122280   3.642   0.640   3.391
 7427WAT    HW222281   3.490   0.582   3.384
 7428WAT     OW22282   6.495   6.137   4.930
 7428WAT    HW122283   6.452   6.201   4.994
 7428WAT    HW222284   6.519   6.053   4.978
 7429WAT     OW22285   4.994   6.597   2.391
 7429WAT    HW122286   4.927   6.540   2.344
 7429WAT    HW222287   5.083   6.588   2.346
 7430WAT     OW22288   1.161   5.538   2.217
 7430WAT    HW122289   1.199   5.586   2.138
 7430WAT    HW222290   1.186   5.442   2.213
 7431WAT     OW22291   3.807   2.777   1.334
 7431WAT    HW122292   3.821   2.874   1.354
 7431WAT    HW222293   3.816   2.761   1.236
 7432WAT     OW22294   6.012   2.500   3.888
 7432WAT    HW122295   5.965   2.470   3.806
 7432WAT    HW222296   6.108   2.472   3.884
 7433WAT     OW22297   6.496   4.671   3.173
 7433WAT    HW122298   6.436   4.748   3.152
 7433WAT    HW222299   6.555   4.652   3.094
 7434WAT     OW22300   4.649   1.506   3.940
 7434WAT    HW122301   4.612   1.415   3.957
 7434WAT    HW222302   4.578   1.574   3.955
 7435WAT     OW22303   2.267   0.207   4.267
 7435WAT    HW122304   2.307   0.204   4.176
 7435WAT    HW222305   2.333   0.247   4.331
 7436WAT     OW22306   5.562   4.404   2.269
 7436WAT    HW122307   5.615   4.354   2.338
 7436WAT    HW222308   5.493   4.461   2.314
 7437WAT     OW22309   2.677   5.116   0.192
 7437WAT    HW122310   2.742   5.190   0.210
 7437WAT    HW222311   2.584   5.153   0.196
 7438WAT     OW22312   6.547   2.135   0.913
 7438WAT    HW122313   6.591   2.222   0.891
 7438WAT    HW222314   6.591   2.094   0.993
 7439WAT     OW22315   5.873   0.231   1.182
 7439WAT    HW122316   5.963   0.220   1.139
 7439WAT    HW222317   5.805   0.253   1.113
 7440WAT     OW22318   5.231   4.574   3.787
 7440WAT    HW122319   5.229   4.663   3.740
 7440WAT    HW222320   5.217   4.501   3.720
 7441WAT     OW22321   0.858   0.683   1.275
 7441WAT    HW122322   0.888   0.777   1.290
 7441WAT    HW222323   0.778   0.683   1.214
 7442WAT     OW22324   0.531   2.368   4.036
 7442WAT    HW122325   0.621   2.381   4.078
 7442WAT    HW222326   0.502   2.273   4.048
 7443WAT     OW22327   4.899   6.039   2.932
 7443WAT    HW122328   4.821   6.080   2.886
 7443WAT    HW222329   4.959   5.994   2.865
 7444WAT     OW22330   3.597   3.739   4.449
 7444WAT    HW122331   3.567   3.651   4.412
 7444WAT    HW222332   3.552   3.756   4.537
 7445WAT     OW22333   0.309   5.546   1.294
 7445WAT    HW122334   0.354   5.634   1.286
 7445WAT    HW222335   0.289   5.527   1.391
 7446WAT     OW22336   6.093   0.468   4.254
 7446WAT    HW122337   6.099   0.545   4.189
 7446WAT    HW222338   6.037   0.495   4.332
 7447WAT     OW22339   6.672   2.830   5.704
 7447WAT    HW122340   6.687   2.842   5.802
 7447WAT    HW222341   6.742   2.768   5.668
 7448WAT     OW22342   1.591   6.004   5.583
 7448WAT    HW122343   1.508   5.952   5.602
 7448WAT    HW222344   1.670   5.944   5.588
 7449WAT     OW22345   2.313   1.236   0.571
 7449WAT    HW122346   2.328   1.334   0.562
 7449WAT    HW222347   2.232   1.220   0.626
 7450WAT     OW22348   1.792   6.129   3.093
 7450WAT    HW122349   1.808   6.050   3.152
 7450WAT    HW222350   1.812   6.105   2.998
 7451WAT     OW22351   3.083   0.072   1.327
 7451WAT    HW122352   3.006   0.122   1.288
 7451WAT    HW222353   3.164   0.131   1.329
 7452WAT     OW22354   5.239   1.827   1.909
 7452WAT    HW122355   5.289   1.815   1.995
 7452WAT    HW222356   5.210   1.923   1.901
 7453WAT     OW22357   0.760   2.088   4.745
 7453WAT    HW122358   0.742   2.016   4.678
 7453WAT    HW222359   0.748   2.178   4.702
 7454WAT     OW22360   3.642   0.545   5.997
 7454WAT    HW122361   3.647   0.571   5.901
 7454WAT    HW222362   3.733   0.549   6.038
 7455WAT     OW22363   0.394   6.499   4.447
 7455WAT    HW122364   0.473   6.509   4.507
 7455WAT    HW222365   0.370   6.402   4.439
 7456WAT     OW22366   4.576   2.334   3.630
 7456WAT    HW122367   4.612   2.262   3.689
 7456WAT    HW222368   4.478   2.317   3.614
 7457WAT     OW22369   2.191   5.132   0.552
 7457WAT    HW122370   2.202   5.228   0.526
 7457WAT    HW222371   2.237   5.117   0.640
 7458WAT     OW22372   0.695   5.259   2.054
 7458WAT    HW122373   0.625   5.317   2.012
 7458WAT    HW222374   0.716   5.292   2.146
 7459WAT     OW22375   6.637   4.337   1.299
 7459WAT    HW122376   6.573   4.414   1.296
 7459WAT    HW222377   6.586   4.251   1.295
 7460WAT     OW22378   0.645   3.357   4.691
 7460WAT    HW122379   0.629   3.436   4.632
 7460WAT    HW222380   0.558   3.311   4.709
 7461WAT     OW22381   1.321   5.183   3.571
 7461WAT    HW122382   1.277   5.096   3.594
 7461WAT    HW222383   1.353   5.180   3.477
 7462WAT     OW22384   5.361   5.872   6.153
 7462WAT    HW122385   5.452   5.831   6.140
 7462WAT    HW222386   5.295   5.824   6.095
 7463WAT     OW22387   6.418   4.776   3.438
 7463WAT    HW122388   6.472   4.846   3.484
 7463WAT    HW222389   6.464   4.749   3.353
 7464WAT     OW22390   0.666   6.627   5.786
 7464WAT    HW122391   0.601   6.588   5.721
 7464WAT    HW222392   0.623   6.637   5.875
 7465WAT     OW22393   6.281   5.032   5.541
 7465WAT    HW122394   6.288   4.961   5.612
 7465WAT    HW222395   6.197   5.020   5.489
 7466WAT     OW22396   2.421   2.941   0.637
 7466WAT    HW122397   2.520   2.922   0.639
 7466WAT    HW222398   2.404   3.016   0.573
 7467WAT     OW22399   2.459   3.442   2.171
 7467WAT    HW122400   2.489   3.388   2.093
 7467WAT    HW222401   2.359   3.449   2.169
 7468WAT     OW22402   2.332   5.820   5.528
 7468WAT    HW122403   2.394   5.897   5.511
 7468WAT    HW222404   2.256   5.823   5.463
 7469WAT     OW22405   6.615   0.247   4.759
 7469WAT    HW122406   6.552   0.276   4.831
 7469WAT    HW222407   6.709   0.266   4.786
 7470WAT     OW22408   1.071   3.630   0.166
 7470WAT    HW122409   1.034   3.723   0.159
 7470WAT    HW222410   1.014   3.567   0.114
 7471WAT     OW22411   4.084   2.628   1.103
 7471WAT    HW122412   4.090   2.577   1.189
 7471WAT    HW222413   3.992   2.666   1.092
 7472WAT     OW22414   5.740   1.706   3.828
 7472WAT    HW122415   5.706   1.733   3.917
 7472WAT    HW222416   5.680   1.742   3.756
 7473WAT     OW22417   3.096   4.200   4.912
 7473WAT    HW122418   3.007   4.167   4.944
 7473WAT    HW222419   3.098   4.300   4.918
 7474WAT     OW22420   0.030   5.536   0.993
 7474WAT    HW122421   0.034   5.469   1.067
 7474WAT    HW222422  -0.055   5.524   0.941
 7475WAT     OW22423   6.505   5.919   2.201
 7475WAT    HW122424   6.543   5.852   2.137
 7475WAT    HW222425   6.451   5.871   2.270
 7476WAT     OW22426   5.954   4.829   1.937
 7476WAT    HW122427   5.989   4.911   1.891
 7476WAT    HW222428   5.913   4.768   1.869
 7477WAT     OW22429   3.300   2.838   4.518
 7477WAT    HW122430   3.203   2.813   4.517
 7477WAT    HW222431   3.316   2.907   4.588
 7478WAT     OW22432   4.870   4.652   4.785
 7478WAT    HW122433   4.818   4.571   4.759
 7478WAT    HW222434   4.918   4.688   4.705
 7479WAT     OW22435   1.310   6.246   0.944
 7479WAT    HW122436   1.408   6.231   0.954
 7479WAT    HW222437   1.292   6.345   0.942
 7480WAT     OW22438   5.991   5.998   1.515
 7480WAT    HW122439   6.038   6.071   1.565
 7480WAT    HW222440   5.898   5.989   1.548
 7481WAT     OW22441   2.244   0.691   1.836
 7481WAT    HW122442   2.257   0.614   1.774
 7481WAT    HW222443   2.150   0.689   1.872
 7482WAT     OW22444   6.158   0.560   4.646
 7482WAT    HW122445   6.124   0.627   4.713
 7482WAT    HW222446   6.246   0.591   4.611
 7483WAT     OW22447   1.715   5.458   0.302
 7483WAT    HW122448   1.737   5.368   0.340
 7483WAT    HW222449   1.676   5.516   0.373
 7484WAT     OW22450   3.909   0.396   0.759
 7484WAT    HW122451   4.001   0.415   0.793
 7484WAT    HW222452   3.848   0.378   0.836
 7485WAT     OW22453   0.547   6.250   0.627
 7485WAT    HW122454   0.515   6.343   0.641
 7485WAT    HW222455   0.644   6.251   0.603
 7486WAT     OW22456   5.510   4.406   1.926
 7486WAT    HW122457   5.564   4.470   1.980
 7486WAT    HW222458   5.469   4.337   1.986
 7487WAT     OW22459   3.349   6.143   5.600
 7487WAT    HW122460   3.269   6.116   5.547
 7487WAT    HW222461   3.406   6.063   5.618
 7488WAT     OW22462   1.477   0.568   0.472
 7488WAT    HW122463   1.562   0.581   0.422
 7488WAT    HW222464   1.448   0.472   0.466
 7489WAT     OW22465   5.427   1.554   2.279
 7489WAT    HW122466   5.526   1.550   2.262
 7489WAT    HW222467   5.388   1.630   2.227
 7490WAT     OW22468   3.002   3.885   0.652
 7490WAT    HW122469   2.937   3.952   0.688
 7490WAT    HW222470   2.963   3.793   0.661
 7491WAT     OW22471   0.436   0.481   2.877
 7491WAT    HW122472   0.425   0.427   2.793
 7491WAT    HW222473   0.445   0.578   2.853
 7492WAT     OW22474   6.605   5.207   0.963
 7492WAT    HW122475   6.544   5.275   1.004
 7492WAT    HW222476   6.551   5.140   0.912
 7493WAT     OW22477   1.941   3.060   2.486
 7493WAT    HW122478   2.008   2.994   2.522
 7493WAT    HW222479   1.968   3.088   2.394
 7494WAT     OW22480   5.158   5.715   2.903
 7494WAT    HW122481   5.233   5.731   2.969
 7494WAT    HW222482   5.133   5.802   2.862
 7495WAT     OW22483   3.683   1.239   6.331
 7495WAT    HW122484   3.766   1.232   6.386
 7495WAT    HW222485   3.620   1.303   6.373
 7496WAT     OW22486   4.560   1.097   3.176
 7496WAT    HW122487   4.469   1.125   3.208
 7496WAT    HW222488   4.611   1.177   3.147
 7497WAT     OW22489   6.323   1.523   3.413
 7497WAT    HW122490   6.273   1.438   3.433
 7497WAT    HW222491   6.390   1.505   3.341
 7498WAT     OW22492   1.513   3.551   6.080
 7498WAT    HW122493   1.470   3.612   6.012
 7498WAT    HW222494   1.564   3.480   6.033
 7499WAT     OW22495   1.286   4.782   2.517
 7499WAT    HW122496   1.296   4.854   2.448
 7499WAT    HW222497   1.303   4.820   2.607
 7500WAT     OW22498   4.885   6.340   4.287
 7500WAT    HW122499   4.863   6.345   4.189
 7500WAT    HW222500   4.821   6.279   4.333
 7501WAT     OW22501   1.420   2.144   0.226
 7501WAT    HW122502   1.424   2.157   0.127
 7501WAT    HW222503   1.369   2.060   0.247
 7502WAT     OW22504   3.044   2.387   2.145
 7502WAT    HW122505   2.954   2.386   2.189
 7502WAT    HW222506   3.042   2.328   2.064
 7503WAT     OW22507   0.069   0.214   3.908
 7503WAT    HW122508   0.063   0.184   4.003
 7503WAT    HW222509  -0.019   0.248   3.878
 7504WAT     OW22510   3.627   1.169   0.367
 7504WAT    HW122511   3.688   1.151   0.444
 7504WAT    HW222512   3.577   1.254   0.384
 7505WAT     OW22513   1.662   0.548   2.987
 7505WAT    HW122514   1.606   0.514   3.062
 7505WAT    HW222515   1.752   0.576   3.022
 7506WAT     OW22516   1.716   3.335   5.471
 7506WAT    HW122517   1.708   3.396   5.392
 7506WAT    HW222518   1.729   3.241   5.439
 7507WAT     OW22519   3.987   4.322   0.904
 7507WAT    HW122520   4.009   4.291   0.811
 7507WAT    HW222521   3.898   4.368   0.903
 7508WAT     OW22522   2.649   1.474   0.517
 7508WAT    HW122523   2.689   1.382   0.511
 7508WAT    HW222524   2.705   1.530   0.578
 7509WAT     OW22525   0.272   5.698   3.967
 7509WAT    HW122526   0.221   5.744   3.895
 7509WAT    HW222527   0.361   5.742   3.978
 7510WAT     OW22528   1.925   4.410   0.020
 7510WAT    HW122529   1.889   4.488   0.072
 7510WAT    HW222530   1.853   4.375  -0.040
 7511WAT     OW22531   1.607   5.397   3.340
 7511WAT    HW122532   1.627   5.424   3.435
 7511WAT    HW222533   1.534   5.455   3.305
 7512WAT     OW22534   0.241   2.021   3.275
 7512WAT    HW122535   0.234   2.095   3.343
 7512WAT    HW222536   0.183   2.042   3.196
 7513WAT     OW22537   1.091   0.275   4.521
 7513WAT    HW122538   1.104   0.290   4.423
 7513WAT    HW222539   1.071   0.178   4.537
 7514WAT     OW22540   0.754   4.266   0.037
 7514WAT    HW122541   0.772   4.359   0.006
 7514WAT    HW222542   0.822   4.240   0.105
 7515WAT     OW22543   6.393   5.698   2.984
 7515WAT    HW122544   6.294   5.708   2.970
 7515WAT    HW222545   6.429   5.779   3.030
 7516WAT     OW22546   1.291   3.247   5.427
 7516WAT    HW122547   1.381   3.253   5.385
 7516WAT    HW222548   1.298   3.196   5.513
 7517WAT     OW22549   2.072   6.546   5.302
 7517WAT    HW122550   2.005   6.620   5.305
 7517WAT    HW222551   2.162   6.584   5.283
 7518WAT     OW22552   4.255   3.020   4.338
 7518WAT    HW122553   4.295   3.001   4.248
 7518WAT    HW222554   4.296   2.959   4.406
 7519WAT     OW22555   1.760   2.416   3.136
 7519WAT    HW122556   1.778   2.444   3.041
 7519WAT    HW222557   1.748   2.317   3.139
 7520WAT     OW22558   0.257   6.619   1.936
 7520WAT    HW122559   0.162   6.650   1.924
 7520WAT    HW222560   0.283   6.560   1.859
 7521WAT     OW22561   4.981   2.559   6.395
 7521WAT    HW122562   4.961   2.657   6.399
 7521WAT    HW222563   5.075   2.545   6.363
 7522WAT     OW22564   5.058   4.910   6.352
 7522WAT    HW122565   5.086   4.814   6.343
 7522WAT    HW222566   5.000   4.920   6.433
 7523WAT     OW22567   5.537   2.279   2.693
 7523WAT    HW122568   5.522   2.281   2.594
 7523WAT    HW222569   5.536   2.184   2.725
 7524WAT     OW22570   5.261   2.214   0.831
 7524WAT    HW122571   5.192   2.161   0.781
 7524WAT    HW222572   5.350   2.171   0.821
 7525WAT     OW22573   2.902   1.062   2.178
 7525WAT    HW122574   2.997   1.089   2.192
 7525WAT    HW222575   2.850   1.076   2.263
 7526WAT     OW22576   0.260   6.095   6.603
 7526WAT    HW122577   0.193   6.105   6.529
 7526WAT    HW222578   0.352   6.094   6.564
 7527WAT     OW22579   5.016   4.516   2.793
 7527WAT    HW122580   4.949   4.443   2.804
 7527WAT    HW222581   4.975   4.603   2.819
 7528WAT     OW22582   4.656   4.519   1.235
 7528WAT    HW122583   4.662   4.598   1.297
 7528WAT    HW222584   4.629   4.438   1.287
 7529WAT     OW22585   3.072   1.668   2.379
 7529WAT    HW122586   3.108   1.605   2.447
 7529WAT    HW222587   3.003   1.623   2.324
 7530WAT     OW22588   4.809   3.103   0.742
 7530WAT    HW122589   4.725   3.062   0.776
 7530WAT    HW222590   4.886   3.042   0.761
 7531WAT     OW22591   5.138   5.500   5.853
 7531WAT    HW122592   5.180   5.415   5.820
 7531WAT    HW222593   5.084   5.480   5.935
 7532WAT     OW22594   3.599   4.239   6.324
 7532WAT    HW122595   3.624   4.232   6.421
 7532WAT    HW222596   3.606   4.149   6.281
 7533WAT     OW22597   6.534   0.023   6.349
 7533WAT    HW122598   6.632   0.045   6.355
 7533WAT    HW222599   6.518  -0.068   6.387
 7534WAT     OW22600   6.506   4.515   3.838
 7534WAT    HW122601   6.445   4.567   3.777
 7534WAT    HW222602   6.454   4.483   3.917
 7535WAT     OW22603   0.620   2.913   4.711
 7535WAT    HW122604   0.657   2.985   4.769
 7535WAT    HW222605   0.594   2.835   4.768
 7536WAT     OW22606   3.555   2.848   0.700
 7536WAT    HW122607   3.489   2.778   0.728
 7536WAT    HW222608   3.610   2.875   0.780
 7537WAT     OW22609   2.783   5.825   2.156
 7537WAT    HW122610   2.739   5.860   2.074
 7537WAT    HW222611   2.806   5.902   2.216
 7538WAT     OW22612   4.275   0.606   2.593
 7538WAT    HW122613   4.254   0.694   2.636
 7538WAT    HW222614   4.189   0.562   2.566
 7539WAT     OW22615   3.911   4.616   3.126
 7539WAT    HW122616   3.957   4.686   3.070
 7539WAT    HW222617   3.946   4.620   3.219
 7540WAT     OW22618   4.501   6.305   1.496
 7540WAT    HW122619   4.558   6.379   1.533
 7540WAT    HW222620   4.536   6.217   1.528
 7541WAT     OW22621   3.640   6.570   3.378
 7541WAT    HW122622   3.737   6.585   3.396
 7541WAT    HW222623   3.621   6.585   3.281
 7542WAT     OW22624   1.926   3.316   2.836
 7542WAT    HW122625   1.870   3.266   2.771
 7542WAT    HW222626   1.871   3.387   2.880
 7543WAT     OW22627   2.792   5.644   0.541
 7543WAT    HW122628   2.833   5.717   0.595
 7543WAT    HW222629   2.700   5.670   0.512
 7544WAT     OW22630   5.708   0.304   1.534
 7544WAT    HW122631   5.802   0.278   1.510
 7544WAT    HW222632   5.693   0.288   1.632
 7545WAT     OW22633   4.614   4.004   4.553
 7545WAT    HW122634   4.565   4.082   4.514
 7545WAT    HW222635   4.677   3.966   4.484
 7546WAT     OW22636   6.616   2.162   3.437
 7546WAT    HW122637   6.601   2.182   3.340
 7546WAT    HW222638   6.580   2.071   3.457
 7547WAT     OW22639   0.039   2.078   4.558
 7547WAT    HW122640   0.072   2.143   4.628
 7547WAT    HW222641   0.114   2.056   4.496
 7548WAT     OW22642   3.552   1.116   1.332
 7548WAT    HW122643   3.622   1.111   1.260
 7548WAT    HW222644   3.478   1.176   1.302
 7549WAT     OW22645   4.264   3.013   1.460
 7549WAT    HW122646   4.201   2.964   1.520
 7549WAT    HW222647   4.242   3.110   1.460
 7550WAT     OW22648   5.686   4.720   5.608
 7550WAT    HW122649   5.786   4.721   5.606
 7550WAT    HW222650   5.653   4.626   5.605
 7551WAT     OW22651   5.243   3.080   3.055
 7551WAT    HW122652   5.321   3.019   3.065
 7551WAT    HW222653   5.262   3.146   2.982
 7552WAT     OW22654   3.347   1.757   0.250
 7552WAT    HW122655   3.423   1.727   0.191
 7552WAT    HW222656   3.262   1.756   0.198
 7553WAT     OW22657   4.517   5.742   0.256
 7553WAT    HW122658   4.517   5.675   0.182
 7553WAT    HW222659   4.514   5.834   0.217
 7554WAT     OW22660   0.939   1.938   0.037
 7554WAT    HW122661   0.986   2.026   0.026
 7554WAT    HW222662   0.841   1.954   0.050
 7555WAT     OW22663   2.939   5.697   6.134
 7555WAT    HW122664   2.864   5.705   6.200
 7555WAT    HW222665   3.023   5.671   6.183
 7556WAT     OW22666   3.455   6.379   2.834
 7556WAT    HW122667   3.391   6.369   2.911
 7556WAT    HW222668   3.459   6.294   2.783
 7557WAT     OW22669   0.142   2.614   3.934
 7557WAT    HW122670   0.168   2.607   3.837
 7557WAT    HW222671   0.224   2.617   3.990
 7558WAT     OW22672   0.428   3.726   3.118
 7558WAT    HW122673   0.342   3.765   3.085
 7558WAT    HW222674   0.485   3.800   3.156
 7559WAT     OW22675   0.573   4.034   2.705
 7559WAT    HW122676   0.493   4.022   2.764
 7559WAT    HW222677   0.646   3.972   2.735
 7560WAT     OW22678   1.371   6.603   2.749
 7560WAT    HW122679   1.450   6.656   2.717
 7560WAT    HW222680   1.396   6.551   2.830
 7561WAT     OW22681   1.252   1.136   4.085
 7561WAT    HW122682   1.217   1.063   4.144
 7561WAT    HW222683   1.222   1.225   4.120
 7562WAT     OW22684   4.131   1.882   3.917
 7562WAT    HW122685   4.052   1.929   3.956
 7562WAT    HW222686   4.213   1.904   3.969
 7563WAT     OW22687   1.957   5.845   6.138
 7563WAT    HW122688   2.022   5.797   6.196
 7563WAT    HW222689   1.865   5.836   6.177
 7564WAT     OW22690   4.532   5.868   2.590
 7564WAT    HW122691   4.471   5.948   2.588
 7564WAT    HW222692   4.621   5.894   2.553
 7565WAT     OW22693   3.642   5.208   2.487
 7565WAT    HW122694   3.644   5.304   2.514
 7565WAT    HW222695   3.547   5.175   2.486
 7566WAT     OW22696   0.761   1.009   1.501
 7566WAT    HW122697   0.797   1.080   1.561
 7566WAT    HW222698   0.826   0.991   1.427
 7567WAT     OW22699   1.498   3.454   2.888
 7567WAT    HW122700   1.473   3.360   2.865
 7567WAT    HW222701   1.481   3.513   2.809
 7568WAT     OW22702   1.235   0.403   1.294
 7568WAT    HW122703   1.304   0.376   1.227
 7568WAT    HW222704   1.165   0.459   1.249
 7569WAT     OW22705   1.800   4.632   0.120
 7569WAT    HW122706   1.877   4.695   0.117
 7569WAT    HW222707   1.732   4.658   0.051
 7570WAT     OW22708   0.138   0.532   4.595
 7570WAT    HW122709   0.045   0.500   4.612
 7570WAT    HW222710   0.196   0.455   4.571
 7571WAT     OW22711   1.957   3.934   0.881
 7571WAT    HW122712   2.035   3.930   0.944
 7571WAT    HW222713   1.930   3.841   0.856
 7572WAT     OW22714   0.062   3.651   3.481
 7572WAT    HW122715   0.016   3.732   3.445
 7572WAT    HW222716   0.148   3.636   3.432
 7573WAT     OW22717   4.658   2.452   5.127
 7573WAT    HW122718   4.628   2.531   5.074
 7573WAT    HW222719   4.656   2.371   5.069
 7574WAT     OW22720   4.612   1.739   6.481
 7574WAT    HW122721   4.581   1.748   6.576
 7574WAT    HW222722   4.608   1.643   6.455
 7575WAT     OW22723   0.260   2.047   0.983
 7575WAT    HW122724   0.261   2.084   0.890
 7575WAT    HW222725   0.346   2.071   1.029
 7576WAT     OW22726   1.023   3.082   5.768
 7576WAT    HW122727   0.978   3.002   5.729
 7576WAT    HW222728   0.971   3.164   5.745
 7577WAT     OW22729   4.182   0.469   1.139
 7577WAT    HW122730   4.257   0.476   1.204
 7577WAT    HW222731   4.100   0.509   1.178
 7578WAT     OW22732   1.421   2.545   1.802
 7578WAT    HW122733   1.391   2.520   1.709
 7578WAT    HW222734   1.510   2.590   1.797
 7579WAT     OW22735   5.646   1.578   0.989
 7579WAT    HW122736   5.554   1.576   0.949
 7579WAT    HW222737   5.642   1.618   1.080
 7580WAT     OW22738   2.860   3.368   2.082
 7580WAT    HW122739   2.790   3.311   2.125
 7580WAT    HW222740   2.873   3.339   1.988
 7581WAT     OW22741   0.034   0.493   2.845
 7581WAT    HW122742   0.073   0.531   2.930
 7581WAT    HW222743   0.108   0.462   2.786
 7582WAT     OW22744   5.459   2.674   2.373
 7582WAT    HW122745   5.395   2.751   2.365
 7582WAT    HW222746   5.524   2.692   2.447
 7583WAT     OW22747   0.415   4.246   6.354
 7583WAT    HW122748   0.360   4.223   6.274
 7583WAT    HW222749   0.448   4.162   6.397
 7584WAT     OW22750   1.013   1.683   5.257
 7584WAT    HW122751   1.052   1.614   5.318
 7584WAT    HW222752   1.036   1.661   5.162
 7585WAT     OW22753   2.851   4.900   5.460
 7585WAT    HW122754   2.763   4.931   5.423
 7585WAT    HW222755   2.920   4.902   5.388
 7586WAT     OW22756   6.547   3.919   0.305
 7586WAT    HW122757   6.513   3.834   0.266
 7586WAT    HW222758   6.493   3.944   0.386
 7587WAT     OW22759   3.983   4.240   5.596
 7587WAT    HW122760   3.958   4.333   5.623
 7587WAT    HW222761   3.899   4.188   5.577
 7588WAT     OW22762   1.850   5.243   5.769
 7588WAT    HW122763   1.921   5.221   5.836
 7588WAT    HW222764   1.788   5.311   5.806
 7589WAT     OW22765   1.826   0.702   4.409
 7589WAT    HW122766   1.813   0.797   4.437
 7589WAT    HW222767   1.781   0.688   4.321
 7590WAT     OW22768   6.134   0.287   4.673
 7590WAT    HW122769   6.144   0.386   4.668
 7590WAT    HW222770   6.225   0.245   4.678
 7591WAT     OW22771   2.804   0.323   5.491
 7591WAT    HW122772   2.786   0.367   5.403
 7591WAT    HW222773   2.880   0.369   5.537
 7592WAT     OW22774   3.630   3.179   0.019
 7592WAT    HW122775   3.719   3.158   0.060
 7592WAT    HW222776   3.580   3.094   0.001
 7593WAT     OW22777   2.129   3.376   3.464
 7593WAT    HW122778   2.071   3.296   3.452
 7593WAT    HW222779   2.072   3.455   3.487
 7594WAT     OW22780   1.558   2.670   6.228
 7594WAT    HW122781   1.545   2.609   6.150
 7594WAT    HW222782   1.656   2.678   6.247
 7595WAT     OW22783   2.644   0.069   1.345
 7595WAT    HW122784   2.549   0.093   1.327
 7595WAT    HW222785   2.649  -0.027   1.375
 7596WAT     OW22786   3.150   4.502   0.601
 7596WAT    HW122787   3.091   4.559   0.544
 7596WAT    HW222788   3.095   4.434   0.650
 7597WAT     OW22789   2.758   4.512   2.776
 7597WAT    HW122790   2.750   4.485   2.872
 7597WAT    HW222791   2.849   4.489   2.742
 7598WAT     OW22792   0.986   2.857   6.193
 7598WAT    HW122793   0.931   2.800   6.131
 7598WAT    HW222794   1.026   2.933   6.143
 7599WAT     OW22795   5.683   2.758   0.796
 7599WAT    HW122796   5.615   2.824   0.828
 7599WAT    HW222797   5.756   2.807   0.748
 7600WAT     OW22798   4.503   2.307   0.110
 7600WAT    HW122799   4.573   2.341   0.173
 7600WAT    HW222800   4.418   2.358   0.125
 7601WAT     OW22801   4.127   4.905   1.776
 7601WAT    HW122802   4.136   4.848   1.858
 7601WAT    HW222803   4.204   4.969   1.771
 7602WAT     OW22804   1.427   2.834   2.082
 7602WAT    HW122805   1.518   2.870   2.063
 7602WAT    HW222806   1.364   2.861   2.009
 7603WAT     OW22807   5.404   0.408   0.270
 7603WAT    HW122808   5.340   0.404   0.194
 7603WAT    HW222809   5.457   0.493   0.265
 7604WAT     OW22810   2.826   6.013   2.543
 7604WAT    HW122811   2.823   6.038   2.446
 7604WAT    HW222812   2.766   6.074   2.595
 7605WAT     OW22813   4.613   1.885   2.349
 7605WAT    HW122814   4.568   1.919   2.431
 7605WAT    HW222815   4.544   1.848   2.286
 7606WAT     OW22816   6.236   2.614   0.619
 7606WAT    HW122817   6.224   2.541   0.687
 7606WAT    HW222818   6.224   2.577   0.527
 7607WAT     OW22819   5.317   2.236   4.276
 7607WAT    HW122820   5.278   2.238   4.184
 7607WAT    HW222821   5.377   2.157   4.286
 7608WAT     OW22822   2.138   1.174   1.235
 7608WAT    HW122823   2.167   1.108   1.166
 7608WAT    HW222824   2.084   1.126   1.305
 7609WAT     OW22825   3.174   6.564   4.798
 7609WAT    HW122826   3.222   6.640   4.842
 7609WAT    HW222827   3.238   6.509   4.745
 7610WAT     OW22828   4.357   2.229   1.586
 7610WAT    HW122829   4.417   2.157   1.621
 7610WAT    HW222830   4.285   2.188   1.530
 7611WAT     OW22831   2.420   5.555   5.521
 7611WAT    HW122832   2.444   5.522   5.612
 7611WAT    HW222833   2.385   5.649   5.528
 7612WAT     OW22834   4.856   3.805   3.588
 7612WAT    HW122835   4.813   3.855   3.513
 7612WAT    HW222836   4.942   3.850   3.614
 7613WAT     OW22837   2.066   5.183   5.937
 7613WAT    HW122838   2.155   5.194   5.982
 7613WAT    HW222839   2.032   5.091   5.955
 7614WAT     OW22840   2.920   6.008   1.624
 7614WAT    HW122841   2.990   6.028   1.556
 7614WAT    HW222842   2.871   5.924   1.599
 7615WAT     OW22843   2.116   3.453   6.356
 7615WAT    HW122844   2.207   3.420   6.384
 7615WAT    HW222845   2.046   3.406   6.408
 7616WAT     OW22846   4.408   4.447   5.670
 7616WAT    HW122847   4.346   4.368   5.675
 7616WAT    HW222848   4.407   4.484   5.577
 7617WAT     OW22849   4.636   0.633   4.813
 7617WAT    HW122850   4.557   0.645   4.753
 7617WAT    HW222851   4.719   0.628   4.758
 7618WAT     OW22852   2.388   3.535   0.358
 7618WAT    HW122853   2.460   3.602   0.341
 7618WAT    HW222854   2.303   3.582   0.383
 7619WAT     OW22855   3.688   5.643   4.284
 7619WAT    HW122856   3.654   5.708   4.352
 7619WAT    HW222857   3.714   5.558   4.329
 7620WAT     OW22858   3.081   2.295   5.674
 7620WAT    HW122859   3.120   2.382   5.705
 7620WAT    HW222860   3.052   2.242   5.754
 7621WAT     OW22861   4.721   6.686   2.498
 7621WAT    HW122862   4.807   6.655   2.457
 7621WAT    HW222863   4.737   6.710   2.594
 7622WAT     OW22864   0.484   2.099   4.078
 7622WAT    HW122865   0.545   2.085   4.155
 7622WAT    HW222866   0.515   2.045   3.999
 7623WAT     OW22867   3.468   3.175   6.282
 7623WAT    HW122868   3.515   3.235   6.347
 7623WAT    HW222869   3.444   3.089   6.328
 7624WAT     OW22870   0.151   3.638   5.871
 7624WAT    HW122871   0.091   3.650   5.791
 7624WAT    HW222872   0.187   3.727   5.899
 7625WAT     OW22873   1.702   4.636   3.726
 7625WAT    HW122874   1.618   4.662   3.773
 7625WAT    HW222875   1.704   4.680   3.636
 7626WAT     OW22876   3.410   0.935   4.587
 7626WAT    HW122877   3.375   0.877   4.661
 7626WAT    HW222878   3.344   0.936   4.512
 7627WAT     OW22879   4.443   3.479   4.853
 7627WAT    HW122880   4.511   3.428   4.906
 7627WAT    HW222881   4.459   3.577   4.863
 7628WAT     OW22882   0.542   4.176   5.318
 7628WAT    HW122883   0.454   4.133   5.298
 7628WAT    HW222884   0.594   4.116   5.380
 7629WAT     OW22885   5.911   6.076   4.501
 7629WAT    HW122886   5.875   6.103   4.412
 7629WAT    HW222887   5.968   6.148   4.538
 7630WAT     OW22888   2.686   4.797   4.712
 7630WAT    HW122889   2.635   4.712   4.725
 7630WAT    HW222890   2.655   4.842   4.628
 7631WAT     OW22891   2.738   5.740   6.315
 7631WAT    HW122892   2.773   5.822   6.359
 7631WAT    HW222893   2.667   5.765   6.249
 7632WAT     OW22894   6.140   0.965   0.380
 7632WAT    HW122895   6.167   1.052   0.421
 7632WAT    HW222896   6.166   0.965   0.283
 7633WAT     OW22897   5.903   3.663   2.104
 7633WAT    HW122898   5.856   3.598   2.163
 7633WAT    HW222899   5.857   3.668   2.015
 7634WAT     OW22900   2.995   5.586   4.504
 7634WAT    HW122901   3.083   5.606   4.460
 7634WAT    HW222902   2.951   5.509   4.457
 7635WAT     OW22903   4.582   0.553   2.731
 7635WAT    HW122904   4.559   0.456   2.728
 7635WAT    HW222905   4.502   0.605   2.762
 7636WAT     OW22906   0.631   6.160   4.711
 7636WAT    HW122907   0.726   6.129   4.703
 7636WAT    HW222908   0.628   6.240   4.771
 7637WAT     OW22909   6.248   1.467   6.164
 7637WAT    HW122910   6.272   1.380   6.208
 7637WAT    HW222911   6.150   1.483   6.175
 7638WAT     OW22912   2.873   5.050   1.176
 7638WAT    HW122913   2.884   4.955   1.204
 7638WAT    HW222914   2.910   5.063   1.084
 7639WAT     OW22915   6.342   2.109   5.151
 7639WAT    HW122916   6.379   2.016   5.157
 7639WAT    HW222917   6.380   2.155   5.071
 7640WAT     OW22918   0.307   2.612   4.792
 7640WAT    HW122919   0.267   2.657   4.712
 7640WAT    HW222920   0.361   2.533   4.762
 7641WAT     OW22921   2.650   1.717   2.665
 7641WAT    HW122922   2.687   1.624   2.662
 7641WAT    HW222923   2.704   1.776   2.605
 7642WAT     OW22924   2.620   2.477   3.911
 7642WAT    HW122925   2.679   2.413   3.862
 7642WAT    HW222926   2.529   2.437   3.923
 7643WAT     OW22927   0.985   5.084   5.982
 7643WAT    HW122928   0.955   5.034   6.063
 7643WAT    HW222929   0.978   5.182   5.999
 7644WAT     OW22930   6.503   5.678   5.373
 7644WAT    HW122931   6.430   5.614   5.398
 7644WAT    HW222932   6.584   5.625   5.346
 7645WAT     OW22933   6.168   1.882   5.482
 7645WAT    HW122934   6.088   1.825   5.501
 7645WAT    HW222935   6.243   1.856   5.543
 7646WAT     OW22936   1.346   2.369   0.377
 7646WAT    HW122937   1.373   2.300   0.310
 7646WAT    HW222938   1.336   2.327   0.467
 7647WAT     OW22939   4.903   0.963   5.640
 7647WAT    HW122940   4.859   0.874   5.630
 7647WAT    HW222941   4.987   0.965   5.585
 7648WAT     OW22942   0.683   1.887   4.571
 7648WAT    HW122943   0.620   1.833   4.627
 7648WAT    HW222944   0.706   1.837   4.488
 7649WAT     OW22945   1.501   1.997   3.198
 7649WAT    HW122946   1.547   1.917   3.162
 7649WAT    HW222947   1.447   1.972   3.278
 7650WAT     OW22948   3.691   0.019   3.920
 7650WAT    HW122949   3.719   0.062   3.834
 7650WAT    HW222950   3.644   0.087   3.976
 7651WAT     OW22951   0.863   4.084   1.314
 7651WAT    HW122952   0.810   4.108   1.232
 7651WAT    HW222953   0.838   3.992   1.343
 7652WAT     OW22954   4.533   4.663   0.796
 7652WAT    HW122955   4.501   4.757   0.785
 7652WAT    HW222956   4.600   4.658   0.870
 7653WAT     OW22957   5.426   5.618   1.300
 7653WAT    HW122958   5.463   5.701   1.260
 7653WAT    HW222959   5.341   5.639   1.348
 7654WAT     OW22960   1.640   1.309   3.808
 7654WAT    HW122961   1.597   1.240   3.867
 7654WAT    HW222962   1.675   1.265   3.726
 7655WAT     OW22963   5.431   2.533   3.536
 7655WAT    HW122964   5.410   2.582   3.621
 7655WAT    HW222965   5.381   2.574   3.460
 7656WAT     OW22966   3.751   3.963   2.954
 7656WAT    HW122967   3.829   3.999   3.005
 7656WAT    HW222968   3.687   3.920   3.018
 7657WAT     OW22969   1.091   2.478   4.510
 7657WAT    HW122970   1.057   2.540   4.581
 7657WAT    HW222971   1.154   2.412   4.551
 7658WAT     OW22972   2.088   0.376   1.934
 7658WAT    HW122973   2.050   0.288   1.962
 7658WAT    HW222974   2.143   0.414   2.008
 7659WAT     OW22975   5.328   2.650   4.409
 7659WAT    HW122976   5.309   2.683   4.317
 7659WAT    HW222977   5.372   2.561   4.405
 7660WAT     OW22978   0.991   2.964   4.953
 7660WAT    HW122979   0.899   2.995   4.928
 7660WAT    HW222980   1.005   2.978   5.051
 7661WAT     OW22981   0.162   2.410   3.058
 7661WAT    HW122982   0.078   2.425   3.110
 7661WAT    HW222983   0.143   2.421   2.960
 7662WAT     OW22984   3.784   4.927   0.919
 7662WAT    HW122985   3.712   4.997   0.912
 7662WAT    HW222986   3.810   4.897   0.827
 7663WAT     OW22987   1.873   3.477   5.959
 7663WAT    HW122988   1.787   3.427   5.948
 7663WAT    HW222989   1.933   3.427   6.021
 7664WAT     OW22990   5.372   2.270   1.854
 7664WAT    HW122991   5.424   2.336   1.908
 7664WAT    HW222992   5.428   2.240   1.776
 7665WAT     OW22993   4.772   6.236   1.953
 7665WAT    HW122994   4.869   6.257   1.968
 7665WAT    HW222995   4.764   6.159   1.890
 7666WAT     OW22996   2.203   6.330   2.474
 7666WAT    HW122997   2.181   6.360   2.567
 7666WAT    HW222998   2.144   6.253   2.449
 7667WAT     OW22999   5.705   1.373   2.875
 7667WAT    HW123000   5.697   1.320   2.960
 7667WAT    HW223001   5.777   1.335   2.818
 7668WAT     OW23002   1.676   5.667   1.151
 7668WAT    HW123003   1.601   5.723   1.117
 7668WAT    HW223004   1.666   5.654   1.250
 7669WAT     OW23005   0.502   6.079   2.312
 7669WAT    HW123006   0.504   6.179   2.311
 7669WAT    HW223007   0.424   6.049   2.366
 7670WAT     OW23008   1.692   3.325   0.976
 7670WAT    HW123009   1.747   3.244   0.955
 7670WAT    HW223010   1.597   3.298   0.991
 7671WAT     OW23011   6.083   5.579   0.653
 7671WAT    HW123012   6.032   5.509   0.604
 7671WAT    HW223013   6.072   5.667   0.606
 7672WAT     OW23014   3.231   0.270   2.212
 7672WAT    HW123015   3.203   0.266   2.116
 7672WAT    HW223016   3.325   0.236   2.220
 7673WAT     OW23017   3.975   1.655   0.569
 7673WAT    HW123018   3.979   1.755   0.582
 7673WAT    HW223019   4.054   1.626   0.515
 7674WAT     OW23020   3.444   3.246   0.208
 7674WAT    HW123021   3.517   3.229   0.142
 7674WAT    HW223022   3.358   3.209   0.174
 7675WAT     OW23023   5.677   0.539   4.518
 7675WAT    HW123024   5.677   0.595   4.435
 7675WAT    HW223025   5.624   0.455   4.502
 7676WAT     OW23026   5.095   3.907   0.677
 7676WAT    HW123027   5.072   3.963   0.757
 7676WAT    HW223028   5.025   3.836   0.665
 7677WAT     OW23029   3.979   4.112   3.048
 7677WAT    HW123030   3.922   4.193   3.062
 7677WAT    HW223031   4.034   4.124   2.965
 7678WAT     OW23032   4.482   0.750   0.906
 7678WAT    HW123033   4.502   0.833   0.853
 7678WAT    HW223034   4.391   0.717   0.882
 7679WAT     OW23035   4.320   4.113   1.796
 7679WAT    HW123036   4.253   4.178   1.833
 7679WAT    HW223037   4.276   4.057   1.726
 7680WAT     OW23038   5.401   3.436   5.760
 7680WAT    HW123039   5.418   3.448   5.662
 7680WAT    HW223040   5.403   3.525   5.805
 7681WAT     OW23041   3.091   3.273   6.381
 7681WAT    HW123042   3.109   3.175   6.371
 7681WAT    HW223043   3.117   3.320   6.296
 7682WAT     OW23044   5.118   5.081   4.950
 7682WAT    HW123045   5.098   5.126   4.862
 7682WAT    HW223046   5.195   5.018   4.938
 7683WAT     OW23047   1.335   5.370   1.197
 7683WAT    HW123048   1.347   5.430   1.276
 7683WAT    HW223049   1.246   5.325   1.203
 7684WAT     OW23050   5.517   3.810   4.319
 7684WAT    HW123051   5.425   3.837   4.290
 7684WAT    HW223052   5.542   3.859   4.402
 7685WAT     OW23053   1.456   1.300   6.253
 7685WAT    HW123054   1.441   1.242   6.173
 7685WAT    HW223055   1.397   1.380   6.248
 7686WAT     OW23056   2.795   0.147   0.772
 7686WAT    HW123057   2.888   0.171   0.800
 7686WAT    HW223058   2.792   0.134   0.672
 7687WAT     OW23059   5.814   5.716   1.315
 7687WAT    HW123060   5.893   5.723   1.375
 7687WAT    HW223061   5.844   5.698   1.221
 7688WAT     OW23062   1.070   0.756   3.961
 7688WAT    HW123063   0.977   0.789   3.976
 7688WAT    HW223064   1.126   0.831   3.926
 7689WAT     OW23065   4.983   5.547   3.017
 7689WAT    HW123066   5.027   5.459   3.033
 7689WAT    HW223067   5.044   5.607   2.966
 7690WAT     OW23068   4.930   3.758   6.561
 7690WAT    HW123069   5.003   3.735   6.625
 7690WAT    HW223070   4.844   3.718   6.593
 7691WAT     OW23071   3.138   3.817   5.754
 7691WAT    HW123072   3.096   3.737   5.795
 7691WAT    HW223073   3.075   3.857   5.688
 7692WAT     OW23074   3.655   0.904   1.871
 7692WAT    HW123075   3.687   0.854   1.791
 7692WAT    HW223076   3.591   0.975   1.842
 7693WAT     OW23077   0.819   1.058   3.562
 7693WAT    HW123078   0.873   0.975   3.551
 7693WAT    HW223079   0.794   1.069   3.659
 7694WAT     OW23080   6.292   5.697   1.840
 7694WAT    HW123081   6.337   5.633   1.902
 7694WAT    HW223082   6.227   5.647   1.782
 7695WAT     OW23083   5.197   3.930   4.537
 7695WAT    HW123084   5.256   3.851   4.553
 7695WAT    HW223085   5.234   4.010   4.586
 7696WAT     OW23086   6.532   6.302   5.928
 7696WAT    HW123087   6.498   6.339   6.015
 7696WAT    HW223088   6.455   6.266   5.875
 7697WAT     OW23089   4.242   0.477   1.903
 7697WAT    HW123090   4.181   0.504   1.828
 7697WAT    HW223091   4.193   0.417   1.966
 7698WAT     OW23092   5.401   3.180   5.413
 7698WAT    HW123093   5.316   3.221   5.382
 7698WAT    HW223094   5.386   3.132   5.500
 7699WAT     OW23095   5.408   1.572   1.615
 7699WAT    HW123096   5.344   1.511   1.661
 7699WAT    HW223097   5.442   1.528   1.531
 7700WAT     OW23098   6.631   3.697   4.977
 7700WAT    HW123099   6.539   3.723   4.948
 7700WAT    HW223100   6.634   3.691   5.077
 7701WAT     OW23101   2.328   1.928   2.922
 7701WAT    HW123102   2.298   1.975   2.840
 7701WAT    HW223103   2.299   1.979   3.003
 7702WAT     OW23104   4.685   6.187   4.394
 7702WAT    HW123105   4.632   6.104   4.376
 7702WAT    HW223106   4.675   6.213   4.490
 7703WAT     OW23107   5.041   4.713   0.526
 7703WAT    HW123108   4.987   4.646   0.476
 7703WAT    HW223109   4.983   4.791   0.550
 7704WAT     OW23110   3.622   1.389   3.927
 7704WAT    HW123111   3.638   1.330   3.848
 7704WAT    HW223112   3.578   1.474   3.897
 7705WAT     OW23113   5.131   4.815   3.008
 7705WAT    HW123114   5.131   4.741   3.074
 7705WAT    HW223115   5.053   4.804   2.945
 7706WAT     OW23116   0.033   5.099   2.535
 7706WAT    HW123117   0.115   5.043   2.542
 7706WAT    HW223118   0.049   5.175   2.471
 7707WAT     OW23119   6.439   4.062   2.940
 7707WAT    HW123120   6.408   3.993   2.874
 7707WAT    HW223121   6.407   4.152   2.912
 7708WAT     OW23122   0.556   1.142   5.667
 7708WAT    HW123123   0.530   1.228   5.623
 7708WAT    HW223124   0.623   1.161   5.738
 7709WAT     OW23125   2.442   6.588   1.625
 7709WAT    HW123126   2.377   6.535   1.571
 7709WAT    HW223127   2.520   6.531   1.648
 7710WAT     OW23128   3.731   1.775   4.510
 7710WAT    HW123129   3.702   1.771   4.415
 7710WAT    HW223130   3.669   1.834   4.562
 7711WAT     OW23131   0.176   2.586   6.537
 7711WAT    HW123132   0.185   2.532   6.453
 7711WAT    HW223133   0.087   2.569   6.578
 7712WAT     OW23134   0.559   1.335   0.250
 7712WAT    HW123135   0.462   1.324   0.270
 7712WAT    HW223136   0.606   1.247   0.259
 7713WAT     OW23137   3.423   0.101   0.446
 7713WAT    HW123138   3.506   0.104   0.502
 7713WAT    HW223139   3.442   0.142   0.357
 7714WAT     OW23140   3.646   2.204   3.639
 7714WAT    HW123141   3.703   2.239   3.565
 7714WAT    HW223142   3.631   2.106   3.626
 7715WAT     OW23143   3.554   5.492   2.173
 7715WAT    HW123144   3.642   5.538   2.159
 7715WAT    HW223145   3.561   5.397   2.141
 7716WAT     OW23146   5.012   2.732   5.128
 7716WAT    HW123147   5.100   2.690   5.103
 7716WAT    HW223148   4.942   2.703   5.064
 7717WAT     OW23149   5.617   3.318   4.302
 7717WAT    HW123150   5.604   3.312   4.204
 7717WAT    HW223151   5.714   3.308   4.324
 7718WAT     OW23152   0.890   5.601   3.536
 7718WAT    HW123153   0.969   5.625   3.593
 7718WAT    HW223154   0.921   5.553   3.454
 7719WAT     OW23155   3.627   3.884   5.082
 7719WAT    HW123156   3.680   3.931   5.012
 7719WAT    HW223157   3.584   3.951   5.143
 7720WAT     OW23158   5.083   6.413   6.033
 7720WAT    HW123159   5.112   6.337   5.974
 7720WAT    HW223160   5.153   6.430   6.102
 7721WAT     OW23161   2.334   3.447   0.999
 7721WAT    HW123162   2.340   3.409   1.091
 7721WAT    HW223163   2.239   3.446   0.969
 7722WAT     OW23164   4.269   6.487   6.159
 7722WAT    HW123165   4.335   6.505   6.232
 7722WAT    HW223166   4.221   6.401   6.178
 7723WAT     OW23167   2.695   4.539   5.811
 7723WAT    HW123168   2.706   4.628   5.767
 7723WAT    HW223169   2.609   4.498   5.782
 7724WAT     OW23170   4.110   0.261   5.168
 7724WAT    HW123171   4.166   0.210   5.102
 7724WAT    HW223172   4.092   0.204   5.248
 7725WAT     OW23173   2.868   2.973   0.331
 7725WAT    HW123174   2.901   2.967   0.425
 7725WAT    HW223175   2.904   2.897   0.278
 7726WAT     OW23176   2.291   5.851   1.695
 7726WAT    HW123177   2.264   5.864   1.599
 7726WAT    HW223178   2.213   5.817   1.747
 7727WAT     OW23179   0.910   6.452   3.211
 7727WAT    HW123180   0.908   6.458   3.111
 7727WAT    HW223181   0.864   6.368   3.241
 7728WAT     OW23182   2.445   2.025   2.534
 7728WAT    HW123183   2.507   2.068   2.600
 7728WAT    HW223184   2.477   2.042   2.441
 7729WAT     OW23185   5.298   2.170   6.377
 7729WAT    HW123186   5.323   2.146   6.283
 7729WAT    HW223187   5.375   2.215   6.421
 7730WAT     OW23188   0.093   3.371   0.140
 7730WAT    HW123189   0.179   3.380   0.091
 7730WAT    HW223190   0.106   3.313   0.221
 7731WAT     OW23191   5.720   0.753   0.574
 7731WAT    HW123192   5.647   0.797   0.626
 7731WAT    HW223193   5.773   0.824   0.526
 7732WAT     OW23194   5.502   3.243   5.937
 7732WAT    HW123195   5.459   3.154   5.920
 7732WAT    HW223196   5.462   3.311   5.876
 7733WAT     OW23197   2.291   0.285   0.555
 7733WAT    HW123198   2.346   0.269   0.473
 7733WAT    HW223199   2.351   0.288   0.635
 7734WAT     OW23200   2.016   1.997   0.373
 7734WAT    HW123201   2.045   2.089   0.398
 7734WAT    HW223202   2.022   1.986   0.274
 7735WAT     OW23203   5.230   3.617   4.177
 7735WAT    HW123204   5.235   3.711   4.211
 7735WAT    HW223205   5.156   3.610   4.110
 7736WAT     OW23206   5.350   0.381   0.544
 7736WAT    HW123207   5.365   0.384   0.446
 7736WAT    HW223208   5.266   0.331   0.564
 7737WAT     OW23209   6.302   5.751   1.045
 7737WAT    HW123210   6.279   5.750   1.143
 7737WAT    HW223211   6.389   5.798   1.033
 7738WAT     OW23212   2.942   1.634   1.365
 7738WAT    HW123213   3.018   1.625   1.430
 7738WAT    HW223214   2.913   1.543   1.336
 7739WAT     OW23215   0.023   4.565   4.228
 7739WAT    HW123216   0.116   4.600   4.237
 7739WAT    HW223217   0.019   4.471   4.262
 7740WAT     OW23218   1.883   2.271   4.589
 7740WAT    HW123219   1.796   2.321   4.581
 7740WAT    HW223220   1.867   2.173   4.575
 7741WAT     OW23221   2.148   1.104   6.302
 7741WAT    HW123222   2.205   1.114   6.384
 7741WAT    HW223223   2.118   1.195   6.272
 7742WAT     OW23224   6.446   2.547   6.256
 7742WAT    HW123225   6.372   2.499   6.209
 7742WAT    HW223226   6.534   2.517   6.219
 7743WAT     OW23227   4.452   0.783   1.688
 7743WAT    HW123228   4.511   0.724   1.633
 7743WAT    HW223229   4.461   0.878   1.658
 7744WAT     OW23230   4.519   4.457   6.307
 7744WAT    HW123231   4.500   4.538   6.363
 7744WAT    HW223232   4.604   4.472   6.256
 7745WAT     OW23233   3.927   4.182   1.151
 7745WAT    HW123234   3.835   4.222   1.148
 7745WAT    HW223235   3.975   4.200   1.065
 7746WAT     OW23236   1.428   2.850   4.511
 7746WAT    HW123237   1.363   2.779   4.485
 7746WAT    HW223238   1.495   2.861   4.437
 7747WAT     OW23239   6.013   2.418   5.360
 7747WAT    HW123240   6.003   2.492   5.426
 7747WAT    HW223241   5.975   2.334   5.397
 7748WAT     OW23242   3.814   6.064   2.816
 7748WAT    HW123243   3.745   6.015   2.763
 7748WAT    HW223244   3.884   6.101   2.754
 7749WAT     OW23245   5.171   2.464   1.836
 7749WAT    HW123246   5.242   2.394   1.832
 7749WAT    HW223247   5.092   2.428   1.885
 7750WAT     OW23248   1.668   4.348   1.532
 7750WAT    HW123249   1.705   4.280   1.468
 7750WAT    HW223250   1.742   4.404   1.569
 7751WAT     OW23251   6.268   6.397   2.791
 7751WAT    HW123252   6.221   6.479   2.758
 7751WAT    HW223253   6.364   6.399   2.763
 7752WAT     OW23254   2.113   1.665   0.767
 7752WAT    HW123255   2.053   1.646   0.690
 7752WAT    HW223256   2.162   1.751   0.751
 7753WAT     OW23257   3.375   2.183   2.176
 7753WAT    HW123258   3.361   2.179   2.077
 7753WAT    HW223259   3.355   2.276   2.208
 7754WAT     OW23260   5.787   5.552   3.030
 7754WAT    HW123261   5.816   5.522   2.939
 7754WAT    HW223262   5.716   5.623   3.020
 7755WAT     OW23263   3.292   1.822   3.598
 7755WAT    HW123264   3.272   1.913   3.562
 7755WAT    HW223265   3.229   1.755   3.557
 7756WAT     OW23266   5.392   6.123   6.043
 7756WAT    HW123267   5.439   6.193   6.097
 7756WAT    HW223268   5.382   6.041   6.098
 7757WAT     OW23269   1.146   0.510   6.477
 7757WAT    HW123270   1.108   0.456   6.402
 7757WAT    HW223271   1.092   0.593   6.489
 7758WAT     OW23272   1.208   4.942   3.660
 7758WAT    HW123273   1.159   4.988   3.734
 7758WAT    HW223274   1.213   4.844   3.681
 7759WAT     OW23275   0.162   1.390   6.046
 7759WAT    HW123276   0.109   1.394   6.131
 7759WAT    HW223277   0.258   1.370   6.068
 7760WAT     OW23278   6.600   1.316   1.583
 7760WAT    HW123279   6.537   1.351   1.514
 7760WAT    HW223280   6.575   1.221   1.605
 7761WAT     OW23281   6.048   5.454   5.362
 7761WAT    HW123282   5.992   5.448   5.444
 7761WAT    HW223283   6.042   5.368   5.311
 7762WAT     OW23284   2.804   1.364   4.091
 7762WAT    HW123285   2.728   1.321   4.138
 7762WAT    HW223286   2.867   1.294   4.058
 7763WAT     OW23287   5.002   4.794   2.141
 7763WAT    HW123288   5.033   4.889   2.136
 7763WAT    HW223289   5.020   4.749   2.053
 7764WAT     OW23290   2.224   6.184   0.949
 7764WAT    HW123291   2.252   6.110   0.888
 7764WAT    HW223292   2.174   6.253   0.897
 7765WAT     OW23293   5.625   2.476   6.332
 7765WAT    HW123294   5.708   2.512   6.375
 7765WAT    HW223295   5.648   2.431   6.246
 7766WAT     OW23296   2.481   1.068   3.219
 7766WAT    HW123297   2.454   0.972   3.216
 7766WAT    HW223298   2.494   1.103   3.126
 7767WAT     OW23299   1.105   5.450   4.175
 7767WAT    HW123300   1.150   5.410   4.096
 7767WAT    HW223301   1.082   5.546   4.156
 7768WAT     OW23302   2.671   3.179   2.961
 7768WAT    HW123303   2.731   3.151   2.886
 7768WAT    HW223304   2.596   3.114   2.969
 7769WAT     OW23305   5.935   2.224   1.742
 7769WAT    HW123306   5.856   2.241   1.802
 7769WAT    HW223307   5.951   2.305   1.685
 7770WAT     OW23308   1.526   3.666   2.399
 7770WAT    HW123309   1.559   3.747   2.350
 7770WAT    HW223310   1.432   3.647   2.372
 7771WAT     OW23311   6.566   1.287   3.710
 7771WAT    HW123312   6.631   1.224   3.752
 7771WAT    HW223313   6.602   1.380   3.715
 7772WAT     OW23314   2.728   3.085   4.484
 7772WAT    HW123315   2.765   3.058   4.573
 7772WAT    HW223316   2.747   3.181   4.467
 7773WAT     OW23317   2.895   5.420   2.425
 7773WAT    HW123318   2.884   5.474   2.508
 7773WAT    HW223319   2.840   5.460   2.351
 7774WAT     OW23320   6.459   3.965   3.191
 7774WAT    HW123321   6.456   4.005   3.100
 7774WAT    HW223322   6.412   3.876   3.191
 7775WAT     OW23323   5.920   2.120   1.350
 7775WAT    HW123324   5.861   2.197   1.378
 7775WAT    HW223325   6.011   2.154   1.328
 7776WAT     OW23326   5.312   4.864   3.938
 7776WAT    HW123327   5.302   4.850   3.840
 7776WAT    HW223328   5.249   4.805   3.987
 7777WAT     OW23329   2.667   4.714   3.387
 7777WAT    HW123330   2.649   4.627   3.434
 7777WAT    HW223331   2.593   4.732   3.322
 7778WAT     OW23332   2.258   2.770   5.412
 7778WAT    HW123333   2.331   2.746   5.475
 7778WAT    HW223334   2.293   2.770   5.318
 7779WAT     OW23335   3.446   3.945   1.493
 7779WAT    HW123336   3.543   3.940   1.514
 7779WAT    HW223337   3.397   3.872   1.541
 7780WAT     OW23338   3.319   6.064   4.162
 7780WAT    HW123339   3.385   6.111   4.221
 7780WAT    HW223340   3.255   6.011   4.218
 7781WAT     OW23341   0.766   4.213   4.561
 7781WAT    HW123342   0.835   4.235   4.630
 7781WAT    HW223343   0.696   4.284   4.558
 7782WAT     OW23344   0.331   2.775   5.287
 7782WAT    HW123345   0.393   2.720   5.343
 7782WAT    HW223346   0.312   2.728   5.201
 7783WAT     OW23347   1.581   1.966   3.591
 7783WAT    HW123348   1.631   2.038   3.542
 7783WAT    HW223349   1.618   1.877   3.566
 7784WAT     OW23350   3.963   4.792   6.508
 7784WAT    HW123351   3.888   4.747   6.558
 7784WAT    HW223352   4.038   4.811   6.571
 7785WAT     OW23353   5.745   5.619   4.289
 7785WAT    HW123354   5.755   5.716   4.266
 7785WAT    HW223355   5.668   5.607   4.351
 7786WAT     OW23356   4.446   0.631   3.926
 7786WAT    HW123357   4.396   0.708   3.965
 7786WAT    HW223358   4.529   0.663   3.881
 7787WAT     OW23359   4.775   4.366   1.046
 7787WAT    HW123360   4.721   4.282   1.037
 7787WAT    HW223361   4.735   4.425   1.115
 7788WAT     OW23362   0.264   1.735   0.614
 7788WAT    HW123363   0.325   1.798   0.662
 7788WAT    HW223364   0.240   1.774   0.524
 7789WAT     OW23365   3.212   3.521   1.998
 7789WAT    HW123366   3.179   3.569   2.079
 7789WAT    HW223367   3.274   3.448   2.025
 7790WAT     OW23368   4.183   4.545   5.343
 7790WAT    HW123369   4.168   4.449   5.368
 7790WAT    HW223370   4.220   4.550   5.251
 7791WAT     OW23371   3.270   6.381   5.235
 7791WAT    HW123372   3.296   6.330   5.153
 7791WAT    HW223373   3.253   6.477   5.211
 7792WAT     OW23374   3.039   4.323   3.100
 7792WAT    HW123375   2.961   4.266   3.074
 7792WAT    HW223376   3.006   4.410   3.135
 7793WAT     OW23377   3.675   2.529   2.349
 7793WAT    HW123378   3.671   2.559   2.444
 7793WAT    HW223379   3.716   2.438   2.345
 7794WAT     OW23380   2.709   4.181   4.116
 7794WAT    HW123381   2.631   4.137   4.071
 7794WAT    HW223382   2.715   4.276   4.086
 7795WAT     OW23383   2.747   2.067   3.869
 7795WAT    HW123384   2.829   2.011   3.883
 7795WAT    HW223385   2.730   2.122   3.951
 7796WAT     OW23386   3.757   4.678   6.673
 7796WAT    HW123387   3.660   4.695   6.685
 7796WAT    HW223388   3.808   4.718   6.749
 7797WAT     OW23389   2.772   1.465   3.701
 7797WAT    HW123390   2.695   1.430   3.754
 7797WAT    HW223391   2.851   1.481   3.761
 7798WAT     OW23392   5.420   4.216   2.124
 7798WAT    HW123393   5.344   4.214   2.189
 7798WAT    HW223394   5.496   4.268   2.162
 7799WAT     OW23395   1.102   0.377   4.251
 7799WAT    HW123396   1.101   0.476   4.239
 7799WAT    HW223397   1.029   0.336   4.197
 7800WAT     OW23398   1.923   3.236   5.628
 7800WAT    HW123399   1.892   3.158   5.682
 7800WAT    HW223400   1.846   3.276   5.580
 7801WAT     OW23401   6.436   5.862   0.671
 7801WAT    HW123402   6.482   5.774   0.658
 7801WAT    HW223403   6.413   5.900   0.581
 7802WAT     OW23404   6.416   0.664   4.559
 7802WAT    HW123405   6.435   0.620   4.647
 7802WAT    HW223406   6.501   0.676   4.508
 7803WAT     OW23407   1.049   5.732   3.019
 7803WAT    HW123408   0.950   5.727   3.007
 7803WAT    HW223409   1.093   5.729   2.929
 7804WAT     OW23410   3.433   3.282   3.788
 7804WAT    HW123411   3.392   3.362   3.744
 7804WAT    HW223412   3.527   3.271   3.757
 7805WAT     OW23413   5.529   3.911   1.388
 7805WAT    HW123414   5.569   3.964   1.313
 7805WAT    HW223415   5.443   3.871   1.358
 7806WAT     OW23416   3.513   5.052   5.090
 7806WAT    HW123417   3.478   5.111   5.018
 7806WAT    HW223418   3.573   5.105   5.150
 7807WAT     OW23419   5.802   3.653   2.872
 7807WAT    HW123420   5.797   3.730   2.936
 7807WAT    HW223421   5.805   3.567   2.922
 7808WAT     OW23422   5.875   3.073   2.426
 7808WAT    HW123423   5.778   3.058   2.445
 7808WAT    HW223424   5.930   3.006   2.477
 7809WAT     OW23425   3.614   3.609   0.513
 7809WAT    HW123426   3.563   3.564   0.439
 7809WAT    HW223427   3.709   3.621   0.485
 7810WAT     OW23428   0.754   3.761   5.803
 7810WAT    HW123429   0.833   3.790   5.751
 7810WAT    HW223430   0.784   3.713   5.886
 7811WAT     OW23431   0.379   0.816   5.819
 7811WAT    HW123432   0.475   0.812   5.848
 7811WAT    HW223433   0.349   0.911   5.817
 7812WAT     OW23434   1.609   0.297   2.760
 7812WAT    HW123435   1.549   0.377   2.769
 7812WAT    HW223436   1.694   0.325   2.715
 7813WAT     OW23437   5.997   1.613   5.168
 7813WAT    HW123438   5.918   1.610   5.230
 7813WAT    HW223439   5.967   1.597   5.074
 7814WAT     OW23440   0.640   2.220   6.013
 7814WAT    HW123441   0.608   2.308   5.980
 7814WAT    HW223442   0.613   2.209   6.109
 7815WAT     OW23443   4.158   3.889   1.144
 7815WAT    HW123444   4.212   3.932   1.071
 7815WAT    HW223445   4.159   3.948   1.225
 7816WAT     OW23446   4.986   1.797   2.541
 7816WAT    HW123447   5.032   1.810   2.454
 7816WAT    HW223448   4.903   1.742   2.527
 7817WAT     OW23449   0.782   4.776   5.143
 7817WAT    HW123450   0.874   4.750   5.173
 7817WAT    HW223451   0.776   4.876   5.139
 7818WAT     OW23452   2.663   6.258   6.553
 7818WAT    HW123453   2.619   6.310   6.480
 7818WAT    HW223454   2.762   6.268   6.546
 7819WAT     OW23455   2.026   6.305   2.182
 7819WAT    HW123456   2.095   6.375   2.199
 7819WAT    HW223457   2.058   6.242   2.111
 7820WAT     OW23458   0.525   5.607   4.686
 7820WAT    HW123459   0.545   5.656   4.771
 7820WAT    HW223460   0.607   5.559   4.656
 7821WAT     OW23461   3.325   3.555   0.815
 7821WAT    HW123462   3.362   3.487   0.752
 7821WAT    HW223463   3.400   3.615   0.846
 7822WAT     OW23464   3.549   5.975   3.131
 7822WAT    HW123465   3.607   6.036   3.185
 7822WAT    HW223466   3.457   6.013   3.125
 7823WAT     OW23467   1.815   4.977   3.015
 7823WAT    HW123468   1.715   4.982   3.018
 7823WAT    HW223469   1.852   4.986   3.107
 7824WAT     OW23470   1.599   2.203   0.592
 7824WAT    HW123471   1.614   2.106   0.609
 7824WAT    HW223472   1.501   2.223   0.600
 7825WAT     OW23473   3.793   1.196   5.865
 7825WAT    HW123474   3.745   1.246   5.936
 7825WAT    HW223475   3.838   1.116   5.905
 7826WAT     OW23476   2.404   1.754   2.558
 7826WAT    HW123477   2.489   1.728   2.604
 7826WAT    HW223478   2.399   1.854   2.551
 7827WAT     OW23479   5.098   5.497   2.259
 7827WAT    HW123480   5.035   5.457   2.325
 7827WAT    HW223481   5.184   5.447   2.261
 7828WAT     OW23482   4.780   4.648   5.308
 7828WAT    HW123483   4.794   4.741   5.272
 7828WAT    HW223484   4.699   4.608   5.266
 7829WAT     OW23485   0.287   3.533   1.001
 7829WAT    HW123486   0.254   3.524   0.907
 7829WAT    HW223487   0.213   3.509   1.064
 7830WAT     OW23488   0.687   1.440   1.269
 7830WAT    HW123489   0.782   1.469   1.269
 7830WAT    HW223490   0.641   1.477   1.350
 7831WAT     OW23491   5.095   3.448   1.798
 7831WAT    HW123492   5.134   3.521   1.742
 7831WAT    HW223493   5.114   3.467   1.895
 7832WAT     OW23494   3.534   4.553   5.545
 7832WAT    HW123495   3.628   4.588   5.550
 7832WAT    HW223496   3.474   4.611   5.600
 7833WAT     OW23497   0.810   3.400   5.416
 7833WAT    HW123498   0.872   3.478   5.413
 7833WAT    HW223499   0.816   3.349   5.330
 7834WAT     OW23500   1.325   3.192   4.290
 7834WAT    HW123501   1.406   3.206   4.233
 7834WAT    HW223502   1.322   3.264   4.361
 7835WAT     OW23503   3.322   6.172   4.529
 7835WAT    HW123504   3.237   6.183   4.478
 7835WAT    HW223505   3.332   6.247   4.594
 7836WAT     OW23506   2.203   1.278   4.126
 7836WAT    HW123507   2.203   1.373   4.093
 7836WAT    HW223508   2.170   1.276   4.220
 7837WAT     OW23509   3.292   5.648   3.397
 7837WAT    HW123510   3.233   5.567   3.401
 7837WAT    HW223511   3.265   5.712   3.469
 7838WAT     OW23512   3.234   6.167   3.925
 7838WAT    HW123513   3.265   6.142   4.017
 7838WAT    HW223514   3.301   6.137   3.858
 7839WAT     OW23515   1.125   0.751   5.518
 7839WAT    HW123516   1.215   0.717   5.488
 7839WAT    HW223517   1.138   0.822   5.587
 7840WAT     OW23518   2.187   3.763   3.645
 7840WAT    HW123519   2.133   3.814   3.712
 7840WAT    HW223520   2.285   3.772   3.666
 7841WAT     OW23521   6.282   3.307   5.782
 7841WAT    HW123522   6.315   3.392   5.822
 7841WAT    HW223523   6.182   3.306   5.784
 7842WAT     OW23524   3.057   4.132   2.310
 7842WAT    HW123525   2.967   4.139   2.354
 7842WAT    HW223526   3.054   4.176   2.220
 7843WAT     OW23527   1.431   1.664   3.374
 7843WAT    HW123528   1.524   1.662   3.409
 7843WAT    HW223529   1.390   1.754   3.392
 7844WAT     OW23530   3.629   0.591   5.023
 7844WAT    HW123531   3.620   0.691   5.022
 7844WAT    HW223532   3.665   0.560   4.935
 7845WAT     OW23533   1.391   0.681   5.494
 7845WAT    HW123534   1.375   0.636   5.582
 7845WAT    HW223535   1.488   0.676   5.471
 7846WAT     OW23536   0.577   3.475   0.917
 7846WAT    HW123537   0.484   3.497   0.945
 7846WAT    HW223538   0.601   3.527   0.835
 7847WAT     OW23539   2.726   5.350   6.122
 7847WAT    HW123540   2.767   5.415   6.058
 7847WAT    HW223541   2.785   5.269   6.130
 7848WAT     OW23542   5.519   4.741   1.929
 7848WAT    HW123543   5.583   4.685   1.983
 7848WAT    HW223544   5.541   4.837   1.942
 7849WAT     OW23545   3.473   3.846   1.926
 7849WAT    HW123546   3.436   3.857   2.019
 7849WAT    HW223547   3.566   3.812   1.931
 7850WAT     OW23548   0.158   2.944   5.420
 7850WAT    HW123549   0.213   2.879   5.367
 7850WAT    HW223550   0.061   2.919   5.415
 7851WAT     OW23551   0.608   5.588   0.132
 7851WAT    HW123552   0.540   5.643   0.181
 7851WAT    HW223553   0.582   5.492   0.137
 7852WAT     OW23554   5.248   0.205   4.690
 7852WAT    HW123555   5.210   0.162   4.608
 7852WAT    HW223556   5.177   0.258   4.736
 7853WAT     OW23557   1.832   1.493   3.866
 7853WAT    HW123558   1.761   1.425   3.846
 7853WAT    HW223559   1.915   1.470   3.816
 7854WAT     OW23560   2.775   1.740   4.468
 7854WAT    HW123561   2.721   1.657   4.480
 7854WAT    HW223562   2.754   1.805   4.540
 7855WAT     OW23563   3.106   4.406   3.979
 7855WAT    HW123564   3.064   4.321   4.011
 7855WAT    HW223565   3.095   4.414   3.880
 7856WAT     OW23566   4.227   5.652   1.707
 7856WAT    HW123567   4.321   5.629   1.680
 7856WAT    HW223568   4.164   5.622   1.636
 7857WAT     OW23569   3.719   6.149   3.278
 7857WAT    HW123570   3.745   6.195   3.194
 7857WAT    HW223571   3.665   6.211   3.335
 7858WAT     OW23572   4.532   3.000   3.094
 7858WAT    HW123573   4.584   2.915   3.087
 7858WAT    HW223574   4.440   2.981   3.130
 7859WAT     OW23575   3.482   3.164   0.470
 7859WAT    HW123576   3.469   3.190   0.375
 7859WAT    HW223577   3.422   3.086   0.492
 7860WAT     OW23578   1.213   1.962   5.418
 7860WAT    HW123579   1.129   1.918   5.450
 7860WAT    HW223580   1.190   2.038   5.358
 7861WAT     OW23581   1.548   4.051   6.086
 7861WAT    HW123582   1.508   4.091   6.169
 7861WAT    HW223583   1.587   3.962   6.107
 7862WAT     OW23584   6.439   5.873   1.685
 7862WAT    HW123585   6.447   5.835   1.593
 7862WAT    HW223586   6.394   5.806   1.745
 7863WAT     OW23587   5.725   4.255   4.812
 7863WAT    HW123588   5.765   4.345   4.831
 7863WAT    HW223589   5.758   4.189   4.879
 7864WAT     OW23590   0.134   3.523   2.654
 7864WAT    HW123591   0.102   3.615   2.675
 7864WAT    HW223592   0.234   3.520   2.662
 7865WAT     OW23593   5.474   3.470   4.747
 7865WAT    HW123594   5.374   3.469   4.746
 7865WAT    HW223595   5.508   3.487   4.655
 7866WAT     OW23596   5.457   3.500   5.210
 7866WAT    HW123597   5.505   3.447   5.140
 7866WAT    HW223598   5.369   3.531   5.174
 7867WAT     OW23599   3.263   3.720   3.547
 7867WAT    HW123600   3.250   3.712   3.448
 7867WAT    HW223601   3.204   3.791   3.583
 7868WAT     OW23602   3.013   2.393   4.424
 7868WAT    HW123603   2.953   2.406   4.345
 7868WAT    HW223604   2.964   2.416   4.508
 7869WAT     OW23605   1.073   1.462   4.615
 7869WAT    HW123606   0.995   1.511   4.656
 7869WAT    HW223607   1.038   1.393   4.552
 7870WAT     OW23608   0.480   1.376   5.557
 7870WAT    HW123609   0.443   1.434   5.629
 7870WAT    HW223610   0.425   1.387   5.474
 7871WAT     OW23611   2.063   0.044   2.283
 7871WAT    HW123612   2.108   0.124   2.322
 7871WAT    HW223613   2.019   0.069   2.197
 7872WAT     OW23614   4.693   4.685   1.018
 7872WAT    HW123615   4.670   4.624   1.093
 7872WAT    HW223616   4.789   4.713   1.025
 7873WAT     OW23617   6.426   5.533   2.011
 7873WAT    HW123618   6.495   5.470   1.976
 7873WAT    HW223619   6.408   5.513   2.107
 7874WAT     OW23620   0.528   3.126   3.099
 7874WAT    HW123621   0.495   3.039   3.133
 7874WAT    HW223622   0.508   3.134   3.001
 7875WAT     OW23623   4.853   5.363   4.597
 7875WAT    HW123624   4.758   5.353   4.627
 7875WAT    HW223625   4.880   5.459   4.603
 7876WAT     OW23626   0.134   2.824   0.313
 7876WAT    HW123627   0.082   2.804   0.230
 7876WAT    HW223628   0.231   2.835   0.289
 7877WAT     OW23629   5.675   5.185   0.176
 7877WAT    HW123630   5.732   5.266   0.176
 7877WAT    HW223631   5.593   5.201   0.120
 7878WAT     OW23632   0.596   6.374   4.882
 7878WAT    HW123633   0.543   6.314   4.941
 7878WAT    HW223634   0.638   6.447   4.936
 7879WAT     OW23635   3.691   3.331   5.548
 7879WAT    HW123636   3.745   3.336   5.464
 7879WAT    HW223637   3.750   3.307   5.625
 7880WAT     OW23638   0.127   5.556   2.376
 7880WAT    HW123639   0.204   5.616   2.399
 7880WAT    HW223640   0.046   5.584   2.428
 7881WAT     OW23641   2.483   6.087   2.889
 7881WAT    HW123642   2.541   6.030   2.947
 7881WAT    HW223643   2.389   6.054   2.893
 7882WAT     OW23644   6.517   3.633   2.102
 7882WAT    HW123645   6.453   3.561   2.128
 7882WAT    HW223646   6.479   3.684   2.025
 7883WAT     OW23647   5.357   6.420   4.771
 7883WAT    HW123648   5.394   6.405   4.679
 7883WAT    HW223649   5.365   6.517   4.794
 7884WAT     OW23650   5.080   0.798   0.296
 7884WAT    HW123651   5.069   0.706   0.258
 7884WAT    HW223652   4.990   0.833   0.325
 7885WAT     OW23653   6.233   6.201   0.636
 7885WAT    HW123654   6.173   6.264   0.685
 7885WAT    HW223655   6.234   6.113   0.682
 7886WAT     OW23656   2.969   5.205   2.615
 7886WAT    HW123657   2.929   5.276   2.558
 7886WAT    HW223658   2.905   5.128   2.623
 7887WAT     OW23659   5.628   4.909   5.253
 7887WAT    HW123660   5.666   4.828   5.208
 7887WAT    HW223661   5.573   4.881   5.331
 7888WAT     OW23662   2.243   4.462   2.252
 7888WAT    HW123663   2.284   4.520   2.324
 7888WAT    HW223664   2.194   4.386   2.295
 7889WAT     OW23665   3.419   3.919   2.183
 7889WAT    HW123666   3.492   3.983   2.159
 7889WAT    HW223667   3.429   3.892   2.279
 7890WAT     OW23668   2.525   0.024   5.100
 7890WAT    HW123669   2.490  -0.038   5.029
 7890WAT    HW223670   2.619  -0.002   5.123
 7891WAT     OW23671   5.840   4.562   0.532
 7891WAT    HW123672   5.888   4.477   0.552
 7891WAT    HW223673   5.794   4.555   0.443
 7892WAT     OW23674   0.575   3.054   3.541
 7892WAT    HW123675   0.650   3.114   3.513
 7892WAT    HW223676   0.499   3.065   3.478
 7893WAT     OW23677   4.095   2.902   1.654
 7893WAT    HW123678   4.160   2.839   1.696
 7893WAT    HW223679   4.002   2.867   1.664
 7894WAT     OW23680   0.021   5.362   3.113
 7894WAT    HW123681  -0.053   5.421   3.146
 7894WAT    HW223682   0.015   5.273   3.156
 7895WAT     OW23683   5.115   3.011   2.040
 7895WAT    HW123684   5.188   3.068   2.003
 7895WAT    HW223685   5.147   2.917   2.049
 7896WAT     OW23686   0.304   1.167   1.553
 7896WAT    HW123687   0.225   1.106   1.546
 7896WAT    HW223688   0.382   1.126   1.506
 7897WAT     OW23689   4.051   3.783   5.692
 7897WAT    HW123690   4.062   3.704   5.752
 7897WAT    HW223691   4.095   3.863   5.734
 7898WAT     OW23692   0.890   4.294   2.579
 7898WAT    HW123693   0.797   4.304   2.614
 7898WAT    HW223694   0.955   4.294   2.655
 7899WAT     OW23695   6.460   5.957   4.302
 7899WAT    HW123696   6.507   5.941   4.389
 7899WAT    HW223697   6.383   5.894   4.294
 7900WAT     OW23698   1.928   2.201   2.374
 7900WAT    HW123699   1.924   2.184   2.472
 7900WAT    HW223700   1.941   2.115   2.325
 7901WAT     OW23701   4.762   2.305   4.040
 7901WAT    HW123702   4.762   2.389   3.985
 7901WAT    HW223703   4.824   2.238   3.998
 7902WAT     OW23704   0.318   4.036   5.260
 7902WAT    HW123705   0.227   4.050   5.300
 7902WAT    HW223706   0.308   4.025   5.161
 7903WAT     OW23707   3.435   6.535   2.603
 7903WAT    HW123708   3.442   6.491   2.693
 7903WAT    HW223709   3.352   6.502   2.557
 7904WAT     OW23710   0.183   0.479   0.063
 7904WAT    HW123711   0.091   0.478   0.102
 7904WAT    HW223712   0.249   0.506   0.134
 7905WAT     OW23713   2.520   0.698   1.833
 7905WAT    HW123714   2.545   0.715   1.928
 7905WAT    HW223715   2.421   0.691   1.825
 7906WAT     OW23716   3.751   2.121   2.994
 7906WAT    HW123717   3.684   2.062   3.039
 7906WAT    HW223718   3.710   2.161   2.912
 7907WAT     OW23719   6.213   1.137   1.594
 7907WAT    HW123720   6.125   1.147   1.547
 7907WAT    HW223721   6.219   1.046   1.635
 7908WAT     OW23722   3.064   2.374   0.757
 7908WAT    HW123723   3.040   2.453   0.815
 7908WAT    HW223724   3.031   2.290   0.800
 7909WAT     OW23725   2.688   0.002   3.589
 7909WAT    HW123726   2.596   0.042   3.589
 7909WAT    HW223727   2.681  -0.097   3.600
 7910WAT     OW23728   1.873   6.273   3.437
 7910WAT    HW123729   1.958   6.270   3.384
 7910WAT    HW223730   1.801   6.313   3.381
 7911WAT     OW23731   1.029   1.802   0.862
 7911WAT    HW123732   1.055   1.719   0.911
 7911WAT    HW223733   1.099   1.824   0.794
 7912WAT     OW23734   4.718   1.116   2.811
 7912WAT    HW123735   4.669   1.201   2.791
 7912WAT    HW223736   4.807   1.117   2.766
 7913WAT     OW23737   5.737   4.413   1.755
 7913WAT    HW123738   5.726   4.372   1.665
 7913WAT    HW223739   5.652   4.402   1.807
 7914WAT     OW23740   6.502   1.259   0.260
 7914WAT    HW123741   6.511   1.192   0.334
 7914WAT    HW223742   6.479   1.212   0.175
 7915WAT     OW23743   3.655   4.062   2.177
 7915WAT    HW123744   3.629   4.104   2.264
 7915WAT    HW223745   3.715   3.984   2.194
 7916WAT     OW23746   3.040   3.890   1.706
 7916WAT    HW123747   2.959   3.843   1.743
 7916WAT    HW223748   3.093   3.928   1.781
 7917WAT     OW23749   3.728   4.575   4.119
 7917WAT    HW123750   3.769   4.484   4.125
 7917WAT    HW223751   3.799   4.643   4.099
 7918WAT     OW23752   3.550   2.430   5.310
 7918WAT    HW123753   3.636   2.406   5.264
 7918WAT    HW223754   3.537   2.368   5.388
 7919WAT     OW23755   5.771   1.700   4.310
 7919WAT    HW123756   5.763   1.749   4.397
 7919WAT    HW223757   5.726   1.610   4.319
 7920WAT     OW23758   2.087   3.195   0.993
 7920WAT    HW123759   2.068   3.293   1.000
 7920WAT    HW223760   2.150   3.179   0.917
 7921WAT     OW23761   1.581   6.289   2.169
 7921WAT    HW123762   1.607   6.386   2.167
 7921WAT    HW223763   1.566   6.261   2.263
 7922WAT     OW23764   5.837   3.694   5.719
 7922WAT    HW123765   5.792   3.721   5.634
 7922WAT    HW223766   5.921   3.644   5.698
 7923WAT     OW23767   5.461   0.147   3.585
 7923WAT    HW123768   5.510   0.135   3.499
 7923WAT    HW223769   5.518   0.197   3.650
 7924WAT     OW23770   3.036   6.688   6.099
 7924WAT    HW123771   3.011   6.738   6.182
 7924WAT    HW223772   2.997   6.734   6.019
 7925WAT     OW23773   0.592   2.720   3.357
 7925WAT    HW123774   0.686   2.733   3.325
 7925WAT    HW223775   0.587   2.742   3.454
 7926WAT     OW23776   4.272   5.627   1.974
 7926WAT    HW123777   4.275   5.718   2.015
 7926WAT    HW223778   4.249   5.635   1.877
 7927WAT     OW23779   6.586   3.940   1.470
 7927WAT    HW123780   6.586   3.996   1.387
 7927WAT    HW223781   6.510   3.968   1.528
 7928WAT     OW23782   3.190   6.226   6.441
 7928WAT    HW123783   3.232   6.135   6.434
 7928WAT    HW223784   3.240   6.281   6.508
 7929WAT     OW23785   4.372   5.829   2.899
 7929WAT    HW123786   4.430   5.910   2.904
 7929WAT    HW223787   4.342   5.814   2.805
 7930WAT     OW23788   5.655   5.283   5.067
 7930WAT    HW123789   5.665   5.294   4.968
 7930WAT    HW223790   5.722   5.217   5.100
 7931WAT     OW23791   0.383   1.512   3.955
 7931WAT    HW123792   0.323   1.480   4.028
 7931WAT    HW223793   0.377   1.612   3.948
 7932WAT     OW23794   2.466   3.519   5.040
 7932WAT    HW123795   2.519   3.528   4.956
 7932WAT    HW223796   2.528   3.507   5.118
 7933WAT     OW23797   0.368   1.290   3.083
 7933WAT    HW123798   0.463   1.257   3.085
 7933WAT    HW223799   0.313   1.235   3.146
 7934WAT     OW23800   1.585   0.049   2.650
 7934WAT    HW123801   1.591   0.140   2.692
 7934WAT    HW223802   1.674   0.024   2.612
 7935WAT     OW23803   0.972   4.564   3.795
 7935WAT    HW123804   0.885   4.537   3.753
 7935WAT    HW223805   1.010   4.486   3.845
 7936WAT     OW23806   1.948   0.910   6.323
 7936WAT    HW123807   1.980   0.849   6.396
 7936WAT    HW223808   2.017   0.979   6.305
 7937WAT     OW23809   5.015   4.144   1.914
 7937WAT    HW123810   5.055   4.132   1.823
 7937WAT    HW223811   4.957   4.226   1.915
 7938WAT     OW23812   4.521   3.436   1.182
 7938WAT    HW123813   4.527   3.523   1.133
 7938WAT    HW223814   4.504   3.454   1.279
 7939WAT     OW23815   1.746   2.838   0.177
 7939WAT    HW123816   1.670   2.850   0.241
 7939WAT    HW223817   1.830   2.823   0.229
 7940WAT     OW23818   6.494   6.500   0.321
 7940WAT    HW123819   6.490   6.455   0.410
 7940WAT    HW223820   6.502   6.432   0.249
 7941WAT     OW23821   0.975   2.359   2.267
 7941WAT    HW123822   0.895   2.332   2.213
 7941WAT    HW223823   1.010   2.447   2.234
 7942WAT     OW23824   5.349   1.898   2.402
 7942WAT    HW123825   5.396   1.841   2.469
 7942WAT    HW223826   5.333   1.989   2.441
 7943WAT     OW23827   3.317   3.764   5.318
 7943WAT    HW123828   3.404   3.714   5.326
 7943WAT    HW223829   3.284   3.759   5.224
 7944WAT     OW23830   6.510   0.100   2.750
 7944WAT    HW123831   6.493   0.196   2.773
 7944WAT    HW223832   6.562   0.057   2.824
 7945WAT     OW23833   0.942   5.989   0.541
 7945WAT    HW123834   0.910   5.899   0.512
 7945WAT    HW223835   0.963   5.988   0.638
 7946WAT     OW23836   2.708   4.080   1.500
 7946WAT    HW123837   2.754   4.140   1.565
 7946WAT    HW223838   2.756   3.992   1.496
 7947WAT     OW23839   3.673   6.249   5.788
 7947WAT    HW123840   3.714   6.338   5.767
 7947WAT    HW223841   3.576   6.261   5.810
 7948WAT     OW23842   5.697   1.474   4.730
 7948WAT    HW123843   5.641   1.546   4.691
 7948WAT    HW223844   5.759   1.513   4.799
 7949WAT     OW23845   4.746   3.437   5.450
 7949WAT    HW123846   4.805   3.512   5.477
 7949WAT    HW223847   4.660   3.441   5.501
 7950WAT     OW23848   4.324   4.431   1.607
 7950WAT    HW123849   4.395   4.363   1.586
 7950WAT    HW223850   4.338   4.467   1.699
 7951WAT     OW23851   3.151   1.491   2.572
 7951WAT    HW123852   3.117   1.499   2.665
 7951WAT    HW223853   3.250   1.477   2.574
 7952WAT     OW23854   5.414   1.277   3.226
 7952WAT    HW123855   5.380   1.365   3.190
 7952WAT    HW223856   5.368   1.202   3.179
 7953WAT     OW23857   3.229   0.373   3.455
 7953WAT    HW123858   3.307   0.318   3.424
 7953WAT    HW223859   3.160   0.313   3.495
 7954WAT     OW23860   0.110   6.040   0.651
 7954WAT    HW123861   0.149   6.027   0.560
 7954WAT    HW223862   0.087   5.951   0.690
 7955WAT     OW23863   5.206   0.924   0.507
 7955WAT    HW123864   5.147   0.881   0.438
 7955WAT    HW223865   5.299   0.887   0.499
 7956WAT     OW23866   2.801   4.804   2.407
 7956WAT    HW123867   2.854   4.722   2.430
 7956WAT    HW223868   2.710   4.776   2.377
 7957WAT     OW23869   5.285   2.447   0.150
 7957WAT    HW123870   5.210   2.458   0.084
 7957WAT    HW223871   5.251   2.402   0.232
 7958WAT     OW23872   6.536   4.088   1.245
 7958WAT    HW123873   6.585   4.038   1.174
 7958WAT    HW223874   6.438   4.084   1.226
 7959WAT     OW23875   5.872   0.139   5.497
 7959WAT    HW123876   5.894   0.233   5.521
 7959WAT    HW223877   5.863   0.130   5.398
 7960WAT     OW23878   4.198   5.651   5.987
 7960WAT    HW123879   4.140   5.716   6.035
 7960WAT    HW223880   4.145   5.603   5.918
 7961WAT     OW23881   3.360   0.765   3.915
 7961WAT    HW123882   3.412   0.727   3.838
 7961WAT    HW223883   3.362   0.701   3.991
 7962WAT     OW23884   0.117   5.520   4.818
 7962WAT    HW123885   0.035   5.533   4.763
 7962WAT    HW223886   0.102   5.448   4.885
 7963WAT     OW23887   2.042   0.225   4.719
 7963WAT    HW123888   1.952   0.259   4.692
 7963WAT    HW223889   2.112   0.291   4.691
 7964WAT     OW23890   6.335   4.585   6.039
 7964WAT    HW123891   6.378   4.675   6.043
 7964WAT    HW223892   6.253   4.585   6.096
 7965WAT     OW23893   4.424   0.101   5.665
 7965WAT    HW123894   4.502   0.155   5.697
 7965WAT    HW223895   4.357   0.091   5.738
 7966WAT     OW23896   4.100   2.584   6.614
 7966WAT    HW123897   4.151   2.632   6.686
 7966WAT    HW223898   4.105   2.486   6.630
 7967WAT     OW23899   3.622   5.873   1.325
 7967WAT    HW123900   3.593   5.819   1.246
 7967WAT    HW223901   3.721   5.868   1.335
 7968WAT     OW23902   4.959   0.720   4.171
 7968WAT    HW123903   5.009   0.633   4.166
 7968WAT    HW223904   5.017   0.794   4.137
 7969WAT     OW23905   4.270   3.603   6.061
 7969WAT    HW123906   4.357   3.649   6.044
 7969WAT    HW223907   4.239   3.625   6.153
 7970WAT     OW23908   5.323   2.689   3.337
 7970WAT    HW123909   5.370   2.647   3.259
 7970WAT    HW223910   5.367   2.775   3.361
 7971WAT     OW23911   0.028   0.002   4.670
 7971WAT    HW123912  -0.009   0.092   4.693
 7971WAT    HW223913   0.049  -0.048   4.753
 7972WAT     OW23914   1.349   4.718   1.028
 7972WAT    HW123915   1.411   4.770   0.969
 7972WAT    HW223916   1.258   4.715   0.987
 7973WAT     OW23917   4.066   4.652   0.504
 7973WAT    HW123918   4.093   4.737   0.549
 7973WAT    HW223919   3.967   4.651   0.492
 7974WAT     OW23920   5.619   2.806   5.523
 7974WAT    HW123921   5.526   2.814   5.489
 7974WAT    HW223922   5.682   2.798   5.446
 7975WAT     OW23923   4.084   4.337   1.501
 7975WAT    HW123924   4.105   4.258   1.443
 7975WAT    HW223925   4.168   4.369   1.546
 7976WAT     OW23926   2.948   5.798   3.557
 7976WAT    HW123927   2.885   5.804   3.480
 7976WAT    HW223928   2.956   5.703   3.587
 7977WAT     OW23929   5.712   5.276   4.794
 7977WAT    HW123930   5.656   5.344   4.746
 7977WAT    HW223931   5.729   5.199   4.733
 7978WAT     OW23932   0.412   2.854   0.233
 7978WAT    HW123933   0.492   2.807   0.270
 7978WAT    HW223934   0.436   2.948   0.208
 7979WAT     OW23935   5.023   4.269   1.071
 7979WAT    HW123936   4.930   4.306   1.064
 7979WAT    HW223937   5.088   4.334   1.030
 7980WAT     OW23938   5.995   1.507   2.613
 7980WAT    HW123939   6.092   1.505   2.591
 7980WAT    HW223940   5.966   1.601   2.632
 7981WAT     OW23941   4.532   5.895   6.117
 7981WAT    HW123942   4.625   5.858   6.125
 7981WAT    HW223943   4.533   5.992   6.143
 7982WAT     OW23944   6.017   5.074   3.490
 7982WAT    HW123945   6.036   5.061   3.588
 7982WAT    HW223946   5.967   5.159   3.477
 7983WAT     OW23947   4.945   2.786   1.670
 7983WAT    HW123948   4.917   2.714   1.607
 7983WAT    HW223949   4.987   2.861   1.619
 7984WAT     OW23950   4.007   0.125   4.635
 7984WAT    HW123951   3.923   0.112   4.689
 7984WAT    HW223952   4.033   0.038   4.593
 7985WAT     OW23953   3.492   6.414   2.140
 7985WAT    HW123954   3.412   6.373   2.184
 7985WAT    HW223955   3.489   6.396   2.042
 7986WAT     OW23956   2.362   4.594   2.459
 7986WAT    HW123957   2.427   4.547   2.518
 7986WAT    HW223958   2.288   4.634   2.515
 7987WAT     OW23959   0.276   3.066   1.496
 7987WAT    HW123960   0.307   3.114   1.413
 7987WAT    HW223961   0.254   2.972   1.473
 7988WAT     OW23962   2.729   2.410   5.921
 7988WAT    HW123963   2.728   2.317   5.958
 7988WAT    HW223964   2.691   2.409   5.829
 7989WAT     OW23965   2.011   1.965   1.734
 7989WAT    HW123966   1.961   1.884   1.705
 7989WAT    HW223967   2.025   2.025   1.655
 7990WAT     OW23968   1.064   0.973   6.560
 7990WAT    HW123969   1.033   0.881   6.540
 7990WAT    HW223970   1.150   0.991   6.511
 7991WAT     OW23971   3.902   5.523   3.692
 7991WAT    HW123972   3.922   5.562   3.603
 7991WAT    HW223973   3.933   5.428   3.695
 7992WAT     OW23974   0.790   1.783   2.535
 7992WAT    HW123975   0.795   1.695   2.488
 7992WAT    HW223976   0.718   1.779   2.605
 7993WAT     OW23977   3.160   2.525   3.949
 7993WAT    HW123978   3.173   2.557   3.856
 7993WAT    HW223979   3.153   2.426   3.950
 7994WAT     OW23980   4.246   4.558   0.037
 7994WAT    HW123981   4.219   4.652   0.015
 7994WAT    HW223982   4.202   4.495  -0.028
 7995WAT     OW23983   3.595   4.769   0.577
 7995WAT    HW123984   3.556   4.776   0.485
 7995WAT    HW223985   3.540   4.823   0.641
 7996WAT     OW23986   3.130   1.269   1.011
 7996WAT    HW123987   3.032   1.286   0.996
 7996WAT    HW223988   3.144   1.238   1.105
 7997WAT     OW23989   4.987   2.904   0.813
 7997WAT    HW123990   5.042   2.926   0.894
 7997WAT    HW223991   4.916   2.839   0.839
 7998WAT     OW23992   4.547   5.481   3.124
 7998WAT    HW123993   4.616   5.522   3.064
 7998WAT    HW223994   4.463   5.534   3.120
 7999WAT     OW23995   5.788   5.392   2.245
 7999WAT    HW123996   5.778   5.329   2.322
 7999WAT    HW223997   5.758   5.483   2.274
 8000WAT     OW23998   2.642   1.648   0.906
 8000WAT    HW123999   2.558   1.667   0.856
 8000WAT    HW224000   2.631   1.566   0.962
 8001WAT     OW24001   3.707   1.723   6.282
 8001WAT    HW124002   3.655   1.666   6.218
 8001WAT    HW224003   3.714   1.816   6.247
 8002WAT     OW24004   0.913   5.078   4.648
 8002WAT    HW124005   0.907   5.055   4.551
 8002WAT    HW224006   1.001   5.122   4.666
 8003WAT     OW24007   3.279   6.336   3.043
 8003WAT    HW124008   3.281   6.238   3.059
 8003WAT    HW224009   3.262   6.383   3.130
 8004WAT     OW24010   2.542   3.281   1.963
 8004WAT    HW124011   2.514   3.213   1.895
 8004WAT    HW224012   2.596   3.235   2.035
 8005WAT     OW24013   2.360   0.298   5.429
 8005WAT    HW124014   2.442   0.282   5.373
 8005WAT    HW224015   2.279   0.270   5.378
 8006WAT     OW24016   0.716   3.930   3.449
 8006WAT    HW124017   0.745   4.026   3.445
 8006WAT    HW224018   0.707   3.902   3.545
 8007WAT     OW24019   0.550   4.282   3.343
 8007WAT    HW124020   0.507   4.349   3.403
 8007WAT    HW224021   0.482   4.216   3.313
 8008WAT     OW24022   2.727   2.982   1.902
 8008WAT    HW124023   2.778   2.986   1.988
 8008WAT    HW224024   2.789   2.999   1.826
 8009WAT     OW24025   1.956   0.831   1.650
 8009WAT    HW124026   1.965   0.766   1.725
 8009WAT    HW224027   1.973   0.924   1.683
 8010WAT     OW24028   6.626   4.722   1.113
 8010WAT    HW124029   6.629   4.821   1.098
 8010WAT    HW224030   6.705   4.694   1.168
 8011WAT     OW24031   0.604   5.292   1.709
 8011WAT    HW124032   0.572   5.359   1.776
 8011WAT    HW224033   0.692   5.322   1.672
 8012WAT     OW24034   1.501   1.592   0.864
 8012WAT    HW124035   1.518   1.572   0.767
 8012WAT    HW224036   1.561   1.535   0.920
 8013WAT     OW24037   6.115   1.106   2.820
 8013WAT    HW124038   6.205   1.148   2.833
 8013WAT    HW224039   6.121   1.037   2.748
 8014WAT     OW24040   0.260   6.294   0.098
 8014WAT    HW124041   0.359   6.311   0.104
 8014WAT    HW224042   0.243   6.222   0.032
 8015WAT     OW24043   6.680   5.378   0.187
 8015WAT    HW124044   6.676   5.285   0.222
 8015WAT    HW224045   6.772   5.397   0.152
 8016WAT     OW24046   3.889   4.103   3.802
 8016WAT    HW124047   3.963   4.162   3.833
 8016WAT    HW224048   3.801   4.141   3.830
 8017WAT     OW24049   4.796   3.987   6.244
 8017WAT    HW124050   4.711   3.985   6.296
 8017WAT    HW224051   4.777   3.978   6.147
 8018WAT     OW24052   1.927   2.910   3.353
 8018WAT    HW124053   2.002   2.875   3.296
 8018WAT    HW224054   1.892   2.836   3.410
 8019WAT     OW24055   3.031   2.289   2.482
 8019WAT    HW124056   3.126   2.258   2.486
 8019WAT    HW224057   2.989   2.280   2.572
 8020WAT     OW24058   1.110   1.123   3.241
 8020WAT    HW124059   1.144   1.136   3.148
 8020WAT    HW224060   1.185   1.137   3.306
 8021WAT     OW24061   5.903   3.574   6.258
 8021WAT    HW124062   5.993   3.531   6.247
 8021WAT    HW224063   5.898   3.655   6.200
 8022WAT     OW24064   2.459   2.991   5.860
 8022WAT    HW124065   2.422   3.027   5.775
 8022WAT    HW224066   2.508   2.905   5.840
 8023WAT     OW24067   1.591   0.038   3.425
 8023WAT    HW124068   1.508   0.013   3.475
 8023WAT    HW224069   1.670  -0.004   3.469
 8024WAT     OW24070   2.182   6.137   5.167
 8024WAT    HW124071   2.256   6.080   5.202
 8024WAT    HW224072   2.221   6.219   5.126
 8025WAT     OW24073   4.853   5.051   5.000
 8025WAT    HW124074   4.951   5.060   4.982
 8025WAT    HW224075   4.815   5.140   5.025
 8026WAT     OW24076   4.423   2.586   2.067
 8026WAT    HW124077   4.437   2.539   2.154
 8026WAT    HW224078   4.340   2.642   2.071
 8027WAT     OW24079   2.531   6.098   2.290
 8027WAT    HW124080   2.510   6.169   2.358
 8027WAT    HW224081   2.485   6.119   2.204
 8028WAT     OW24082   2.453   2.925   3.417
 8028WAT    HW124083   2.394   2.959   3.344
 8028WAT    HW224084   2.539   2.891   3.378
 8029WAT     OW24085   5.624   1.765   2.828
 8029WAT    HW124086   5.720   1.756   2.853
 8029WAT    HW224087   5.573   1.686   2.861
 8030WAT     OW24088   1.088   5.167   3.320
 8030WAT    HW124089   0.989   5.173   3.327
 8030WAT    HW224090   1.126   5.256   3.296
 8031WAT     OW24091   5.984   1.019   6.115
 8031WAT    HW124092   6.007   1.085   6.187
 8031WAT    HW224093   6.047   0.942   6.119
 8032WAT     OW24094   0.558   6.351   1.784
 8032WAT    HW124095   0.626   6.414   1.747
 8032WAT    HW224096   0.466   6.390   1.770
 8033WAT     OW24097   6.123   2.288   4.569
 8033WAT    HW124098   6.038   2.281   4.622
 8033WAT    HW224099   6.109   2.347   4.491
 8034WAT     OW24100   6.254   2.768   1.609
 8034WAT    HW124101   6.217   2.765   1.702
 8034WAT    HW224102   6.352   2.747   1.612
 8035WAT     OW24103   6.645   6.048   2.881
 8035WAT    HW124104   6.692   5.992   2.949
 8035WAT    HW224105   6.712   6.107   2.835
 8036WAT     OW24106   2.875   5.435   1.083
 8036WAT    HW124107   2.786   5.476   1.064
 8036WAT    HW224108   2.888   5.426   1.182
 8037WAT     OW24109   0.018   1.568   2.295
 8037WAT    HW124110  -0.020   1.626   2.222
 8037WAT    HW224111  -0.054   1.509   2.330
 8038WAT     OW24112   1.531   1.049   1.819
 8038WAT    HW124113   1.577   1.094   1.742
 8038WAT    HW224114   1.447   1.098   1.841
 8039WAT     OW24115   6.626   5.885   5.976
 8039WAT    HW124116   6.528   5.884   5.956
 8039WAT    HW224117   6.675   5.832   5.907
 8040WAT     OW24118   3.307   4.625   1.241
 8040WAT    HW124119   3.401   4.626   1.275
 8040WAT    HW224120   3.287   4.713   1.198
 8041WAT     OW24121   0.036   1.289   2.211
 8041WAT    HW124122   0.070   1.378   2.181
 8041WAT    HW224123  -0.041   1.301   2.273
 8042WAT     OW24124   5.390   6.047   4.018
 8042WAT    HW124125   5.450   6.084   3.947
 8042WAT    HW224126   5.362   6.120   4.080
 8043WAT     OW24127   5.171   1.808   4.953
 8043WAT    HW124128   5.200   1.772   4.864
 8043WAT    HW224129   5.223   1.891   4.974
 8044WAT     OW24130   0.192   6.504   3.012
 8044WAT    HW124131   0.130   6.576   2.980
 8044WAT    HW224132   0.287   6.535   2.998
 8045WAT     OW24133   3.216   1.165   5.090
 8045WAT    HW124134   3.297   1.224   5.091
 8045WAT    HW224135   3.237   1.080   5.138
 8046WAT     OW24136   6.365   3.879   2.755
 8046WAT    HW124137   6.410   3.793   2.778
 8046WAT    HW224138   6.413   3.922   2.678
 8047WAT     OW24139   4.172   2.628   5.068
 8047WAT    HW124140   4.106   2.647   5.141
 8047WAT    HW224141   4.219   2.542   5.086
 8048WAT     OW24142   2.858   0.652   2.777
 8048WAT    HW124143   2.775   0.674   2.828
 8048WAT    HW224144   2.845   0.674   2.680
 8049WAT     OW24145   5.428   6.340   4.514
 8049WAT    HW124146   5.365   6.401   4.466
 8049WAT    HW224147   5.399   6.245   4.502
 8050WAT     OW24148   3.631   6.237   2.470
 8050WAT    HW124149   3.710   6.177   2.460
 8050WAT    HW224150   3.660   6.333   2.469
 8051WAT     OW24151   3.710   2.556   0.255
 8051WAT    HW124152   3.792   2.569   0.311
 8051WAT    HW224153   3.645   2.498   0.304
 8052WAT     OW24154   6.634   5.242   0.532
 8052WAT    HW124155   6.679   5.331   0.540
 8052WAT    HW224156   6.548   5.244   0.582
 8053WAT     OW24157   5.782   6.150   4.266
 8053WAT    HW124158   5.743   6.219   4.327
 8053WAT    HW224159   5.778   6.184   4.172
 8054WAT     OW24160   4.185   3.983   1.577
 8054WAT    HW124161   4.227   3.898   1.546
 8054WAT    HW224162   4.152   4.035   1.498
 8055WAT     OW24163   4.600   4.832   5.862
 8055WAT    HW124164   4.558   4.822   5.772
 8055WAT    HW224165   4.554   4.771   5.927
 8056WAT     OW24166   4.463   0.866   1.149
 8056WAT    HW124167   4.426   0.959   1.139
 8056WAT    HW224168   4.469   0.822   1.059
 8057WAT     OW24169   3.992   6.624   5.207
 8057WAT    HW124170   4.011   6.692   5.278
 8057WAT    HW224171   3.897   6.635   5.177
 8058WAT     OW24172   1.874   1.202   6.550
 8058WAT    HW124173   1.811   1.131   6.518
 8058WAT    HW224174   1.860   1.285   6.496
 8059WAT     OW24175   1.664   1.713   3.530
 8059WAT    HW124176   1.629   1.646   3.596
 8059WAT    HW224177   1.762   1.700   3.518
 8060WAT     OW24178   5.906   6.316   1.825
 8060WAT    HW124179   5.824   6.261   1.810
 8060WAT    HW224180   5.897   6.367   1.910
 8061WAT     OW24181   1.769   4.938   0.205
 8061WAT    HW124182   1.711   4.978   0.135
 8061WAT    HW224183   1.711   4.894   0.274
 8062WAT     OW24184   2.225   3.808   5.955
 8062WAT    HW124185   2.288   3.772   5.887
 8062WAT    HW224186   2.219   3.744   6.032
 8063WAT     OW24187   2.318   1.154   3.425
 8063WAT    HW124188   2.365   1.228   3.475
 8063WAT    HW224189   2.376   1.124   3.349
 8064WAT     OW24190   2.692   5.058   0.605
 8064WAT    HW124191   2.618   5.014   0.553
 8064WAT    HW224192   2.654   5.128   0.665
 8065WAT     OW24193   2.341   0.209   5.007
 8065WAT    HW124194   2.277   0.153   4.954
 8065WAT    HW224195   2.417   0.151   5.038
 8066WAT     OW24196   0.409   3.070   1.735
 8066WAT    HW124197   0.382   2.985   1.781
 8066WAT    HW224198   0.360   3.078   1.648
 8067WAT     OW24199   4.132   0.127   1.368
 8067WAT    HW124200   4.221   0.130   1.322
 8067WAT    HW224201   4.095   0.034   1.363
 8068WAT     OW24202   3.390   1.217   6.009
 8068WAT    HW124203   3.298   1.214   6.047
 8068WAT    HW224204   3.392   1.282   5.933
 8069WAT     OW24205   0.213   1.334   5.789
 8069WAT    HW124206   0.178   1.346   5.882
 8069WAT    HW224207   0.267   1.413   5.763
 8070WAT     OW24208   4.712   3.168   1.855
 8070WAT    HW124209   4.807   3.182   1.883
 8070WAT    HW224210   4.697   3.209   1.765
 8071WAT     OW24211   6.462   2.757   3.534
 8071WAT    HW124212   6.366   2.769   3.511
 8071WAT    HW224213   6.495   2.671   3.496
 8072WAT     OW24214   6.130   1.897   3.780
 8072WAT    HW124215   6.124   1.883   3.879
 8072WAT    HW224216   6.064   1.837   3.734
 8073WAT     OW24217   4.051   2.519   2.112
 8073WAT    HW124218   4.108   2.523   2.194
 8073WAT    HW224219   3.985   2.594   2.113
 8074WAT     OW24220   1.350   2.426   0.050
 8074WAT    HW124221   1.321   2.495  -0.017
 8074WAT    HW224222   1.374   2.342   0.002
 8075WAT     OW24223   5.529   5.464   5.231
 8075WAT    HW124224   5.449   5.485   5.174
 8075WAT    HW224225   5.591   5.405   5.181
 8076WAT     OW24226   2.768   1.209   5.125
 8076WAT    HW124227   2.713   1.255   5.195
 8076WAT    HW224228   2.764   1.262   5.040
 8077WAT     OW24229   0.970   3.693   2.003
 8077WAT    HW124230   1.065   3.719   2.021
 8077WAT    HW224231   0.962   3.593   2.001
 8078WAT     OW24232   0.995   6.183   2.942
 8078WAT    HW124233   1.075   6.182   3.002
 8078WAT    HW224234   0.912   6.171   2.997
 8079WAT     OW24235   3.473   5.372   5.612
 8079WAT    HW124236   3.409   5.372   5.535
 8079WAT    HW224237   3.431   5.417   5.691
 8080WAT     OW24238   1.399   6.083   4.834
 8080WAT    HW124239   1.416   6.095   4.736
 8080WAT    HW224240   1.401   6.172   4.879
 8081WAT     OW24241   1.438   0.132   4.058
 8081WAT    HW124242   1.479   0.102   4.144
 8081WAT    HW224243   1.428   0.232   4.059
 8082WAT     OW24244   0.828   4.843   2.442
 8082WAT    HW124245   0.909   4.900   2.428
 8082WAT    HW224246   0.839   4.789   2.526
 8083WAT     OW24247   1.580   0.920   4.639
 8083WAT    HW124248   1.530   0.833   4.647
 8083WAT    HW224249   1.557   0.979   4.716
 8084WAT     OW24250   4.415   1.313   2.013
 8084WAT    HW124251   4.418   1.247   2.088
 8084WAT    HW224252   4.454   1.400   2.043
 8085WAT     OW24253   2.465   4.787   3.197
 8085WAT    HW124254   2.376   4.819   3.231
 8085WAT    HW224255   2.529   4.864   3.194
 8086WAT     OW24256   4.523   0.120   6.558
 8086WAT    HW124257   4.555   0.026   6.568
 8086WAT    HW224258   4.465   0.144   6.636
 8087WAT     OW24259   2.201   4.223   0.690
 8087WAT    HW124260   2.231   4.161   0.763
 8087WAT    HW224261   2.142   4.173   0.626
 8088WAT     OW24262   6.209   1.507   1.294
 8088WAT    HW124263   6.195   1.569   1.217
 8088WAT    HW224264   6.164   1.420   1.275
 8089WAT     OW24265   5.162   3.216   0.947
 8089WAT    HW124266   5.165   3.121   0.980
 8089WAT    HW224267   5.088   3.265   0.991
 8090WAT     OW24268   0.307   6.170   3.173
 8090WAT    HW124269   0.219   6.196   3.136
 8090WAT    HW224270   0.323   6.073   3.158
 8091WAT     OW24271   1.549   1.575   4.649
 8091WAT    HW124272   1.455   1.573   4.614
 8091WAT    HW224273   1.595   1.489   4.626
 8092WAT     OW24274   3.601   5.488   5.965
 8092WAT    HW124275   3.521   5.484   5.905
 8092WAT    HW224276   3.676   5.435   5.925
 8093WAT     OW24277   5.379   1.802   2.142
 8093WAT    HW124278   5.473   1.797   2.108
 8093WAT    HW224279   5.378   1.845   2.232
 8094WAT     OW24280   0.714   6.332   0.290
 8094WAT    HW124281   0.749   6.245   0.257
 8094WAT    HW224282   0.788   6.384   0.332
 8095WAT     OW24283   2.921   5.444   1.349
 8095WAT    HW124284   2.892   5.539   1.357
 8095WAT    HW224285   3.017   5.436   1.373
 8096WAT     OW24286   3.006   2.239   1.483
 8096WAT    HW124287   2.959   2.228   1.395
 8096WAT    HW224288   3.040   2.333   1.491
 8097WAT     OW24289   4.883   0.687   3.709
 8097WAT    HW124290   4.796   0.715   3.751
 8097WAT    HW224291   4.910   0.598   3.745
 8098WAT     OW24292   2.143   3.702   3.240
 8098WAT    HW124293   2.164   3.792   3.278
 8098WAT    HW224294   2.212   3.636   3.271
 8099WAT     OW24295   0.213   1.838   0.362
 8099WAT    HW124296   0.304   1.876   0.345
 8099WAT    HW224297   0.144   1.895   0.317
 8100WAT     OW24298   6.182   5.747   5.062
 8100WAT    HW124299   6.160   5.819   4.995
 8100WAT    HW224300   6.097   5.716   5.105
 8101WAT     OW24301   4.283   4.408   2.761
 8101WAT    HW124302   4.334   4.404   2.675
 8101WAT    HW224303   4.254   4.502   2.779
 8102WAT     OW24304   0.618   4.415   6.275
 8102WAT    HW124305   0.546   4.355   6.311
 8102WAT    HW224306   0.647   4.382   6.185
 8103WAT     OW24307   4.004   5.764   5.755
 8103WAT    HW124308   4.026   5.666   5.758
 8103WAT    HW224309   4.041   5.803   5.671
 8104WAT     OW24310   5.912   2.608   0.559
 8104WAT    HW124311   5.927   2.691   0.506
 8104WAT    HW224312   5.907   2.530   0.498
 8105WAT     OW24313   5.351   5.934   2.475
 8105WAT    HW124314   5.367   5.881   2.558
 8105WAT    HW224315   5.340   5.872   2.398
 8106WAT     OW24316   2.421   0.299   0.798
 8106WAT    HW124317   2.364   0.378   0.820
 8106WAT    HW224318   2.513   0.313   0.833
 8107WAT     OW24319   3.904   1.405   3.253
 8107WAT    HW124320   3.894   1.306   3.252
 8107WAT    HW224321   3.946   1.434   3.339
 8108WAT     OW24322   3.365   4.150   0.787
 8108WAT    HW124323   3.335   4.225   0.845
 8108WAT    HW224324   3.291   4.123   0.726
 8109WAT     OW24325   1.369   0.886   1.428
 8109WAT    HW124326   1.332   0.936   1.506
 8109WAT    HW224327   1.415   0.803   1.460
 8110WAT     OW24328   1.899   5.675   4.709
 8110WAT    HW124329   1.943   5.588   4.685
 8110WAT    HW224330   1.921   5.743   4.639
 8111WAT     OW24331   0.700   0.862   0.139
 8111WAT    HW124332   0.756   0.787   0.174
 8111WAT    HW224333   0.709   0.868   0.040
 8112WAT     OW24334   2.874   3.293   1.813
 8112WAT    HW124335   2.890   3.198   1.786
 8112WAT    HW224336   2.808   3.334   1.750
 8113WAT     OW24337   1.179   0.777   4.772
 8113WAT    HW124338   1.204   0.846   4.840
 8113WAT    HW224339   1.081   0.760   4.775
 8114WAT     OW24340   5.034   2.789   0.153
 8114WAT    HW124341   4.979   2.858   0.105
 8114WAT    HW224342   5.116   2.770   0.099
 8115WAT     OW24343   1.784   0.969   4.465
 8115WAT    HW124344   1.738   1.024   4.395
 8115WAT    HW224345   1.723   0.957   4.543
 8116WAT     OW24346   2.965   0.539   3.840
 8116WAT    HW124347   2.883   0.580   3.799
 8116WAT    HW224348   3.038   0.537   3.772
 8117WAT     OW24349   4.799   5.578   3.759
 8117WAT    HW124350   4.804   5.626   3.846
 8117WAT    HW224351   4.748   5.633   3.693
 8118WAT     OW24352   0.987   5.979   0.811
 8118WAT    HW124353   1.041   5.896   0.823
 8118WAT    HW224354   0.899   5.968   0.858
 8119WAT     OW24355   2.947   2.470   6.593
 8119WAT    HW124356   2.913   2.411   6.519
 8119WAT    HW224357   2.871   2.524   6.629
 8120WAT     OW24358   2.175   3.038   5.238
 8120WAT    HW124359   2.114   2.962   5.214
 8120WAT    HW224360   2.203   3.086   5.154
 8121WAT     OW24361   0.573   4.872   1.285
 8121WAT    HW124362   0.636   4.924   1.227
 8121WAT    HW224363   0.486   4.862   1.238
 8122WAT     OW24364   5.399   3.438   1.933
 8122WAT    HW124365   5.446   3.524   1.911
 8122WAT    HW224366   5.316   3.458   1.986
 8123WAT     OW24367   5.711   2.574   3.030
 8123WAT    HW124368   5.700   2.484   2.988
 8123WAT    HW224369   5.784   2.624   2.983
 8124WAT     OW24370   2.717   3.389   1.605
 8124WAT    HW124371   2.628   3.344   1.598
 8124WAT    HW224372   2.778   3.356   1.533
 8125WAT     OW24373   0.529   0.375   4.405
 8125WAT    HW124374   0.607   0.434   4.426
 8125WAT    HW224375   0.493   0.396   4.314
 8126WAT     OW24376   5.281   3.440   3.811
 8126WAT    HW124377   5.340   3.457   3.890
 8126WAT    HW224378   5.235   3.525   3.785
 8127WAT     OW24379   2.115   2.296   2.192
 8127WAT    HW124380   2.189   2.351   2.230
 8127WAT    HW224381   2.049   2.275   2.264
 8128WAT     OW24382   4.193   0.915   2.393
 8128WAT    HW124383   4.250   0.893   2.314
 8128WAT    HW224384   4.098   0.889   2.375
 8129WAT     OW24385   2.691   4.557   4.367
 8129WAT    HW124386   2.632   4.502   4.425
 8129WAT    HW224387   2.786   4.524   4.373
 8130WAT     OW24388   4.936   4.505   2.333
 8130WAT    HW124389   4.892   4.593   2.346
 8130WAT    HW224390   4.878   4.447   2.276
 8131WAT     OW24391   6.151   2.085   1.843
 8131WAT    HW124392   6.147   1.999   1.793
 8131WAT    HW224393   6.071   2.140   1.821
 8132WAT     OW24394   6.373   5.081   1.386
 8132WAT    HW124395   6.381   5.074   1.286
 8132WAT    HW224396   6.464   5.084   1.426
 8133WAT     OW24397   2.800   1.070   3.862
 8133WAT    HW124398   2.867   1.101   3.929
 8133WAT    HW224399   2.820   1.109   3.773
 8134WAT     OW24400   5.679   2.688   2.562
 8134WAT    HW124401   5.760   2.644   2.524
 8134WAT    HW224402   5.706   2.761   2.625
 8135WAT     OW24403   4.521   2.809   5.275
 8135WAT    HW124404   4.599   2.833   5.333
 8135WAT    HW224405   4.537   2.844   5.183
 8136WAT     OW24406   5.096   1.623   4.393
 8136WAT    HW124407   5.076   1.529   4.366
 8136WAT    HW224408   5.194   1.635   4.407
 8137WAT     OW24409   4.634   3.338   4.984
 8137WAT    HW124410   4.678   3.383   5.062
 8137WAT    HW224411   4.704   3.298   4.925
 8138WAT     OW24412   3.829   3.559   4.134
 8138WAT    HW124413   3.889   3.559   4.054
 8138WAT    HW224414   3.734   3.575   4.105
 8139WAT     OW24415   4.809   0.989   1.386
 8139WAT    HW124416   4.716   0.986   1.421
 8139WAT    HW224417   4.806   1.000   1.286
 8140WAT     OW24418   0.948   1.273   4.465
 8140WAT    HW124419   0.934   1.190   4.410
 8140WAT    HW224420   0.886   1.272   4.543
 8141WAT     OW24421   3.226   6.457   3.282
 8141WAT    HW124422   3.140   6.461   3.333
 8141WAT    HW224423   3.268   6.547   3.280
 8142WAT     OW24424   5.335   1.874   5.798
 8142WAT    HW124425   5.318   1.856   5.701
 8142WAT    HW224426   5.286   1.956   5.826
 8143WAT     OW24427   1.403   2.912   5.810
 8143WAT    HW124428   1.397   2.837   5.744
 8143WAT    HW224429   1.357   2.886   5.894
 8144WAT     OW24430   3.502   5.462   5.223
 8144WAT    HW124431   3.574   5.504   5.278
 8144WAT    HW224432   3.541   5.429   5.138
 8145WAT     OW24433   4.500   1.803   0.046
 8145WAT    HW124434   4.480   1.898   0.069
 8145WAT    HW224435   4.415   1.753   0.033
 8146WAT     OW24436   0.687   5.317   3.485
 8146WAT    HW124437   0.594   5.295   3.517
 8146WAT    HW224438   0.688   5.408   3.445
 8147WAT     OW24439   5.240   1.199   4.208
 8147WAT    HW124440   5.231   1.200   4.109
 8147WAT    HW224441   5.278   1.111   4.237
 8148WAT     OW24442   4.797   1.707   0.707
 8148WAT    HW124443   4.707   1.709   0.751
 8148WAT    HW224444   4.857   1.775   0.749
 8149WAT     OW24445   4.246   2.878   3.869
 8149WAT    HW124446   4.303   2.899   3.791
 8149WAT    HW224447   4.162   2.833   3.838
 8150WAT     OW24448   0.546   6.077   6.199
 8150WAT    HW124449   0.581   5.984   6.186
 8150WAT    HW224450   0.460   6.087   6.150
 8151WAT     OW24451   2.395   0.480   6.194
 8151WAT    HW124452   2.489   0.463   6.166
 8151WAT    HW224453   2.381   0.578   6.208
 8152WAT     OW24454   5.368   6.336   6.669
 8152WAT    HW124455   5.298   6.268   6.645
 8152WAT    HW224456   5.340   6.385   6.752
 8153WAT     OW24457   4.354   5.178   4.041
 8153WAT    HW124458   4.370   5.156   4.137
 8153WAT    HW224459   4.413   5.255   4.015
 8154WAT     OW24460   5.870   3.011   4.331
 8154WAT    HW124461   5.772   2.988   4.325
 8154WAT    HW224462   5.923   2.939   4.286
 8155WAT     OW24463   4.525   0.984   0.763
 8155WAT    HW124464   4.588   0.938   0.700
 8155WAT    HW224465   4.565   1.071   0.792
 8156WAT     OW24466   2.329   4.023   3.449
 8156WAT    HW124467   2.289   4.002   3.538
 8156WAT    HW224468   2.257   4.019   3.379
 8157WAT     OW24469   3.166   0.379   6.660
 8157WAT    HW124470   3.186   0.470   6.625
 8157WAT    HW224471   3.213   0.311   6.603
 8158WAT     OW24472   1.441   2.183   6.645
 8158WAT    HW124473   1.520   2.208   6.590
 8158WAT    HW224474   1.392   2.108   6.601
 8159WAT     OW24475   5.932   3.605   3.231
 8159WAT    HW124476   5.964   3.618   3.325
 8159WAT    HW224477   6.005   3.628   3.167
 8160WAT     OW24478   3.783   1.386   0.032
 8160WAT    HW124479   3.877   1.396   0.066
 8160WAT    HW224480   3.764   1.459  -0.034
 8161WAT     OW24481   4.983   1.161   2.048
 8161WAT    HW124482   4.905   1.209   2.009
 8161WAT    HW224483   5.004   1.199   2.138
 8162WAT     OW24484   3.692   3.619   5.080
 8162WAT    HW124485   3.654   3.589   4.993
 8162WAT    HW224486   3.681   3.717   5.090
 8163WAT     OW24487   6.104   5.956   4.894
 8163WAT    HW124488   6.034   5.905   4.845
 8163WAT    HW224489   6.063   6.003   4.972
 8164WAT     OW24490   4.009   0.521   2.973
 8164WAT    HW124491   3.982   0.429   2.944
 8164WAT    HW224492   4.108   0.524   2.987
 8165WAT     OW24493   5.925   1.995   1.591
 8165WAT    HW124494   5.922   2.073   1.654
 8165WAT    HW224495   5.923   2.028   1.497
 8166WAT     OW24496   2.001   3.899   2.587
 8166WAT    HW124497   2.073   3.932   2.527
 8166WAT    HW224498   2.031   3.816   2.634
 8167WAT     OW24499   4.895   5.943   4.853
 8167WAT    HW124500   4.957   5.994   4.911
 8167WAT    HW224501   4.934   5.935   4.761
 8168WAT     OW24502   0.776   1.012   5.139
 8168WAT    HW124503   0.848   1.059   5.089
 8168WAT    HW224504   0.795   0.914   5.142
 8169WAT     OW24505   1.047   2.178   6.688
 8169WAT    HW124506   1.064   2.254   6.751
 8169WAT    HW224507   1.086   2.200   6.598
 8170WAT     OW24508   3.236   0.982   5.615
 8170WAT    HW124509   3.296   0.939   5.547
 8170WAT    HW224510   3.254   0.943   5.705
 8171WAT     OW24511   3.626   3.193   6.061
 8171WAT    HW124512   3.561   3.184   6.137
 8171WAT    HW224513   3.625   3.288   6.028
 8172WAT     OW24514   1.746   4.541   4.223
 8172WAT    HW124515   1.733   4.482   4.143
 8172WAT    HW224516   1.812   4.613   4.201
 8173WAT     OW24517   4.510   0.143   0.295
 8173WAT    HW124518   4.475   0.229   0.333
 8173WAT    HW224519   4.470   0.127   0.205
 8174WAT     OW24520   5.264   0.462   4.373
 8174WAT    HW124521   5.212   0.481   4.290
 8174WAT    HW224522   5.354   0.425   4.349
 8175WAT     OW24523   2.052   5.580   5.770
 8175WAT    HW124524   2.020   5.603   5.679
 8175WAT    HW224525   2.063   5.663   5.824
 8176WAT     OW24526   1.373   4.502   3.336
 8176WAT    HW124527   1.386   4.601   3.326
 8176WAT    HW224528   1.324   4.483   3.421
 8177WAT     OW24529   5.461   2.331   5.998
 8177WAT    HW124530   5.409   2.254   6.035
 8177WAT    HW224531   5.553   2.330   6.036
 8178WAT     OW24532   3.641   2.132   1.210
 8178WAT    HW124533   3.669   2.221   1.245
 8178WAT    HW224534   3.555   2.104   1.254
 8179WAT     OW24535   1.951   3.318   3.182
 8179WAT    HW124536   1.918   3.413   3.183
 8179WAT    HW224537   1.877   3.257   3.210
 8180WAT     OW24538   6.273   6.139   4.771
 8180WAT    HW124539   6.210   6.071   4.808
 8180WAT    HW224540   6.359   6.135   4.822
 8181WAT     OW24541   5.505   6.531   3.121
 8181WAT    HW124542   5.437   6.465   3.089
 8181WAT    HW224543   5.510   6.607   3.057
 8182WAT     OW24544   4.564   3.223   0.005
 8182WAT    HW124545   4.536   3.250  -0.087
 8182WAT    HW224546   4.512   3.276   0.073
 8183WAT     OW24547   4.192   1.223   3.020
 8183WAT    HW124548   4.194   1.323   3.023
 8183WAT    HW224549   4.244   1.191   2.941
 8184WAT     OW24550   5.574   3.494   0.917
 8184WAT    HW124551   5.613   3.488   1.009
 8184WAT    HW224552   5.613   3.422   0.859
 8185WAT     OW24553   3.790   2.144   5.512
 8185WAT    HW124554   3.828   2.061   5.554
 8185WAT    HW224555   3.845   2.223   5.540
 8186WAT     OW24556   4.429   6.357   5.651
 8186WAT    HW124557   4.434   6.348   5.750
 8186WAT    HW224558   4.478   6.439   5.622
 8187WAT     OW24559   0.031   2.619   0.468
 8187WAT    HW124560   0.077   2.694   0.421
 8187WAT    HW224561   0.093   2.542   0.478
 8188WAT     OW24562   2.669   6.225   5.166
 8188WAT    HW124563   2.679   6.280   5.083
 8188WAT    HW224564   2.600   6.267   5.226
 8189WAT     OW24565   0.590   0.021   0.059
 8189WAT    HW124566   0.582   0.116   0.029
 8189WAT    HW224567   0.673   0.010   0.114
 8190WAT     OW24568   6.274   1.083   5.009
 8190WAT    HW124569   6.360   1.051   4.968
 8190WAT    HW224570   6.289   1.172   5.052
 8191WAT     OW24571   5.024   0.186   1.813
 8191WAT    HW124572   5.067   0.131   1.885
 8191WAT    HW224573   4.974   0.262   1.855
 8192WAT     OW24574   1.093   4.076   3.844
 8192WAT    HW124575   1.092   4.006   3.915
 8192WAT    HW224576   1.051   4.040   3.761
 8193WAT     OW24577   5.320   0.810   3.145
 8193WAT    HW124578   5.255   0.752   3.096
 8193WAT    HW224579   5.308   0.905   3.119
 8194WAT     OW24580   0.471   1.549   0.606
 8194WAT    HW124581   0.442   1.454   0.597
 8194WAT    HW224582   0.391   1.608   0.607
 8195WAT     OW24583   3.127   4.174   1.301
 8195WAT    HW124584   3.043   4.158   1.250
 8195WAT    HW224585   3.110   4.167   1.399
 8196WAT     OW24586   2.585   1.266   4.220
 8196WAT    HW124587   2.523   1.195   4.185
 8196WAT    HW224588   2.540   1.355   4.214
 8197WAT     OW24589   5.577   5.152   1.169
 8197WAT    HW124590   5.568   5.250   1.153
 8197WAT    HW224591   5.670   5.122   1.149
 8198WAT     OW24592   4.820   5.431   1.525
 8198WAT    HW124593   4.804   5.343   1.569
 8198WAT    HW224594   4.917   5.455   1.533
 8199WAT     OW24595   2.390   4.100   2.170
 8199WAT    HW124596   2.314   4.068   2.227
 8199WAT    HW224597   2.476   4.063   2.206
 8200WAT     OW24598   2.942   2.635   1.342
 8200WAT    HW124599   3.001   2.592   1.409
 8200WAT    HW224600   2.970   2.730   1.327
 8201WAT     OW24601   4.084   6.158   0.762
 8201WAT    HW124602   3.997   6.125   0.724
 8201WAT    HW224603   4.092   6.126   0.856
 8202WAT     OW24604   6.641   1.578   4.844
 8202WAT    HW124605   6.621   1.627   4.759
 8202WAT    HW224606   6.696   1.497   4.823
 8203WAT     OW24607   1.081   4.477   5.383
 8203WAT    HW124608   1.152   4.462   5.451
 8203WAT    HW224609   1.120   4.471   5.291
 8204WAT     OW24610   0.580   2.753   4.931
 8204WAT    HW124611   0.564   2.656   4.950
 8204WAT    HW224612   0.625   2.795   5.009
 8205WAT     OW24613   1.265   0.479   3.607
 8205WAT    HW124614   1.231   0.569   3.581
 8205WAT    HW224615   1.360   0.470   3.577
 8206WAT     OW24616   5.468   0.265   1.406
 8206WAT    HW124617   5.408   0.298   1.479
 8206WAT    HW224618   5.562   0.262   1.439
 8207WAT     OW24619   5.134   1.605   5.136
 8207WAT    HW124620   5.150   1.685   5.079
 8207WAT    HW224621   5.042   1.609   5.175
 8208WAT     OW24622   6.287   1.135   2.503
 8208WAT    HW124623   6.214   1.184   2.454
 8208WAT    HW224624   6.341   1.201   2.555
 8209WAT     OW24625   4.821   2.628   3.472
 8209WAT    HW124626   4.907   2.647   3.424
 8209WAT    HW224627   4.751   2.605   3.405
 8210WAT     OW24628   3.690   6.184   3.925
 8210WAT    HW124629   3.649   6.238   3.998
 8210WAT    HW224630   3.668   6.087   3.940
 8211WAT     OW24631   0.010   5.200   3.486
 8211WAT    HW124632   0.084   5.265   3.503
 8211WAT    HW224633   0.018   5.165   3.393
 8212WAT     OW24634   4.177   2.118   5.867
 8212WAT    HW124635   4.220   2.149   5.782
 8212WAT    HW224636   4.084   2.153   5.872
 8213WAT     OW24637   1.539   1.325   0.026
 8213WAT    HW124638   1.543   1.272  -0.059
 8213WAT    HW224639   1.465   1.291   0.083
 8214WAT     OW24640   6.292   1.480   2.268
 8214WAT    HW124641   6.282   1.424   2.186
 8214WAT    HW224642   6.306   1.576   2.241
 8215WAT     OW24643   3.908   5.523   3.180
 8215WAT    HW124644   3.842   5.459   3.219
 8215WAT    HW224645   3.867   5.566   3.099
 8216WAT     OW24646   3.228   0.973   3.573
 8216WAT    HW124647   3.196   0.950   3.665
 8216WAT    HW224648   3.182   1.055   3.541
 8217WAT     OW24649   1.275   0.584   0.041
 8217WAT    HW124650   1.292   0.681   0.057
 8217WAT    HW224651   1.248   0.571  -0.055
 8218WAT     OW24652   4.513   4.889   0.138
 8218WAT    HW124653   4.596   4.941   0.157
 8218WAT    HW224654   4.462   4.933   0.064
 8219WAT     OW24655   3.271   3.617   6.575
 8219WAT    HW124656   3.252   3.522   6.596
 8219WAT    HW224657   3.230   3.676   6.644
 8220WAT     OW24658   3.254   4.478   3.026
 8220WAT    HW124659   3.276   4.524   3.112
 8220WAT    HW224660   3.182   4.411   3.041
 8221WAT     OW24661   1.912   6.504   2.859
 8221WAT    HW124662   1.819   6.516   2.892
 8221WAT    HW224663   1.975   6.555   2.917
 8222WAT     OW24664   4.196   1.659   2.290
 8222WAT    HW124665   4.179   1.698   2.380
 8222WAT    HW224666   4.117   1.606   2.260
 8223WAT     OW24667   2.255   4.945   3.304
 8223WAT    HW124668   2.234   5.027   3.250
 8223WAT    HW224669   2.173   4.917   3.354
 8224WAT     OW24670   3.565   2.698   5.359
 8224WAT    HW124671   3.657   2.736   5.369
 8224WAT    HW224672   3.572   2.600   5.338
 8225WAT     OW24673   0.147   6.621   1.090
 8225WAT    HW124674   0.175   6.571   1.172
 8225WAT    HW224675   0.189   6.579   1.010
 8226WAT     OW24676   1.594   0.514   1.043
 8226WAT    HW124677   1.545   0.595   1.009
 8226WAT    HW224678   1.667   0.490   0.979
 8227WAT     OW24679   3.141   1.943   4.383
 8227WAT    HW124680   3.123   1.845   4.383
 8227WAT    HW224681   3.069   1.990   4.435
 8228WAT     OW24682   4.759   2.254   3.435
 8228WAT    HW124683   4.728   2.278   3.343
 8228WAT    HW224684   4.695   2.290   3.502
 8229WAT     OW24685   0.298   1.273   0.303
 8229WAT    HW124686   0.220   1.332   0.328
 8229WAT    HW224687   0.276   1.224   0.219
 8230WAT     OW24688   3.255   2.629   3.188
 8230WAT    HW124689   3.241   2.726   3.170
 8230WAT    HW224690   3.274   2.616   3.286
 8231WAT     OW24691   6.458   2.215   2.629
 8231WAT    HW124692   6.543   2.163   2.614
 8231WAT    HW224693   6.481   2.309   2.655
 8232WAT     OW24694   0.841   1.138   6.584
 8232WAT    HW124695   0.925   1.089   6.564
 8232WAT    HW224696   0.863   1.226   6.628
 8233WAT     OW24697   6.476   4.626   0.166
 8233WAT    HW124698   6.489   4.528   0.151
 8233WAT    HW224699   6.531   4.655   0.245
 8234WAT     OW24700   0.080   0.384   4.326
 8234WAT    HW124701   0.000   0.386   4.386
 8234WAT    HW224702   0.162   0.365   4.380
 8235WAT     OW24703   0.837   1.772   1.257
 8235WAT    HW124704   0.883   1.683   1.253
 8235WAT    HW224705   0.846   1.819   1.169
 8236WAT     OW24706   2.990   1.544   5.342
 8236WAT    HW124707   2.932   1.503   5.413
 8236WAT    HW224708   3.007   1.476   5.271
 8237WAT     OW24709   2.284   0.355   0.114
 8237WAT    HW124710   2.254   0.283   0.051
 8237WAT    HW224711   2.204   0.403   0.150
 8238WAT     OW24712   6.230   4.492   1.173
 8238WAT    HW124713   6.166   4.527   1.241
 8238WAT    HW224714   6.324   4.504   1.207
 8239WAT     OW24715   2.133   3.996   3.259
 8239WAT    HW124716   2.080   3.943   3.193
 8239WAT    HW224717   2.089   4.085   3.273
 8240WAT     OW24718   2.917   5.469   4.744
 8240WAT    HW124719   2.943   5.518   4.662
 8240WAT    HW224720   2.993   5.467   4.809
 8241WAT     OW24721   3.031   4.318   0.770
 8241WAT    HW124722   2.943   4.318   0.817
 8241WAT    HW224723   3.105   4.330   0.837
 8242WAT     OW24724   5.151   5.084   3.405
 8242WAT    HW124725   5.148   5.076   3.306
 8242WAT    HW224726   5.060   5.110   3.439
 8243WAT     OW24727   3.430   2.596   2.007
 8243WAT    HW124728   3.513   2.632   2.050
 8243WAT    HW224729   3.444   2.588   1.909
 8244WAT     OW24730   4.801   0.555   2.129
 8244WAT    HW124731   4.765   0.644   2.099
 8244WAT    HW224732   4.733   0.510   2.187
 8245WAT     OW24733   5.708   0.636   6.055
 8245WAT    HW124734   5.650   0.555   6.056
 8245WAT    HW224735   5.727   0.665   6.148
 8246WAT     OW24736   5.244   2.614   5.049
 8246WAT    HW124737   5.262   2.566   5.135
 8246WAT    HW224738   5.277   2.559   4.973
 8247WAT     OW24739   5.099   3.932   3.647
 8247WAT    HW124740   5.107   4.024   3.685
 8247WAT    HW224741   5.164   3.921   3.572
 8248WAT     OW24742   5.775   5.080   6.625
 8248WAT    HW124743   5.746   5.085   6.721
 8248WAT    HW224744   5.802   5.171   6.594
 8249WAT     OW24745   1.400   5.051   1.601
 8249WAT    HW124746   1.444   5.012   1.682
 8249WAT    HW224747   1.451   5.023   1.519
 8250WAT     OW24748   3.423   5.050   2.224
 8250WAT    HW124749   3.422   5.069   2.323
 8250WAT    HW224750   3.483   5.116   2.178
 8251WAT     OW24751   0.101   3.001   2.706
 8251WAT    HW124752   0.187   2.954   2.689
 8251WAT    HW224753   0.029   2.934   2.724
 8252WAT     OW24754   5.720   3.075   5.198
 8252WAT    HW124755   5.816   3.047   5.195
 8252WAT    HW224756   5.704   3.129   5.280
 8253WAT     OW24757   0.075   6.269   3.079
 8253WAT    HW124758   0.114   6.354   3.044
 8253WAT    HW224759  -0.022   6.265   3.055
 8254WAT     OW24760   1.304   4.983   5.505
 8254WAT    HW124761   1.262   4.917   5.568
 8254WAT    HW224762   1.256   5.070   5.511
 8255WAT     OW24763   2.522   1.643   3.164
 8255WAT    HW124764   2.543   1.680   3.074
 8255WAT    HW224765   2.424   1.625   3.171
 8256WAT     OW24766   6.513   3.300   3.166
 8256WAT    HW124767   6.524   3.388   3.119
 8256WAT    HW224768   6.585   3.238   3.137
 8257WAT     OW24769   5.060   6.336   4.562
 8257WAT    HW124770   5.067   6.330   4.662
 8257WAT    HW224771   4.963   6.343   4.536
 8258WAT     OW24772   5.054   5.727   5.199
 8258WAT    HW124773   5.081   5.634   5.223
 8258WAT    HW224774   5.122   5.767   5.138
 8259WAT     OW24775   2.560   0.105   1.781
 8259WAT    HW124776   2.531   0.200   1.768
 8259WAT    HW224777   2.514   0.047   1.714
 8260WAT     OW24778   0.779   2.335   2.060
 8260WAT    HW124779   0.848   2.357   1.991
 8260WAT    HW224780   0.693   2.381   2.037
 8261WAT     OW24781   5.551   1.686   4.635
 8261WAT    HW124782   5.623   1.741   4.593
 8261WAT    HW224783   5.505   1.740   4.706
 8262WAT     OW24784   3.372   2.572   4.569
 8262WAT    HW124785   3.468   2.557   4.593
 8262WAT    HW224786   3.360   2.666   4.539
 8263WAT     OW24787   2.124   6.064   6.141
 8263WAT    HW124788   2.055   5.996   6.116
 8263WAT    HW224789   2.135   6.066   6.240
 8264WAT     OW24790   3.528   0.581   1.402
 8264WAT    HW124791   3.530   0.681   1.403
 8264WAT    HW224792   3.521   0.546   1.495
 8265WAT     OW24793   5.407   5.558   2.478
 8265WAT    HW124794   5.344   5.563   2.556
 8265WAT    HW224795   5.496   5.526   2.508
 8266WAT     OW24796   4.709   1.038   2.137
 8266WAT    HW124797   4.739   1.107   2.072
 8266WAT    HW224798   4.709   0.948   2.093
 8267WAT     OW24799   6.483   4.026   2.554
 8267WAT    HW124800   6.528   4.096   2.609
 8267WAT    HW224801   6.534   4.012   2.469
 8268WAT     OW24802   1.962   4.845   2.233
 8268WAT    HW124803   1.930   4.804   2.148
 8268WAT    HW224804   1.898   4.822   2.307
 8269WAT     OW24805   3.485   5.554   2.871
 8269WAT    HW124806   3.408   5.497   2.899
 8269WAT    HW224807   3.511   5.614   2.947
 8270WAT     OW24808   0.430   2.627   1.445
 8270WAT    HW124809   0.377   2.633   1.529
 8270WAT    HW224810   0.378   2.667   1.370
 8271WAT     OW24811   0.631   4.940   4.292
 8271WAT    HW124812   0.552   4.998   4.308
 8271WAT    HW224813   0.623   4.896   4.202
 8272WAT     OW24814   1.149   2.057   1.116
 8272WAT    HW124815   1.066   2.111   1.103
 8272WAT    HW224816   1.210   2.069   1.038
 8273WAT     OW24817   2.016   1.807   3.753
 8273WAT    HW124818   2.102   1.794   3.804
 8273WAT    HW224819   1.939   1.797   3.816
 8274WAT     OW24820   0.229   6.518   3.284
 8274WAT    HW124821   0.304   6.467   3.328
 8274WAT    HW224822   0.227   6.495   3.186
 8275WAT     OW24823   0.216   6.107   3.426
 8275WAT    HW124824   0.180   6.181   3.482
 8275WAT    HW224825   0.256   6.144   3.342
 8276WAT     OW24826   1.902   3.599   3.175
 8276WAT    HW124827   1.846   3.631   3.252
 8276WAT    HW224828   1.999   3.619   3.194
 8277WAT     OW24829   2.086   5.218   4.685
 8277WAT    HW124830   2.134   5.167   4.613
 8277WAT    HW224831   2.129   5.199   4.773
 8278WAT     OW24832   2.967   4.659   0.467
 8278WAT    HW124833   2.974   4.695   0.374
 8278WAT    HW224834   2.934   4.731   0.529
 8279WAT     OW24835   2.730   2.857   3.890
 8279WAT    HW124836   2.805   2.916   3.861
 8279WAT    HW224837   2.648   2.912   3.906
 8280WAT     OW24838   4.468   3.940   5.065
 8280WAT    HW124839   4.373   3.919   5.044
 8280WAT    HW224840   4.478   3.951   5.164
 8281WAT     OW24841   0.896   5.696   6.084
 8281WAT    HW124842   0.912   5.606   6.125
 8281WAT    HW224843   0.979   5.751   6.092
 8282WAT     OW24844   0.307   3.504   4.730
 8282WAT    HW124845   0.334   3.408   4.732
 8282WAT    HW224846   0.306   3.540   4.823
 8283WAT     OW24847   1.864   1.514   1.261
 8283WAT    HW124848   1.909   1.531   1.349
 8283WAT    HW224849   1.829   1.600   1.225
 8284WAT     OW24850   2.743   5.663   3.074
 8284WAT    HW124851   2.710   5.756   3.088
 8284WAT    HW224852   2.808   5.662   2.998
 8285WAT     OW24853   6.172   4.025   3.364
 8285WAT    HW124854   6.248   3.989   3.418
 8285WAT    HW224855   6.178   4.124   3.360
 8286WAT     OW24856   5.045   5.955   4.336
 8286WAT    HW124857   5.108   6.032   4.347
 8286WAT    HW224858   4.991   5.968   4.253
 8287WAT     OW24859   5.487   2.301   5.382
 8287WAT    HW124860   5.557   2.350   5.434
 8287WAT    HW224861   5.450   2.226   5.437
 8288WAT     OW24862   1.075   3.506   0.408
 8288WAT    HW124863   1.166   3.492   0.445
 8288WAT    HW224864   1.082   3.560   0.324
 8289WAT     OW24865   6.331   0.699   6.653
 8289WAT    HW124866   6.422   0.737   6.640
 8289WAT    HW224867   6.337   0.615   6.707
 8290WAT     OW24868   6.285   4.725   4.223
 8290WAT    HW124869   6.231   4.643   4.206
 8290WAT    HW224870   6.226   4.795   4.264
 8291WAT     OW24871   1.217   2.368   2.937
 8291WAT    HW124872   1.290   2.307   2.969
 8291WAT    HW224873   1.156   2.389   3.013
 8292WAT     OW24874   4.833   3.245   0.056
 8292WAT    HW124875   4.733   3.236   0.051
 8292WAT    HW224876   4.864   3.306  -0.018
 8293WAT     OW24877   2.637   3.963   6.663
 8293WAT    HW124878   2.720   4.011   6.636
 8293WAT    HW224879   2.614   3.986   6.758
 8294WAT     OW24880   5.060   2.798   5.405
 8294WAT    HW124881   5.002   2.755   5.475
 8294WAT    HW224882   5.033   2.765   5.315
 8295WAT     OW24883   6.547   2.249   3.903
 8295WAT    HW124884   6.471   2.310   3.928
 8295WAT    HW224885   6.622   2.261   3.968
 8296WAT     OW24886   6.225   6.442   5.363
 8296WAT    HW124887   6.179   6.356   5.340
 8296WAT    HW224888   6.170   6.519   5.331
 8297WAT     OW24889   6.303   5.531   4.181
 8297WAT    HW124890   6.374   5.498   4.244
 8297WAT    HW224891   6.247   5.454   4.152
 8298WAT     OW24892   2.500   0.371   1.789
 8298WAT    HW124893   2.503   0.400   1.885
 8298WAT    HW224894   2.427   0.419   1.742
 8299WAT     OW24895   1.156   2.228   2.709
 8299WAT    HW124896   1.172   2.285   2.790
 8299WAT    HW224897   1.092   2.275   2.648
 8300WAT     OW24898   1.675   6.588   6.624
 8300WAT    HW124899   1.685   6.604   6.526
 8300WAT    HW224900   1.663   6.675   6.672
 8301WAT     OW24901   5.918   0.214   4.517
 8301WAT    HW124902   5.835   0.239   4.566
 8301WAT    HW224903   5.998   0.240   4.571
 8302WAT     OW24904   2.461   2.211   3.002
 8302WAT    HW124905   2.380   2.175   3.050
 8302WAT    HW224906   2.543   2.165   3.036
 8303WAT     OW24907   5.000   3.808   0.291
 8303WAT    HW124908   4.936   3.765   0.355
 8303WAT    HW224909   5.066   3.864   0.342
 8304WAT     OW24910   4.587   4.003   0.225
 8304WAT    HW124911   4.580   4.102   0.220
 8304WAT    HW224912   4.499   3.961   0.204
 8305WAT     OW24913   0.705   6.241   1.980
 8305WAT    HW124914   0.649   6.281   1.907
 8305WAT    HW224915   0.721   6.309   2.052
 8306WAT     OW24916   5.158   1.922   6.089
 8306WAT    HW124917   5.143   1.954   5.995
 8306WAT    HW224918   5.069   1.904   6.132
 8307WAT     OW24919   3.468   3.783   4.685
 8307WAT    HW124920   3.501   3.725   4.759
 8307WAT    HW224921   3.466   3.878   4.715
 8308WAT     OW24922   3.016   0.452   2.252
 8308WAT    HW124923   3.091   0.386   2.240
 8308WAT    HW224924   3.045   0.542   2.220
 8309WAT     OW24925   4.313   5.958   5.706
 8309WAT    HW124926   4.246   5.909   5.651
 8309WAT    HW224927   4.348   5.898   5.779
 8310WAT     OW24928   0.726   1.227   5.863
 8310WAT    HW124929   0.820   1.249   5.835
 8310WAT    HW224930   0.688   1.303   5.915
 8311WAT     OW24931   1.264   4.380   2.928
 8311WAT    HW124932   1.339   4.441   2.904
 8311WAT    HW224933   1.291   4.285   2.911
 8312WAT     OW24934   5.526   6.311   6.219
 8312WAT    HW124935   5.580   6.231   6.244
 8312WAT    HW224936   5.585   6.377   6.171
 8313WAT     OW24937   5.712   0.329   0.584
 8313WAT    HW124938   5.638   0.309   0.648
 8313WAT    HW224939   5.739   0.245   0.537
 8314WAT     OW24940   1.824   0.000   0.402
 8314WAT    HW124941   1.863  -0.091   0.412
 8314WAT    HW224942   1.725  -0.007   0.391
 8315WAT     OW24943   0.957   6.165   1.905
 8315WAT    HW124944   0.866   6.194   1.935
 8315WAT    HW224945   0.978   6.076   1.945
 8316WAT     OW24946   3.149   3.901   2.184
 8316WAT    HW124947   3.249   3.908   2.186
 8316WAT    HW224948   3.109   3.973   2.241
 8317WAT     OW24949   2.386   4.027   1.904
 8317WAT    HW124950   2.424   3.935   1.908
 8317WAT    HW224951   2.379   4.065   1.996
 8318WAT     OW24952   3.448   1.513   3.298
 8318WAT    HW124953   3.528   1.486   3.244
 8318WAT    HW224954   3.459   1.481   3.392
 8319WAT     OW24955   1.207   6.291   1.890
 8319WAT    HW124956   1.113   6.261   1.908
 8319WAT    HW224957   1.231   6.270   1.795
 8320WAT     OW24958   5.611   1.653   1.785
 8320WAT    HW124959   5.532   1.621   1.734
 8320WAT    HW224960   5.669   1.708   1.725
 8321WAT     OW24961   3.722   5.439   4.046
 8321WAT    HW124962   3.709   5.499   4.125
 8321WAT    HW224963   3.695   5.487   3.963
 8322WAT     OW24964   2.660   4.047   4.347
 8322WAT    HW124965   2.562   4.030   4.347
 8322WAT    HW224966   2.685   4.101   4.267
 8323WAT     OW24967   0.823   4.787   3.843
 8323WAT    HW124968   0.728   4.757   3.834
 8323WAT    HW224969   0.884   4.710   3.829
 8324WAT     OW24970   5.405   3.892   0.316
 8324WAT    HW124971   5.314   3.909   0.354
 8324WAT    HW224972   5.459   3.976   0.322
 8325WAT     OW24973   0.634   1.436   6.012
 8325WAT    HW124974   0.601   1.520   5.968
 8325WAT    HW224975   0.559   1.393   6.062
 8326WAT     OW24976   3.812   0.946   4.626
 8326WAT    HW124977   3.802   1.045   4.635
 8326WAT    HW224978   3.753   0.913   4.552
 8327WAT     OW24979   4.175   2.285   4.301
 8327WAT    HW124980   4.204   2.298   4.207
 8327WAT    HW224981   4.134   2.194   4.311
 8328WAT     OW24982   6.189   3.082   5.434
 8328WAT    HW124983   6.229   2.998   5.396
 8328WAT    HW224984   6.128   3.059   5.509
 8329WAT     OW24985   3.920   6.223   5.117
 8329WAT    HW124986   3.945   6.295   5.053
 8329WAT    HW224987   3.995   6.208   5.182
 8330WAT     OW24988   1.343   0.013   3.552
 8330WAT    HW124989   1.303  -0.053   3.616
 8330WAT    HW224990   1.353   0.101   3.598
 8331WAT     OW24991   1.980   5.659   5.520
 8331WAT    HW124992   2.032   5.714   5.454
 8331WAT    HW224993   1.973   5.565   5.487
 8332WAT     OW24994   1.641   2.601   0.391
 8332WAT    HW124995   1.621   2.546   0.310
 8332WAT    HW224996   1.595   2.690   0.383
 8333WAT     OW24997   1.485   6.199   5.415
 8333WAT    HW124998   1.446   6.154   5.335
 8333WAT    HW224999   1.543   6.134   5.465
 8334WAT     OW25000   1.943   1.621   0.557
 8334WAT    HW125001   2.016   1.663   0.504
 8334WAT    HW225002   1.944   1.522   0.544
 8335WAT     OW25003   4.360   2.357   4.891
 8335WAT    HW125004   4.353   2.449   4.851
 8335WAT    HW225005   4.338   2.361   4.988
 8336WAT     OW25006   5.150   6.248   6.392
 8336WAT    HW125007   5.159   6.224   6.488
 8336WAT    HW225008   5.146   6.164   6.337
 8337WAT     OW25009   0.828   1.476   1.640
 8337WAT    HW125010   0.735   1.485   1.605
 8337WAT    HW225011   0.852   1.558   1.693
 8338WAT     OW25012   6.379   3.895   5.330
 8338WAT    HW125013   6.385   3.932   5.422
 8338WAT    HW225014   6.285   3.866   5.312
 8339WAT     OW25015   6.040   3.621   3.482
 8339WAT    HW125016   6.024   3.717   3.505
 8339WAT    HW225017   6.136   3.608   3.456
 8340WAT     OW25018   1.072   1.557   3.800
 8340WAT    HW125019   1.041   1.518   3.887
 8340WAT    HW225020   1.084   1.483   3.734
 8341WAT     OW25021   2.203   3.301   2.215
 8341WAT    HW125022   2.200   3.364   2.293
 8341WAT    HW225023   2.279   3.237   2.227
 8342WAT     OW25024   2.663   4.954   5.881
 8342WAT    HW125025   2.757   4.956   5.916
 8342WAT    HW225026   2.637   5.045   5.848
 8343WAT     OW25027   3.972   4.571   1.415
 8343WAT    HW125028   4.020   4.647   1.458
 8343WAT    HW225029   4.013   4.485   1.445
 8344WAT     OW25030   1.731   4.276   0.556
 8344WAT    HW125031   1.652   4.293   0.497
 8344WAT    HW225032   1.755   4.360   0.605
 8345WAT     OW25033   5.519   4.646   1.662
 8345WAT    HW125034   5.444   4.580   1.669
 8345WAT    HW225035   5.529   4.695   1.748
 8346WAT     OW25036   1.857   0.546   6.561
 8346WAT    HW125037   1.850   0.513   6.467
 8346WAT    HW225038   1.829   0.472   6.624
 8347WAT     OW25039   3.794   2.655   5.079
 8347WAT    HW125040   3.701   2.686   5.059
 8347WAT    HW225041   3.847   2.649   4.995
 8348WAT     OW25042   2.544   3.967   2.833
 8348WAT    HW125043   2.512   3.912   2.911
 8348WAT    HW225044   2.585   3.906   2.765
 8349WAT     OW25045   0.027   3.510   4.782
 8349WAT    HW125046   0.121   3.521   4.748
 8349WAT    HW225047   0.008   3.582   4.849
 8350WAT     OW25048   1.788   1.609   1.872
 8350WAT    HW125049   1.693   1.638   1.881
 8350WAT    HW225050   1.798   1.515   1.903
 8351WAT     OW25051   5.051   6.428   1.732
 8351WAT    HW125052   5.038   6.360   1.659
 8351WAT    HW225053   5.013   6.515   1.703
 8352WAT     OW25054   4.942   3.371   1.586
 8352WAT    HW125055   4.847   3.353   1.612
 8352WAT    HW225056   4.994   3.397   1.667
 8353WAT     OW25057   5.277   5.563   2.716
 8353WAT    HW125058   5.222   5.620   2.778
 8353WAT    HW225059   5.261   5.466   2.736
 8354WAT     OW25060   3.259   3.291   4.655
 8354WAT    HW125061   3.344   3.340   4.639
 8354WAT    HW225062   3.277   3.192   4.655
 8355WAT     OW25063   4.715   6.515   0.310
 8355WAT    HW125064   4.736   6.582   0.381
 8355WAT    HW225065   4.741   6.552   0.221
 8356WAT     OW25066   6.378   1.501   4.895
 8356WAT    HW125067   6.473   1.531   4.893
 8356WAT    HW225068   6.324   1.558   4.833
 8357WAT     OW25069   2.448   3.759   4.504
 8357WAT    HW125070   2.452   3.836   4.441
 8357WAT    HW225071   2.506   3.685   4.471
 8358WAT     OW25072   6.609   4.296   3.704
 8358WAT    HW125073   6.570   4.379   3.743
 8358WAT    HW225074   6.691   4.271   3.754
 8359WAT     OW25075   1.243   1.429   2.941
 8359WAT    HW125076   1.301   1.448   2.862
 8359WAT    HW225077   1.268   1.489   3.017
 8360WAT     OW25078   1.718   0.832   6.181
 8360WAT    HW125079   1.807   0.850   6.221
 8360WAT    HW225080   1.679   0.749   6.222
 8361WAT     OW25081   3.510   2.230   3.238
 8361WAT    HW125082   3.584   2.290   3.208
 8361WAT    HW225083   3.533   2.135   3.217
 8362WAT     OW25084   0.339   6.641   4.901
 8362WAT    HW125085   0.375   6.602   4.986
 8362WAT    HW225086   0.240   6.627   4.897
 8363WAT     OW25087   0.770   2.214   2.579
 8363WAT    HW125088   0.782   2.137   2.517
 8363WAT    HW225089   0.847   2.277   2.570
 8364WAT     OW25090   0.425   2.841   6.213
 8364WAT    HW125091   0.363   2.870   6.285
 8364WAT    HW225092   0.442   2.743   6.221
 8365WAT     OW25093   1.558   4.036   1.181
 8365WAT    HW125094   1.567   4.071   1.087
 8365WAT    HW225095   1.463   4.008   1.197
 8366WAT     OW25096   1.134   2.069   1.384
 8366WAT    HW125097   1.036   2.050   1.397
 8366WAT    HW225098   1.155   2.072   1.286
 8367WAT     OW25099   2.071   3.920   6.238
 8367WAT    HW125100   2.105   3.830   6.212
 8367WAT    HW225101   2.148   3.980   6.262
 8368WAT     OW25102   0.274   5.968   5.674
 8368WAT    HW125103   0.283   5.871   5.652
 8368WAT    HW225104   0.363   6.013   5.661
 8369WAT     OW25105   3.357   5.420   0.935
 8369WAT    HW125106   3.275   5.445   0.987
 8369WAT    HW225107   3.409   5.352   0.986
 8370WAT     OW25108   0.922   1.165   0.269
 8370WAT    HW125109   0.918   1.264   0.269
 8370WAT    HW225110   0.829   1.128   0.274
 8371WAT     OW25111   6.202   6.005   6.088
 8371WAT    HW125112   6.264   5.956   6.026
 8371WAT    HW225113   6.187   6.098   6.053
 8372WAT     OW25114   3.308   0.769   4.782
 8372WAT    HW125115   3.338   0.760   4.878
 8372WAT    HW225116   3.213   0.799   4.780
 8373WAT     OW25117   3.284   6.149   1.227
 8373WAT    HW125118   3.324   6.075   1.174
 8373WAT    HW225119   3.355   6.216   1.249
 8374WAT     OW25120   2.830   3.835   1.473
 8374WAT    HW125121   2.920   3.833   1.515
 8374WAT    HW225122   2.838   3.827   1.374
 8375WAT     OW25123   4.845   4.359   1.913
 8375WAT    HW125124   4.764   4.370   1.855
 8375WAT    HW225125   4.821   4.383   2.007
 8376WAT     OW25126   6.261   5.528   3.406
 8376WAT    HW125127   6.277   5.619   3.367
 8376WAT    HW225128   6.344   5.473   3.398
 8377WAT     OW25129   5.542   5.226   3.543
 8377WAT    HW125130   5.598   5.285   3.603
 8377WAT    HW225131   5.447   5.228   3.574
 8378WAT     OW25132   4.244   3.112   0.589
 8378WAT    HW125133   4.339   3.124   0.619
 8378WAT    HW225134   4.238   3.125   0.490
 8379WAT     OW25135   6.408   0.906   2.408
 8379WAT    HW125136   6.454   0.895   2.321
 8379WAT    HW225137   6.377   1.001   2.418
 8380WAT     OW25138   3.682   0.452   6.440
 8380WAT    HW125139   3.754   0.501   6.490
 8380WAT    HW225140   3.608   0.516   6.418
 8381WAT     OW25141   0.835   0.076   1.744
 8381WAT    HW125142   0.909   0.033   1.796
 8381WAT    HW225143   0.866   0.092   1.650
 8382WAT     OW25144   5.740   1.869   6.129
 8382WAT    HW125145   5.833   1.833   6.131
 8382WAT    HW225146   5.675   1.795   6.143
 8383WAT     OW25147   0.989   4.005   6.341
 8383WAT    HW125148   0.915   3.963   6.393
 8383WAT    HW225149   0.950   4.060   6.267
 8384WAT     OW25150   6.387   0.079   3.746
 8384WAT    HW125151   6.438  -0.007   3.736
 8384WAT    HW225152   6.296   0.059   3.783
 8385WAT     OW25153   5.799   3.893   5.902
 8385WAT    HW125154   5.842   3.867   5.988
 8385WAT    HW225155   5.822   3.827   5.831
 8386WAT     OW25156   1.507   5.685   5.355
 8386WAT    HW125157   1.427   5.712   5.302
 8386WAT    HW225158   1.588   5.729   5.317
 8387WAT     OW25159   0.949   4.252   0.908
 8387WAT    HW125160   1.030   4.239   0.851
 8387WAT    HW225161   0.958   4.338   0.959
 8388WAT     OW25162   1.943   4.267   1.191
 8388WAT    HW125163   1.969   4.343   1.250
 8388WAT    HW225164   1.907   4.303   1.105
 8389WAT     OW25165   4.228   3.485   4.272
 8389WAT    HW125166   4.225   3.521   4.179
 8389WAT    HW225167   4.248   3.559   4.336
 8390WAT     OW25168   4.141   3.116   5.434
 8390WAT    HW125169   4.231   3.089   5.400
 8390WAT    HW225170   4.123   3.211   5.411
 8391WAT     OW25171   2.242   1.475   5.467
 8391WAT    HW125172   2.209   1.534   5.540
 8391WAT    HW225173   2.234   1.380   5.495
 8392WAT     OW25174   6.413   0.355   2.542
 8392WAT    HW125175   6.368   0.429   2.492
 8392WAT    HW225176   6.350   0.279   2.554
 8393WAT     OW25177   6.686   0.015   2.957
 8393WAT    HW125178   6.610  -0.041   2.990
 8393WAT    HW225179   6.703   0.090   3.022
 8394WAT     OW25180   0.063   4.905   2.171
 8394WAT    HW125181   0.161   4.923   2.180
 8394WAT    HW225182   0.044   4.811   2.202
 8395WAT     OW25183   6.525   0.833   2.168
 8395WAT    HW125184   6.465   0.877   2.101
 8395WAT    HW225185   6.620   0.839   2.137
 8396WAT     OW25186   4.877   2.004   1.425
 8396WAT    HW125187   4.818   2.074   1.385
 8396WAT    HW225188   4.956   1.989   1.365
 8397WAT     OW25189   3.318   2.590   3.450
 8397WAT    HW125190   3.387   2.662   3.459
 8397WAT    HW225191   3.363   2.501   3.461
 8398WAT     OW25192   1.991   1.759   2.758
 8398WAT    HW125193   1.979   1.710   2.671
 8398WAT    HW225194   1.906   1.806   2.781
 8399WAT     OW25195   6.033   0.264   0.456
 8399WAT    HW125196   6.094   0.198   0.498
 8399WAT    HW225197   5.940   0.226   0.452
 8400WAT     OW25198   1.501   6.132   1.562
 8400WAT    HW125199   1.529   6.037   1.565
 8400WAT    HW225200   1.580   6.191   1.580
 8401WAT     OW25201   1.237   5.135   6.672
 8401WAT    HW125202   1.150   5.168   6.637
 8401WAT    HW225203   1.302   5.127   6.597
 8402WAT     OW25204   1.976   4.707   4.441
 8402WAT    HW125205   1.926   4.671   4.519
 8402WAT    HW225206   2.065   4.661   4.434
 8403WAT     OW25207   0.202   3.736   6.453
 8403WAT    HW125208   0.155   3.817   6.487
 8403WAT    HW225209   0.258   3.761   6.374
 8404WAT     OW25210   2.775   5.212   1.368
 8404WAT    HW125211   2.807   5.156   1.292
 8404WAT    HW225212   2.818   5.302   1.364
 8405WAT     OW25213   5.432   0.959   3.588
 8405WAT    HW125214   5.399   1.048   3.556
 8405WAT    HW225215   5.391   0.886   3.534
 8406WAT     OW25216   0.550   2.822   1.003
 8406WAT    HW125217   0.555   2.722   1.007
 8406WAT    HW225218   0.476   2.854   1.062
 8407WAT     OW25219   6.516   3.392   4.636
 8407WAT    HW125220   6.509   3.297   4.665
 8407WAT    HW225221   6.594   3.435   4.682
 8408WAT     OW25222   5.110   2.788   6.174
 8408WAT    HW125223   5.170   2.716   6.210
 8408WAT    HW225224   5.040   2.809   6.242
 8409WAT     OW25225   4.719   0.411   5.265
 8409WAT    HW125226   4.695   0.353   5.343
 8409WAT    HW225227   4.742   0.503   5.297
 8410WAT     OW25228   0.720   2.750   0.595
 8410WAT    HW125229   0.633   2.762   0.642
 8410WAT    HW225230   0.776   2.684   0.645
 8411WAT     OW25231   1.736   2.684   0.976
 8411WAT    HW125232   1.748   2.610   0.910
 8411WAT    HW225233   1.820   2.738   0.982
 8412WAT     OW25234   4.247   2.121   1.155
 8412WAT    HW125235   4.226   2.116   1.253
 8412WAT    HW225236   4.167   2.157   1.106
 8413WAT     OW25237   6.355   2.262   1.815
 8413WAT    HW125238   6.401   2.281   1.902
 8413WAT    HW225239   6.283   2.194   1.829
 8414WAT     OW25240   5.526   2.277   4.630
 8414WAT    HW125241   5.539   2.289   4.729
 8414WAT    HW225242   5.495   2.184   4.612
 8415WAT     OW25243   1.146   2.271   1.567
 8415WAT    HW125244   1.150   2.198   1.499
 8415WAT    HW225245   1.052   2.280   1.600
 8416WAT     OW25246   6.407   2.498   2.934
 8416WAT    HW125247   6.463   2.483   3.015
 8416WAT    HW225248   6.320   2.449   2.944
 8417WAT     OW25249   5.044   3.588   3.975
 8417WAT    HW125250   4.951   3.562   3.949
 8417WAT    HW225251   5.090   3.627   3.895
 8418WAT     OW25252   3.716   3.787   6.338
 8418WAT    HW125253   3.734   3.851   6.412
 8418WAT    HW225254   3.797   3.780   6.280
 8419WAT     OW25255   6.435   1.358   2.645
 8419WAT    HW125256   6.363   1.420   2.615
 8419WAT    HW225257   6.495   1.405   2.709
 8420WAT     OW25258   6.331   1.589   3.692
 8420WAT    HW125259   6.359   1.684   3.700
 8420WAT    HW225260   6.334   1.561   3.596
 8421WAT     OW25261   2.226   4.946   4.659
 8421WAT    HW125262   2.245   4.848   4.654
 8421WAT    HW225263   2.199   4.980   4.569
 8422WAT     OW25264   6.523   1.913   3.483
 8422WAT    HW125265   6.602   1.861   3.450
 8422WAT    HW225266   6.491   1.874   3.569
 8423WAT     OW25267   5.576   1.642   6.549
 8423WAT    HW125268   5.558   1.581   6.627
 8423WAT    HW225269   5.493   1.694   6.528
 8424WAT     OW25270   1.040   6.297   5.230
 8424WAT    HW125271   1.059   6.221   5.167
 8424WAT    HW225272   1.036   6.263   5.324
 8425WAT     OW25273   4.152   2.355   1.925
 8425WAT    HW125274   4.222   2.403   1.872
 8425WAT    HW225275   4.114   2.416   1.994
 8426WAT     OW25276   2.677   6.041   4.782
 8426WAT    HW125277   2.648   6.021   4.875
 8426WAT    HW225278   2.614   6.107   4.741
 8427WAT     OW25279   0.638   0.166   5.051
 8427WAT    HW125280   0.561   0.130   5.103
 8427WAT    HW225281   0.697   0.221   5.112
 8428WAT     OW25282   3.128   2.207   2.900
 8428WAT    HW125283   3.157   2.124   2.947
 8428WAT    HW225284   3.185   2.284   2.930
 8429WAT     OW25285   0.988   3.953   3.627
 8429WAT    HW125286   0.897   3.922   3.653
 8429WAT    HW225287   0.988   3.978   3.530
 8430WAT     OW25288   3.186   1.638   0.952
 8430WAT    HW125289   3.118   1.686   1.008
 8430WAT    HW225290   3.254   1.595   1.012
 8431WAT     OW25291   5.094   0.329   1.594
 8431WAT    HW125292   5.065   0.265   1.665
 8431WAT    HW225293   5.192   0.346   1.603
 8432WAT     OW25294   4.351   0.872   4.026
 8432WAT    HW125295   4.379   0.944   3.963
 8432WAT    HW225296   4.369   0.900   4.120
 8433WAT     OW25297   2.154   5.966   0.185
 8433WAT    HW125298   2.180   5.873   0.212
 8433WAT    HW225299   2.082   5.963   0.116
 8434WAT     OW25300   2.236   2.756   1.045
 8434WAT    HW125301   2.310   2.770   0.978
 8434WAT    HW225302   2.271   2.703   1.122
 8435WAT     OW25303   3.172   3.982   1.917
 8435WAT    HW125304   3.258   4.033   1.917
 8435WAT    HW225305   3.153   3.949   2.010
 8436WAT     OW25306   0.060   2.485   2.408
 8436WAT    HW125307  -0.025   2.532   2.431
 8436WAT    HW225308   0.043   2.420   2.333
 8437WAT     OW25309   1.023   6.049   3.723
 8437WAT    HW125310   1.032   6.139   3.766
 8437WAT    HW225311   0.998   6.061   3.627
 8438WAT     OW25312   2.030   4.512   6.312
 8438WAT    HW125313   2.092   4.482   6.240
 8438WAT    HW225314   1.983   4.433   6.351
 8439WAT     OW25315   1.920   3.990   5.003
 8439WAT    HW125316   1.985   3.961   4.934
 8439WAT    HW225317   1.873   3.910   5.040
 8440WAT     OW25318   2.432   3.821   3.034
 8440WAT    HW125319   2.338   3.820   2.999
 8440WAT    HW225320   2.430   3.822   3.134
 8441WAT     OW25321   2.934   4.931   5.957
 8441WAT    HW125322   2.978   4.853   6.001
 8441WAT    HW225323   2.962   4.936   5.861
 8442WAT     OW25324   3.297   6.080   3.160
 8442WAT    HW125325   3.256   5.989   3.171
 8442WAT    HW225326   3.304   6.124   3.250
 8443WAT     OW25327   4.713   2.435   5.565
 8443WAT    HW125328   4.790   2.446   5.628
 8443WAT    HW225329   4.628   2.464   5.609
 8444WAT     OW25330   6.353   2.898   0.807
 8444WAT    HW125331   6.380   2.897   0.711
 8444WAT    HW225332   6.259   2.865   0.816
 8445WAT     OW25333   2.432   1.698   0.738
 8445WAT    HW125334   2.393   1.621   0.689
 8445WAT    HW225335   2.363   1.770   0.748
 8446WAT     OW25336   3.868   2.098   0.531
 8446WAT    HW125337   3.819   2.172   0.576
 8446WAT    HW225338   3.847   2.098   0.433
 8447WAT     OW25339   2.001   2.937   4.140
 8447WAT    HW125340   1.959   2.852   4.171
 8447WAT    HW225341   2.092   2.946   4.181
 8448WAT     OW25342   5.829   5.148   0.861
 8448WAT    HW125343   5.812   5.101   0.947
 8448WAT    HW225344   5.744   5.189   0.828
 8449WAT     OW25345   6.198   5.255   6.146
 8449WAT    HW125346   6.168   5.220   6.057
 8449WAT    HW225347   6.269   5.195   6.184
 8450WAT     OW25348   2.914   5.690   2.863
 8450WAT    HW125349   2.893   5.635   2.782
 8450WAT    HW225350   2.933   5.784   2.835
 8451WAT     OW25351   4.626   1.487   6.348
 8451WAT    HW125352   4.713   1.499   6.301
 8451WAT    HW225353   4.581   1.405   6.314
 8452WAT     OW25354   0.448   0.808   1.916
 8452WAT    HW125355   0.468   0.718   1.956
 8452WAT    HW225356   0.421   0.796   1.820
 8453WAT     OW25357   5.203   3.455   4.702
 8453WAT    HW125358   5.202   3.469   4.603
 8453WAT    HW225359   5.182   3.541   4.748
 8454WAT     OW25360   3.083   4.834   3.953
 8454WAT    HW125361   3.076   4.921   4.001
 8454WAT    HW225362   3.178   4.801   3.957
 8455WAT     OW25363   3.598   4.414   3.637
 8455WAT    HW125364   3.568   4.319   3.627
 8455WAT    HW225365   3.590   4.442   3.733
 8456WAT     OW25366   2.025   0.766   2.443
 8456WAT    HW125367   2.018   0.712   2.527
 8456WAT    HW225368   1.939   0.762   2.393
 8457WAT     OW25369   6.639   0.983   4.486
 8457WAT    HW125370   6.649   0.884   4.474
 8457WAT    HW225371   6.565   1.002   4.550
 8458WAT     OW25372   5.713   0.977   1.221
 8458WAT    HW125373   5.743   1.073   1.224
 8458WAT    HW225374   5.793   0.918   1.214
 8459WAT     OW25375   5.546   6.051   1.485
 8459WAT    HW125376   5.587   6.065   1.394
 8459WAT    HW225377   5.485   6.127   1.506
 8460WAT     OW25378   2.570   0.256   5.263
 8460WAT    HW125379   2.566   0.178   5.201
 8460WAT    HW225380   2.647   0.315   5.239
 8461WAT     OW25381   3.690   6.503   2.494
 8461WAT    HW125382   3.694   6.547   2.405
 8461WAT    HW225383   3.602   6.523   2.537
 8462WAT     OW25384   4.876   5.729   4.005
 8462WAT    HW125385   4.873   5.821   4.044
 8462WAT    HW225386   4.892   5.662   4.078
 8463WAT     OW25387   6.147   2.385   2.042
 8463WAT    HW125388   6.151   2.417   1.948
 8463WAT    HW225389   6.058   2.344   2.060
 8464WAT     OW25390   2.330   2.599   1.259
 8464WAT    HW125391   2.375   2.516   1.226
 8464WAT    HW225392   2.236   2.579   1.284
 8465WAT     OW25393   6.238   4.920   6.423
 8465WAT    HW125394   6.276   5.005   6.386
 8465WAT    HW225395   6.189   4.939   6.508
 8466WAT     OW25396   0.446   2.350   5.350
 8466WAT    HW125397   0.491   2.322   5.435
 8466WAT    HW225398   0.454   2.277   5.282
 8467WAT     OW25399   2.316   2.614   4.290
 8467WAT    HW125400   2.290   2.594   4.196
 8467WAT    HW225401   2.401   2.668   4.290
 8468WAT     OW25402   3.738   1.964   6.150
 8468WAT    HW125403   3.815   2.026   6.164
 8468WAT    HW225404   3.663   2.014   6.107
 8469WAT     OW25405   0.225   4.959   1.401
 8469WAT    HW125406   0.131   4.922   1.403
 8469WAT    HW225407   0.271   4.935   1.486
 8470WAT     OW25408   1.196   3.625   5.723
 8470WAT    HW125409   1.206   3.721   5.699
 8470WAT    HW225410   1.105   3.610   5.763
 8471WAT     OW25411   2.671   4.946   1.982
 8471WAT    HW125412   2.760   4.908   1.956
 8471WAT    HW225413   2.683   5.011   2.057
 8472WAT     OW25414   6.443   4.617   2.583
 8472WAT    HW125415   6.429   4.680   2.507
 8472WAT    HW225416   6.383   4.641   2.659
 8473WAT     OW25417   6.548   4.868   4.554
 8473WAT    HW125418   6.549   4.827   4.645
 8473WAT    HW225419   6.533   4.796   4.486
 8474WAT     OW25420   4.930   4.408   5.769
 8474WAT    HW125421   4.841   4.426   5.726
 8474WAT    HW225422   5.002   4.416   5.700
 8475WAT     OW25423   1.506   2.132   5.667
 8475WAT    HW125424   1.447   2.052   5.681
 8475WAT    HW225425   1.528   2.140   5.570
 8476WAT     OW25426   1.987   3.304   0.692
 8476WAT    HW125427   1.900   3.256   0.681
 8476WAT    HW225428   2.057   3.260   0.636
 8477WAT     OW25429   4.149   4.309   1.894
 8477WAT    HW125430   4.201   4.392   1.875
 8477WAT    HW225431   4.129   4.304   1.992
 8478WAT     OW25432   2.405   5.182   0.182
 8478WAT    HW125433   2.358   5.118   0.243
 8478WAT    HW225434   2.407   5.145   0.089
 8479WAT     OW25435   5.469   0.149   5.321
 8479WAT    HW125436   5.431   0.127   5.232
 8479WAT    HW225437   5.531   0.076   5.350
 8480WAT     OW25438   3.822   4.318   4.114
 8480WAT    HW125439   3.910   4.272   4.125
 8480WAT    HW225440   3.767   4.269   4.047
 8481WAT     OW25441   6.130   4.499   4.184
 8481WAT    HW125442   6.098   4.407   4.160
 8481WAT    HW225443   6.065   4.542   4.247
 8482WAT     OW25444   2.510   5.414   0.456
 8482WAT    HW125445   2.415   5.399   0.483
 8482WAT    HW225446   2.570   5.361   0.516
 8483WAT     OW25447   2.500   1.770   6.099
 8483WAT    HW125448   2.407   1.796   6.072
 8483WAT    HW225449   2.540   1.713   6.027
 8484WAT     OW25450   1.527   3.030   2.663
 8484WAT    HW125451   1.475   3.053   2.580
 8484WAT    HW225452   1.489   3.079   2.741
 8485WAT     OW25453   2.285   0.675   6.474
 8485WAT    HW125454   2.322   0.707   6.387
 8485WAT    HW225455   2.320   0.584   6.494
 8486WAT     OW25456   5.256   4.750   4.752
 8486WAT    HW125457   5.297   4.784   4.667
 8486WAT    HW225458   5.278   4.812   4.827
 8487WAT     OW25459   6.287   0.855   5.683
 8487WAT    HW125460   6.249   0.872   5.593
 8487WAT    HW225461   6.381   0.822   5.674
 8488WAT     OW25462   0.420   4.630   1.638
 8488WAT    HW125463   0.352   4.556   1.637
 8488WAT    HW225464   0.473   4.628   1.553
 8489WAT     OW25465   2.324   3.803   4.122
 8489WAT    HW125466   2.398   3.769   4.064
 8489WAT    HW225467   2.267   3.727   4.151
 8490WAT     OW25468   0.631   4.801   5.449
 8490WAT    HW125469   0.679   4.719   5.482
 8490WAT    HW225470   0.533   4.791   5.466
 8491WAT     OW25471   3.891   1.176   4.396
 8491WAT    HW125472   3.990   1.185   4.388
 8491WAT    HW225473   3.862   1.203   4.487
 8492WAT     OW25474   2.315   6.037   3.324
 8492WAT    HW125475   2.239   6.047   3.259
 8492WAT    HW225476   2.314   5.945   3.362
 8493WAT     OW25477   2.973   1.643   0.333
 8493WAT    HW125478   3.024   1.590   0.401
 8493WAT    HW225479   2.909   1.704   0.379
 8494WAT     OW25480   3.872   6.414   2.697
 8494WAT    HW125481   3.822   6.447   2.617
 8494WAT    HW225482   3.922   6.331   2.673
 8495WAT     OW25483   1.335   0.390   4.078
 8495WAT    HW125484   1.272   0.375   4.154
 8495WAT    HW225485   1.285   0.429   4.001
 8496WAT     OW25486   1.212   1.994   0.520
 8496WAT    HW125487   1.240   1.964   0.429
 8496WAT    HW225488   1.221   1.918   0.585
 8497WAT     OW25489   0.290   0.607   6.537
 8497WAT    HW125490   0.245   0.566   6.617
 8497WAT    HW225491   0.292   0.539   6.463
 8498WAT     OW25492   2.804   6.543   1.854
 8498WAT    HW125493   2.887   6.489   1.839
 8498WAT    HW225494   2.822   6.638   1.829
 8499WAT     OW25495   5.800   4.019   3.828
 8499WAT    HW125496   5.895   3.997   3.805
 8499WAT    HW225497   5.796   4.108   3.873
 8500WAT     OW25498   4.768   0.633   3.470
 8500WAT    HW125499   4.808   0.664   3.557
 8500WAT    HW225500   4.782   0.703   3.400
 8501WAT     OW25501   3.108   6.324   1.097
 8501WAT    HW125502   3.162   6.251   1.138
 8501WAT    HW225503   3.148   6.413   1.121
 8502WAT     OW25504   5.189   0.846   6.558
 8502WAT    HW125505   5.212   0.878   6.650
 8502WAT    HW225506   5.098   0.879   6.534
 8503WAT     OW25507   5.542   5.488   0.143
 8503WAT    HW125508   5.641   5.478   0.137
 8503WAT    HW225509   5.498   5.415   0.091
 8504WAT     OW25510   2.803   6.632   2.648
 8504WAT    HW125511   2.777   6.669   2.737
 8504WAT    HW225512   2.879   6.569   2.659
 8505WAT     OW25513   1.139   6.282   6.619
 8505WAT    HW125514   1.143   6.254   6.523
 8505WAT    HW225515   1.219   6.246   6.667
 8506WAT     OW25516   4.470   1.511   3.053
 8506WAT    HW125517   4.374   1.496   3.031
 8506WAT    HW225518   4.518   1.547   2.973
 8507WAT     OW25519   2.076   1.036   2.448
 8507WAT    HW125520   2.077   0.937   2.437
 8507WAT    HW225521   1.984   1.065   2.476
 8508WAT     OW25522   4.051   1.402   4.746
 8508WAT    HW125523   3.979   1.451   4.794
 8508WAT    HW225524   4.046   1.304   4.769
 8509WAT     OW25525   0.123   1.767   4.546
 8509WAT    HW125526   0.025   1.765   4.564
 8509WAT    HW225527   0.145   1.845   4.487
 8510WAT     OW25528   6.086   3.353   5.461
 8510WAT    HW125529   6.137   3.419   5.406
 8510WAT    HW225530   6.126   3.262   5.449
 8511WAT     OW25531   1.075   2.635   6.340
 8511WAT    HW125532   1.127   2.580   6.275
 8511WAT    HW225533   1.049   2.722   6.298
 8512WAT     OW25534   0.656   5.657   3.679
 8512WAT    HW125535   0.743   5.633   3.636
 8512WAT    HW225536   0.595   5.698   3.611
 8513WAT     OW25537   0.587   2.967   6.034
 8513WAT    HW125538   0.641   3.033   6.086
 8513WAT    HW225539   0.525   2.919   6.096
 8514WAT     OW25540   5.218   2.755   2.072
 8514WAT    HW125541   5.217   2.670   2.124
 8514WAT    HW225542   5.189   2.737   1.978
 8515WAT     OW25543   0.176   3.747   3.886
 8515WAT    HW125544   0.182   3.671   3.950
 8515WAT    HW225545   0.098   3.734   3.824
 8516WAT     OW25546   2.590   2.700   4.887
 8516WAT    HW125547   2.569   2.773   4.952
 8516WAT    HW225548   2.649   2.735   4.815
 8517WAT     OW25549   6.108   1.272   1.172
 8517WAT    HW125550   6.144   1.310   1.087
 8517WAT    HW225551   6.133   1.175   1.179
 8518WAT     OW25552   0.111   1.675   2.531
 8518WAT    HW125553   0.123   1.600   2.596
 8518WAT    HW225554   0.094   1.638   2.440
 8519WAT     OW25555   1.409   4.965   6.091
 8519WAT    HW125556   1.391   4.942   6.186
 8519WAT    HW225557   1.441   4.884   6.042
 8520WAT     OW25558   5.755   2.316   1.469
 8520WAT    HW125559   5.828   2.371   1.511
 8520WAT    HW225560   5.691   2.376   1.423
 8521WAT     OW25561   2.883   3.642   0.667
 8521WAT    HW125562   2.871   3.612   0.573
 8521WAT    HW225563   2.942   3.577   0.716
 8522WAT     OW25564   2.546   1.029   2.241
 8522WAT    HW125565   2.532   1.080   2.326
 8522WAT    HW225566   2.461   0.982   2.215
 8523WAT     OW25567   2.102   0.248   3.939
 8523WAT    HW125568   2.098   0.149   3.949
 8523WAT    HW225569   2.009   0.284   3.929
 8524WAT     OW25570   0.000   5.113   3.229
 8524WAT    HW125571   0.048   5.027   3.210
 8524WAT    HW225572  -0.098   5.095   3.234
 8525WAT     OW25573   1.703   4.668   6.517
 8525WAT    HW125574   1.669   4.676   6.423
 8525WAT    HW225575   1.800   4.688   6.520
 8526WAT     OW25576   1.004   0.500   5.530
 8526WAT    HW125577   1.009   0.466   5.436
 8526WAT    HW225578   1.045   0.591   5.534
 8527WAT     OW25579   4.819   0.901   0.874
 8527WAT    HW125580   4.775   0.855   0.798
 8527WAT    HW225581   4.866   0.983   0.842
 8528WAT     OW25582   3.216   3.132   0.105
 8528WAT    HW125583   3.130   3.151   0.152
 8528WAT    HW225584   3.229   3.033   0.099
 8529WAT     OW25585   5.610   3.061   2.491
 8529WAT    HW125586   5.529   3.009   2.519
 8529WAT    HW225587   5.624   3.137   2.554
 8530WAT     OW25588   4.051   1.431   6.105
 8530WAT    HW125589   4.033   1.470   6.015
 8530WAT    HW225590   4.003   1.485   6.175
 8531WAT     OW25591   4.997   5.985   3.174
 8531WAT    HW125592   4.956   6.009   3.085
 8531WAT    HW225593   4.979   5.889   3.194
 8532WAT     OW25594   6.176   3.115   2.729
 8532WAT    HW125595   6.269   3.148   2.713
 8532WAT    HW225596   6.167   3.084   2.824
 8533WAT     OW25597   5.361   2.626   1.233
 8533WAT    HW125598   5.289   2.557   1.235
 8533WAT    HW225599   5.357   2.676   1.146
 8534WAT     OW25600   6.109   5.959   3.233
 8534WAT    HW125601   6.054   6.024   3.285
 8534WAT    HW225602   6.050   5.889   3.193
 8535WAT     OW25603   5.635   2.397   3.940
 8535WAT    HW125604   5.706   2.334   3.908
 8535WAT    HW225605   5.642   2.483   3.891
 8536WAT     OW25606   0.958   5.818   4.759
 8536WAT    HW125607   1.037   5.867   4.796
 8536WAT    HW225608   0.956   5.726   4.798
 8537WAT     OW25609   0.251   4.415   1.646
 8537WAT    HW125610   0.293   4.326   1.628
 8537WAT    HW225611   0.200   4.412   1.732
 8538WAT     OW25612   0.700   2.815   5.828
 8538WAT    HW125613   0.655   2.870   5.899
 8538WAT    HW225614   0.736   2.875   5.757
 8539WAT     OW25615   3.535   0.295   6.094
 8539WAT    HW125616   3.600   0.230   6.055
 8539WAT    HW225617   3.565   0.388   6.073
 8540WAT     OW25618   6.407   3.191   5.573
 8540WAT    HW125619   6.365   3.238   5.650
 8540WAT    HW225620   6.335   3.147   5.518
 8541WAT     OW25621   4.769   2.741   0.850
 8541WAT    HW125622   4.698   2.808   0.830
 8541WAT    HW225623   4.763   2.665   0.785
 8542WAT     OW25624   1.823   1.053   2.548
 8542WAT    HW125625   1.748   0.995   2.516
 8542WAT    HW225626   1.849   1.024   2.640
 8543WAT     OW25627   2.422   0.781   3.973
 8543WAT    HW125628   2.522   0.783   3.966
 8543WAT    HW225629   2.395   0.715   4.042
 8544WAT     OW25630   1.324   5.825   3.572
 8544WAT    HW125631   1.322   5.894   3.644
 8544WAT    HW225632   1.259   5.850   3.500
 8545WAT     OW25633   2.853   3.817   3.769
 8545WAT    HW125634   2.777   3.881   3.756
 8545WAT    HW225635   2.939   3.866   3.762
 8546WAT     OW25636   3.209   0.958   0.927
 8546WAT    HW125637   3.151   0.949   1.008
 8546WAT    HW225638   3.167   1.022   0.862
 8547WAT     OW25639   1.435   0.154   0.666
 8547WAT    HW125640   1.456   0.214   0.589
 8547WAT    HW225641   1.337   0.134   0.666
 8548WAT     OW25642   1.777   0.322   6.054
 8548WAT    HW125643   1.861   0.270   6.038
 8548WAT    HW225644   1.789   0.415   6.019
 8549WAT     OW25645   5.321   0.071   4.105
 8549WAT    HW125646   5.391   0.130   4.064
 8549WAT    HW225647   5.334   0.068   4.204
 8550WAT     OW25648   4.080   4.790   1.532
 8550WAT    HW125649   4.091   4.818   1.628
 8550WAT    HW225650   4.042   4.866   1.479
 8551WAT     OW25651   4.478   1.458   6.016
 8551WAT    HW125652   4.461   1.415   5.928
 8551WAT    HW225653   4.509   1.389   6.082
 8552WAT     OW25654   3.101   4.688   6.052
 8552WAT    HW125655   3.049   4.669   6.135
 8552WAT    HW225656   3.164   4.613   6.034
 8553WAT     OW25657   5.623   6.624   5.426
 8553WAT    HW125658   5.630   6.655   5.521
 8553WAT    HW225659   5.712   6.590   5.396
 8554WAT     OW25660   0.428   0.018   0.279
 8554WAT    HW125661   0.443  -0.071   0.322
 8554WAT    HW225662   0.474   0.021   0.191
 8555WAT     OW25663   4.339   3.451   3.192
 8555WAT    HW125664   4.404   3.377   3.177
 8555WAT    HW225665   4.252   3.413   3.224
 8556WAT     OW25666   3.182   4.166   4.659
 8556WAT    HW125667   3.124   4.219   4.597
 8556WAT    HW225668   3.157   4.187   4.754
 8557WAT     OW25669   3.105   2.052   6.205
 8557WAT    HW125670   3.008   2.070   6.222
 8557WAT    HW225671   3.113   1.982   6.133
 8558WAT     OW25672   2.862   1.287   3.102
 8558WAT    HW125673   2.857   1.387   3.102
 8558WAT    HW225674   2.801   1.250   3.173
 8559WAT     OW25675   0.278   2.220   1.551
 8559WAT    HW125676   0.258   2.124   1.529
 8559WAT    HW225677   0.192   2.270   1.563
 8560WAT     OW25678   5.778   5.845   5.902
 8560WAT    HW125679   5.860   5.797   5.871
 8560WAT    HW225680   5.718   5.861   5.823
 8561WAT     OW25681   5.673   5.372   0.550
 8561WAT    HW125682   5.771   5.386   0.531
 8561WAT    HW225683   5.620   5.437   0.496
 8562WAT     OW25684   0.593   2.599   5.682
 8562WAT    HW125685   0.562   2.624   5.590
 8562WAT    HW225686   0.632   2.678   5.727
 8563WAT     OW25687   2.073   1.017   6.641
 8563WAT    HW125688   1.992   1.069   6.614
 8563WAT    HW225689   2.062   0.921   6.613
 8564WAT     OW25690   4.146   4.716   5.954
 8564WAT    HW125691   4.201   4.726   6.038
 8564WAT    HW225692   4.065   4.661   5.975
 8565WAT     OW25693   1.897   1.142   5.140
 8565WAT    HW125694   1.837   1.100   5.072
 8565WAT    HW225695   1.960   1.205   5.095
 8566WAT     OW25696   0.997   2.647   1.769
 8566WAT    HW125697   1.069   2.652   1.838
 8566WAT    HW225698   1.038   2.649   1.678
 8567WAT     OW25699   3.056   6.650   0.263
 8567WAT    HW125700   3.045   6.731   0.206
 8567WAT    HW225701   2.975   6.592   0.255
 8568WAT     OW25702   5.973   1.771   4.722
 8568WAT    HW125703   5.993   1.708   4.647
 8568WAT    HW225704   6.046   1.838   4.730
 8569WAT     OW25705   0.690   3.996   5.462
 8569WAT    HW125706   0.764   3.936   5.432
 8569WAT    HW225707   0.715   4.041   5.548
 8570WAT     OW25708   5.004   2.106   4.823
 8570WAT    HW125709   4.974   2.198   4.848
 8570WAT    HW225710   4.960   2.039   4.883
 8571WAT     OW25711   5.248   4.236   2.336
 8571WAT    HW125712   5.183   4.162   2.352
 8571WAT    HW225713   5.296   4.257   2.421
 8572WAT     OW25714   0.428   0.840   0.174
 8572WAT    HW125715   0.378   0.856   0.089
 8572WAT    HW225716   0.527   0.847   0.156
 8573WAT     OW25717   4.547   0.084   6.290
 8573WAT    HW125718   4.547   0.114   6.385
 8573WAT    HW225719   4.625   0.123   6.242
 8574WAT     OW25720   4.445   3.364   0.220
 8574WAT    HW125721   4.404   3.285   0.264
 8574WAT    HW225722   4.384   3.443   0.228
 8575WAT     OW25723   5.443   4.605   0.697
 8575WAT    HW125724   5.495   4.690   0.695
 8575WAT    HW225725   5.499   4.533   0.739
 8576WAT     OW25726   4.431   0.707   1.955
 8576WAT    HW125727   4.372   0.627   1.962
 8576WAT    HW225728   4.435   0.738   1.859
 8577WAT     OW25729   6.045   4.335   5.522
 8577WAT    HW125730   6.015   4.413   5.467
 8577WAT    HW225731   6.015   4.346   5.616
 8578WAT     OW25732   2.091   6.444   6.462
 8578WAT    HW125733   2.088   6.429   6.561
 8578WAT    HW225734   2.042   6.370   6.416
 8579WAT     OW25735   3.972   3.555   3.890
 8579WAT    HW125736   3.984   3.591   3.798
 8579WAT    HW225737   4.061   3.545   3.934
 8580WAT     OW25738   2.325   0.893   2.160
 8580WAT    HW125739   2.253   0.952   2.124
 8580WAT    HW225740   2.283   0.819   2.213
 8581WAT     OW25741   5.477   1.118   0.760
 8581WAT    HW125742   5.478   1.020   0.741
 8581WAT    HW225743   5.569   1.148   0.784
 8582WAT     OW25744   4.052   5.827   6.143
 8582WAT    HW125745   4.071   5.844   6.240
 8582WAT    HW225746   3.969   5.771   6.135
 8583WAT     OW25747   2.536   4.863   6.119
 8583WAT    HW125748   2.501   4.945   6.165
 8583WAT    HW225749   2.571   4.888   6.029
 8584WAT     OW25750   6.644   0.164   5.204
 8584WAT    HW125751   6.601   0.095   5.146
 8584WAT    HW225752   6.739   0.177   5.175
 8585WAT     OW25753   3.955   0.909   1.587
 8585WAT    HW125754   3.868   0.863   1.608
 8585WAT    HW225755   4.029   0.865   1.638
 8586WAT     OW25756   0.131   4.197   6.572
 8586WAT    HW125757   0.105   4.292   6.559
 8586WAT    HW225758   0.225   4.192   6.608
 8587WAT     OW25759   2.140   3.227   4.596
 8587WAT    HW125760   2.091   3.211   4.510
 8587WAT    HW225761   2.159   3.325   4.605
 8588WAT     OW25762   6.667   6.029   1.682
 8588WAT    HW125763   6.585   5.972   1.693
 8588WAT    HW225764   6.674   6.058   1.587
 8589WAT     OW25765   1.713   2.693   2.388
 8589WAT    HW125766   1.670   2.688   2.479
 8589WAT    HW225767   1.716   2.789   2.359
 8590WAT     OW25768   0.354   4.176   1.574
 8590WAT    HW125769   0.347   4.159   1.476
 8590WAT    HW225770   0.441   4.141   1.607
 8591WAT     OW25771   2.733   3.172   3.632
 8591WAT    HW125772   2.639   3.142   3.649
 8591WAT    HW225773   2.772   3.119   3.557
 8592WAT     OW25774   4.747   5.655   1.657
 8592WAT    HW125775   4.758   5.636   1.754
 8592WAT    HW225776   4.776   5.575   1.604
 8593WAT     OW25777   0.805   2.903   1.068
 8593WAT    HW125778   0.806   2.927   1.165
 8593WAT    HW225779   0.710   2.891   1.038
 8594WAT     OW25780   0.701   5.343   6.154
 8594WAT    HW125781   0.640   5.421   6.145
 8594WAT    HW225782   0.648   5.258   6.152
 8595WAT     OW25783   5.127   5.471   5.271
 8595WAT    HW125784   5.049   5.411   5.286
 8595WAT    HW225785   5.185   5.471   5.353
 8596WAT     OW25786   5.340   2.458   4.854
 8596WAT    HW125787   5.273   2.447   4.780
 8596WAT    HW225788   5.386   2.371   4.870
 8597WAT     OW25789   1.801   2.435   6.070
 8597WAT    HW125790   1.851   2.437   6.157
 8597WAT    HW225791   1.857   2.477   5.999
 8598WAT     OW25792   6.423   0.319   4.937
 8598WAT    HW125793   6.343   0.266   4.962
 8598WAT    HW225794   6.464   0.359   5.019
 8599WAT     OW25795   4.014   2.950   2.792
 8599WAT    HW125796   3.989   3.025   2.854
 8599WAT    HW225797   4.105   2.966   2.755
 8600WAT     OW25798   0.529   5.437   3.783
 8600WAT    HW125799   0.572   5.521   3.750
 8600WAT    HW225800   0.493   5.385   3.706
 8601WAT     OW25801   5.555   6.403   4.125
 8601WAT    HW125802   5.476   6.349   4.153
 8601WAT    HW225803   5.623   6.343   4.081
 8602WAT     OW25804   4.000   6.259   1.279
 8602WAT    HW125805   4.086   6.209   1.287
 8602WAT    HW225806   3.952   6.229   1.197
 8603WAT     OW25807   5.612   6.195   2.742
 8603WAT    HW125808   5.590   6.211   2.838
 8603WAT    HW225809   5.698   6.241   2.719
 8604WAT     OW25810   3.935   0.738   5.889
 8604WAT    HW125811   3.936   0.674   5.966
 8604WAT    HW225812   3.931   0.832   5.923
 8605WAT     OW25813   3.739   4.710   2.181
 8605WAT    HW125814   3.740   4.611   2.166
 8605WAT    HW225815   3.645   4.739   2.203
 8606WAT     OW25816   0.786   3.077   0.247
 8606WAT    HW125817   0.689   3.083   0.225
 8606WAT    HW225818   0.819   3.166   0.277
 8607WAT     OW25819   2.731   2.374   0.378
 8607WAT    HW125820   2.713   2.453   0.436
 8607WAT    HW225821   2.818   2.332   0.406
 8608WAT     OW25822   4.214   4.239   5.737
 8608WAT    HW125823   4.198   4.289   5.823
 8608WAT    HW225824   4.131   4.240   5.682
 8609WAT     OW25825   5.489   4.563   3.881
 8609WAT    HW125826   5.527   4.642   3.833
 8609WAT    HW225827   5.394   4.550   3.854
 8610WAT     OW25828   5.797   4.016   6.290
 8610WAT    HW125829   5.814   4.108   6.255
 8610WAT    HW225830   5.795   4.018   6.390
 8611WAT     OW25831   0.214   0.458   5.662
 8611WAT    HW125832   0.188   0.495   5.572
 8611WAT    HW225833   0.295   0.401   5.652
 8612WAT     OW25834   1.524   1.116   3.985
 8612WAT    HW125835   1.574   1.106   4.071
 8612WAT    HW225836   1.427   1.131   4.004
 8613WAT     OW25837   2.209   2.657   5.974
 8613WAT    HW125838   2.225   2.704   6.061
 8613WAT    HW225839   2.219   2.722   5.898
 8614WAT     OW25840   5.742   3.027   5.635
 8614WAT    HW125841   5.693   2.948   5.598
 8614WAT    HW225842   5.741   3.023   5.734
 8615WAT     OW25843   0.720   0.484   4.125
 8615WAT    HW125844   0.781   0.406   4.114
 8615WAT    HW225845   0.722   0.540   4.042
 8616WAT     OW25846   0.396   1.084   3.464
 8616WAT    HW125847   0.479   1.136   3.443
 8616WAT    HW225848   0.341   1.134   3.531
 8617WAT     OW25849   1.417   0.704   4.664
 8617WAT    HW125850   1.413   0.637   4.590
 8617WAT    HW225851   1.325   0.727   4.694
 8618WAT     OW25852   0.778   2.382   4.140
 8618WAT    HW125853   0.793   2.402   4.237
 8618WAT    HW225854   0.865   2.383   4.091
 8619WAT     OW25855   6.171   5.449   3.839
 8619WAT    HW125856   6.129   5.450   3.748
 8619WAT    HW225857   6.173   5.542   3.875
 8620WAT     OW25858   3.292   0.636   4.424
 8620WAT    HW125859   3.374   0.621   4.479
 8620WAT    HW225860   3.212   0.598   4.472
 8621WAT     OW25861   4.945   5.165   0.719
 8621WAT    HW125862   4.862   5.221   0.709
 8621WAT    HW225863   5.025   5.219   0.697
 8622WAT     OW25864   3.369   1.614   3.055
 8622WAT    HW125865   3.403   1.581   3.143
 8622WAT    HW225866   3.408   1.560   2.981
 8623WAT     OW25867   2.477   3.326   0.794
 8623WAT    HW125868   2.572   3.300   0.806
 8623WAT    HW225869   2.443   3.368   0.879
 8624WAT     OW25870   4.595   2.972   0.860
 8624WAT    HW125871   4.604   2.955   0.958
 8624WAT    HW225872   4.530   3.046   0.846
 8625WAT     OW25873   4.050   6.260   6.560
 8625WAT    HW125874   4.040   6.247   6.659
 8625WAT    HW225875   4.107   6.340   6.542
 8626WAT     OW25876   1.336   4.006   2.110
 8626WAT    HW125877   1.327   4.059   2.026
 8626WAT    HW225878   1.282   4.048   2.182
 8627WAT     OW25879   4.135   1.903   1.852
 8627WAT    HW125880   4.213   1.843   1.866
 8627WAT    HW225881   4.139   1.979   1.917
 8628WAT     OW25882   1.661   1.326   5.678
 8628WAT    HW125883   1.724   1.403   5.673
 8628WAT    HW225884   1.712   1.241   5.686
 8629WAT     OW25885   0.363   4.896   2.193
 8629WAT    HW125886   0.357   4.831   2.118
 8629WAT    HW225887   0.452   4.888   2.237
 8630WAT     OW25888   6.588   1.857   2.516
 8630WAT    HW125889   6.660   1.788   2.520
 8630WAT    HW225890   6.625   1.946   2.545
 8631WAT     OW25891   1.015   2.014   3.144
 8631WAT    HW125892   1.065   2.072   3.208
 8631WAT    HW225893   1.061   2.016   3.055
 8632WAT     OW25894   5.367   5.726   3.089
 8632WAT    HW125895   5.460   5.731   3.052
 8632WAT    HW225896   5.340   5.815   3.124
 8633WAT     OW25897   1.433   6.627   2.349
 8633WAT    HW125898   1.357   6.625   2.285
 8633WAT    HW225899   1.433   6.715   2.397
 8634WAT     OW25900   5.415   4.882   2.938
 8634WAT    HW125901   5.425   4.952   3.009
 8634WAT    HW225902   5.320   4.849   2.938
 8635WAT     OW25903   1.905   4.295   5.937
 8635WAT    HW125904   1.959   4.373   5.904
 8635WAT    HW225905   1.946   4.260   6.021
 8636WAT     OW25906   4.535   0.255   1.070
 8636WAT    HW125907   4.601   0.274   1.142
 8636WAT    HW225908   4.525   0.335   1.010
 8637WAT     OW25909   1.631   4.994   3.422
 8637WAT    HW125910   1.558   5.050   3.382
 8637WAT    HW225911   1.667   5.039   3.504
 8638WAT     OW25912   0.369   4.234   0.571
 8638WAT    HW125913   0.459   4.271   0.595
 8638WAT    HW225914   0.322   4.298   0.510
 8639WAT     OW25915   6.678   1.471   4.017
 8639WAT    HW125916   6.672   1.373   4.039
 8639WAT    HW225917   6.586   1.509   4.007
 8640WAT     OW25918   5.835   3.855   4.351
 8640WAT    HW125919   5.810   3.868   4.255
 8640WAT    HW225920   5.861   3.944   4.390
 8641WAT     OW25921   5.247   2.281   2.132
 8641WAT    HW125922   5.182   2.205   2.146
 8641WAT    HW225923   5.305   2.260   2.054
 8642WAT     OW25924   0.362   1.776   3.936
 8642WAT    HW125925   0.274   1.823   3.920
 8642WAT    HW225926   0.437   1.839   3.915
 8643WAT     OW25927   1.688   1.784   4.543
 8643WAT    HW125928   1.645   1.804   4.455
 8643WAT    HW225929   1.641   1.706   4.586
 8644WAT     OW25930   5.939   4.760   0.041
 8644WAT    HW125931   5.916   4.686  -0.023
 8644WAT    HW225932   5.856   4.791   0.088
 8645WAT     OW25933   2.469   0.039   2.885
 8645WAT    HW125934   2.445  -0.046   2.838
 8645WAT    HW225935   2.387   0.077   2.929
 8646WAT     OW25936   6.195   3.535   5.292
 8646WAT    HW125937   6.129   3.511   5.221
 8646WAT    HW225938   6.287   3.516   5.260
 8647WAT     OW25939   5.792   3.345   6.361
 8647WAT    HW125940   5.730   3.298   6.299
 8647WAT    HW225941   5.826   3.428   6.317
 8648WAT     OW25942   2.720   1.915   4.671
 8648WAT    HW125943   2.741   1.855   4.749
 8648WAT    HW225944   2.647   1.978   4.696
 8649WAT     OW25945   5.061   3.391   2.853
 8649WAT    HW125946   4.981   3.358   2.803
 8649WAT    HW225947   5.036   3.408   2.949
 8650WAT     OW25948   2.900   0.704   4.452
 8650WAT    HW125949   2.939   0.791   4.481
 8650WAT    HW225950   2.803   0.717   4.429
 8651WAT     OW25951   1.407   0.517   4.463
 8651WAT    HW125952   1.396   0.583   4.389
 8651WAT    HW225953   1.441   0.430   4.426
 8652WAT     OW25954   3.850   4.801   0.207
 8652WAT    HW125955   3.822   4.896   0.217
 8652WAT    HW225956   3.823   4.749   0.287
 8653WAT     OW25957   4.503   0.135   5.281
 8653WAT    HW125958   4.415   0.168   5.312
 8653WAT    HW225959   4.575   0.163   5.345
 8654WAT     OW25960   3.856   2.160   6.455
 8654WAT    HW125961   3.800   2.095   6.506
 8654WAT    HW225962   3.953   2.144   6.476
 8655WAT     OW25963   2.701   2.094   3.057
 8655WAT    HW125964   2.733   2.000   3.054
 8655WAT    HW225965   2.778   2.154   3.081
 8656WAT     OW25966   5.913   0.790   2.687
 8656WAT    HW125967   5.895   0.795   2.785
 8656WAT    HW225968   5.998   0.838   2.666
 8657WAT     OW25969   6.373   5.309   3.083
 8657WAT    HW125970   6.397   5.392   3.134
 8657WAT    HW225971   6.422   5.307   2.996
 8658WAT     OW25972   4.617   0.843   4.498
 8658WAT    HW125973   4.569   0.879   4.418
 8658WAT    HW225974   4.552   0.799   4.560
 8659WAT     OW25975   1.097   5.078   3.067
 8659WAT    HW125976   1.099   5.099   3.165
 8659WAT    HW225977   1.014   5.117   3.027
 8660WAT     OW25978   3.615   1.506   1.859
 8660WAT    HW125979   3.603   1.468   1.951
 8660WAT    HW225980   3.712   1.512   1.837
 8661WAT     OW25981   3.874   2.409   4.244
 8661WAT    HW125982   3.956   2.465   4.255
 8661WAT    HW225983   3.833   2.427   4.154
 8662WAT     OW25984   1.136   3.647   6.401
 8662WAT    HW125985   1.067   3.679   6.465
 8662WAT    HW225986   1.227   3.667   6.438
 8663WAT     OW25987   5.226   0.541   2.727
 8663WAT    HW125988   5.241   0.479   2.804
 8663WAT    HW225989   5.128   0.541   2.704
 8664WAT     OW25990   1.029   5.860   1.642
 8664WAT    HW125991   1.025   5.960   1.641
 8664WAT    HW225992   0.956   5.824   1.700
 8665WAT     OW25993   1.994   2.834   5.171
 8665WAT    HW125994   2.040   2.796   5.091
 8665WAT    HW225995   1.919   2.893   5.141
 8666WAT     OW25996   0.417   3.521   2.642
 8666WAT    HW125997   0.449   3.430   2.671
 8666WAT    HW225998   0.443   3.589   2.711
 8667WAT     OW25999   5.953   2.064   0.626
 8667WAT    HW126000   5.912   1.982   0.665
 8667WAT    HW226001   5.881   2.130   0.605
 8668WAT     OW26002   1.703   4.391   6.537
 8668WAT    HW126003   1.612   4.350   6.541
 8668WAT    HW226004   1.696   4.490   6.532
 8669WAT     OW26005   6.076   5.459   3.583
 8669WAT    HW126006   6.146   5.480   3.515
 8669WAT    HW226007   6.004   5.404   3.541
 8670WAT     OW26008   4.025   2.757   3.765
 8670WAT    HW126009   4.035   2.686   3.695
 8670WAT    HW226010   3.982   2.719   3.846
 8671WAT     OW26011   4.729   3.595   6.664
 8671WAT    HW126012   4.707   3.580   6.761
 8671WAT    HW226013   4.790   3.522   6.633
 8672WAT     OW26014   3.559   4.690   1.334
 8672WAT    HW126015   3.597   4.746   1.261
 8672WAT    HW226016   3.629   4.673   1.403
 8673WAT     OW26017   3.337   6.429   4.628
 8673WAT    HW126018   3.435   6.434   4.608
 8673WAT    HW226019   3.286   6.457   4.547
 8674WAT     OW26020   3.867   0.709   4.257
 8674WAT    HW126021   3.789   0.677   4.310
 8674WAT    HW226022   3.951   0.692   4.307
 8675WAT     OW26023   6.585   6.368   2.234
 8675WAT    HW126024   6.614   6.463   2.238
 8675WAT    HW226025   6.613   6.328   2.146
 8676WAT     OW26026   4.108   4.930   2.466
 8676WAT    HW126027   4.032   4.909   2.404
 8676WAT    HW226028   4.072   4.978   2.546
 8677WAT     OW26029   3.801   3.640   2.656
 8677WAT    HW126030   3.840   3.582   2.727
 8677WAT    HW226031   3.832   3.735   2.671
 8678WAT     OW26032   5.009   0.669   5.192
 8678WAT    HW126033   5.071   0.590   5.188
 8678WAT    HW226034   4.934   0.649   5.255
 8679WAT     OW26035   4.280   2.631   2.731
 8679WAT    HW126036   4.367   2.630   2.780
 8679WAT    HW226037   4.206   2.660   2.792
 8680WAT     OW26038   4.436   5.047   3.685
 8680WAT    HW126039   4.497   5.013   3.756
 8680WAT    HW226040   4.464   5.140   3.659
 8681WAT     OW26041   0.011   3.836   2.161
 8681WAT    HW126042  -0.061   3.769   2.140
 8681WAT    HW226043   0.077   3.795   2.224
 8682WAT     OW26044   4.855   6.631   2.019
 8682WAT    HW126045   4.786   6.588   1.961
 8682WAT    HW226046   4.825   6.724   2.043
 8683WAT     OW26047   6.590   0.049   4.308
 8683WAT    HW126048   6.673   0.077   4.260
 8683WAT    HW226049   6.609  -0.035   4.360
 8684WAT     OW26050   3.330   2.490   0.543
 8684WAT    HW126051   3.326   2.407   0.599
 8684WAT    HW226052   3.251   2.493   0.482
 8685WAT     OW26053   3.891   1.415   3.994
 8685WAT    HW126054   3.792   1.410   3.981
 8685WAT    HW226055   3.928   1.492   3.943
 8686WAT     OW26056   0.508   6.327   2.562
 8686WAT    HW126057   0.606   6.306   2.562
 8686WAT    HW226058   0.464   6.275   2.636
 8687WAT     OW26059   3.721   6.674   5.166
 8687WAT    HW126060   3.683   6.764   5.188
 8687WAT    HW226061   3.688   6.607   5.232
 8688WAT     OW26062   1.846   4.087   5.769
 8688WAT    HW126063   1.911   4.012   5.784
 8688WAT    HW226064   1.870   4.164   5.829
 8689WAT     OW26065   0.352   4.103   3.278
 8689WAT    HW126066   0.273   4.129   3.223
 8689WAT    HW226067   0.322   4.076   3.370
 8690WAT     OW26068   4.298   0.277   2.179
 8690WAT    HW126069   4.317   0.373   2.197
 8690WAT    HW226070   4.277   0.230   2.265
 8691WAT     OW26071   3.094   1.653   6.466
 8691WAT    HW126072   3.072   1.740   6.509
 8691WAT    HW226073   3.135   1.592   6.534
 8692WAT     OW26074   1.984   2.618   4.477
 8692WAT    HW126075   2.067   2.564   4.488
 8692WAT    HW226076   1.934   2.620   4.564
 8693WAT     OW26077   3.587   6.315   3.448
 8693WAT    HW126078   3.601   6.410   3.419
 8693WAT    HW226079   3.593   6.310   3.548
 8694WAT     OW26080   3.389   5.107   2.492
 8694WAT    HW126081   3.394   5.093   2.591
 8694WAT    HW226082   3.293   5.105   2.463
 8695WAT     OW26083   0.014   2.556   1.776
 8695WAT    HW126084  -0.020   2.539   1.868
 8695WAT    HW226085   0.030   2.468   1.730
 8696WAT     OW26086   2.608   5.990   5.043
 8696WAT    HW126087   2.641   6.072   5.091
 8696WAT    HW226088   2.651   5.909   5.083
 8697WAT     OW26089   1.625   1.075   4.246
 8697WAT    HW126090   1.555   1.017   4.288
 8697WAT    HW226091   1.608   1.170   4.270
 8698WAT     OW26092   1.905   4.247   1.991
 8698WAT    HW126093   1.814   4.277   2.018
 8698WAT    HW226094   1.900   4.198   1.904
 8699WAT     OW26095   4.367   2.958   4.093
 8699WAT    HW126096   4.308   2.929   4.018
 8699WAT    HW226097   4.441   2.892   4.106
 8700WAT     OW26098   0.459   5.557   0.884
 8700WAT    HW126099   0.372   5.532   0.842
 8700WAT    HW226100   0.470   5.508   0.971
 8701WAT     OW26101   1.614   3.767   1.214
 8701WAT    HW126102   1.610   3.866   1.209
 8701WAT    HW226103   1.578   3.728   1.129
 8702WAT     OW26104   1.823   4.380   2.711
 8702WAT    HW126105   1.848   4.283   2.716
 8702WAT    HW226106   1.878   4.425   2.641
 8703WAT     OW26107   4.515   0.785   6.302
 8703WAT    HW126108   4.506   0.711   6.369
 8703WAT    HW226109   4.453   0.767   6.226
 8704WAT     OW26110   5.947   5.404   4.823
 8704WAT    HW126111   5.866   5.347   4.814
 8704WAT    HW226112   5.921   5.492   4.864
 8705WAT     OW26113   2.568   2.314   5.280
 8705WAT    HW126114   2.620   2.257   5.217
 8705WAT    HW226115   2.557   2.406   5.241
 8706WAT     OW26116   2.216   1.680   2.910
 8706WAT    HW126117   2.135   1.689   2.852
 8706WAT    HW226118   2.265   1.767   2.912
 8707WAT     OW26119   3.164   5.880   4.291
 8707WAT    HW126120   3.185   5.782   4.285
 8707WAT    HW226121   3.116   5.898   4.377
 8708WAT     OW26122   3.164   3.116   5.020
 8708WAT    HW126123   3.261   3.094   5.015
 8708WAT    HW226124   3.148   3.207   4.981
 8709WAT     OW26125   6.623   3.884   3.398
 8709WAT    HW126126   6.581   3.903   3.310
 8709WAT    HW226127   6.660   3.969   3.437
 8710WAT     OW26128   4.135   3.997   5.854
 8710WAT    HW126129   4.175   4.079   5.814
 8710WAT    HW226130   4.174   3.981   5.945
 8711WAT     OW26131   2.231   5.377   3.369
 8711WAT    HW126132   2.294   5.375   3.447
 8711WAT    HW226133   2.138   5.397   3.401
 8712WAT     OW26134   1.798   1.976   6.289
 8712WAT    HW126135   1.785   2.037   6.211
 8712WAT    HW226136   1.714   1.972   6.343
 8713WAT     OW26137   4.995   2.468   2.341
 8713WAT    HW126138   5.009   2.371   2.360
 8713WAT    HW226139   5.079   2.505   2.300
 8714WAT     OW26140   5.169   3.686   3.739
 8714WAT    HW126141   5.175   3.644   3.648
 8714WAT    HW226142   5.134   3.779   3.731
 8715WAT     OW26143   1.615   3.564   3.823
 8715WAT    HW126144   1.551   3.501   3.867
 8715WAT    HW226145   1.568   3.648   3.799
 8716WAT     OW26146   3.172   2.597   3.685
 8716WAT    HW126147   3.139   2.689   3.705
 8716WAT    HW226148   3.224   2.598   3.599
 8717WAT     OW26149   0.958   3.873   5.645
 8717WAT    HW126150   1.056   3.880   5.662
 8717WAT    HW226151   0.942   3.856   5.548
 8718WAT     OW26152   2.875   3.758   2.334
 8718WAT    HW126153   2.893   3.730   2.240
 8718WAT    HW226154   2.830   3.684   2.383
 8719WAT     OW26155   4.420   1.316   5.775
 8719WAT    HW126156   4.344   1.262   5.810
 8719WAT    HW226157   4.464   1.267   5.700
 8720WAT     OW26158   2.827   2.625   1.716
 8720WAT    HW126159   2.758   2.629   1.788
 8720WAT    HW226160   2.783   2.605   1.628
 8721WAT     OW26161   0.775   2.180   0.300
 8721WAT    HW126162   0.854   2.166   0.361
 8721WAT    HW226163   0.751   2.277   0.299
 8722WAT     OW26164   1.392   5.177   4.658
 8722WAT    HW126165   1.409   5.175   4.560
 8722WAT    HW226166   1.479   5.187   4.707
 8723WAT     OW26167   5.947   4.099   4.423
 8723WAT    HW126168   5.993   4.135   4.505
 8723WAT    HW226169   6.015   4.066   4.358
 8724WAT     OW26170   2.714   4.773   5.671
 8724WAT    HW126171   2.758   4.825   5.598
 8724WAT    HW226172   2.685   4.835   5.743
 8725WAT     OW26173   1.647   6.554   2.203
 8725WAT    HW126174   1.575   6.583   2.266
 8725WAT    HW226175   1.727   6.524   2.255
 8726WAT     OW26176   0.301   5.914   1.053
 8726WAT    HW126177   0.391   5.936   1.092
 8726WAT    HW226178   0.304   5.924   0.954
 8727WAT     OW26179   0.881   0.988   4.618
 8727WAT    HW126180   0.834   1.070   4.651
 8727WAT    HW226181   0.891   0.993   4.519
 8728WAT     OW26182   3.197   2.084   0.547
 8728WAT    HW126183   3.196   1.987   0.525
 8728WAT    HW226184   3.173   2.137   0.465
 8729WAT     OW26185   1.690   2.193   0.245
 8729WAT    HW126186   1.722   2.241   0.327
 8729WAT    HW226187   1.592   2.175   0.254
 8730WAT     OW26188   2.881   4.879   3.416
 8730WAT    HW126189   2.859   4.959   3.471
 8730WAT    HW226190   2.802   4.818   3.412
 8731WAT     OW26191   1.150   4.786   4.206
 8731WAT    HW126192   1.148   4.795   4.306
 8731WAT    HW226193   1.063   4.818   4.168
 8732WAT     OW26194   1.478   4.757   5.930
 8732WAT    HW126195   1.498   4.791   5.838
 8732WAT    HW226196   1.547   4.691   5.957
 8733WAT     OW26197   3.892   2.971   1.942
 8733WAT    HW126198   3.876   2.921   1.857
 8733WAT    HW226199   3.813   3.031   1.960
 8734WAT     OW26200   4.910   1.707   0.219
 8734WAT    HW126201   4.932   1.759   0.137
 8734WAT    HW226202   4.949   1.615   0.212
 8735WAT     OW26203   4.174   0.227   2.681
 8735WAT    HW126204   4.100   0.162   2.665
 8735WAT    HW226205   4.138   0.307   2.730
 8736WAT     OW26206   0.845   3.484   3.490
 8736WAT    HW126207   0.926   3.503   3.546
 8736WAT    HW226208   0.833   3.558   3.424
 8737WAT     OW26209   1.215   2.895   6.587
 8737WAT    HW126210   1.226   2.796   6.590
 8737WAT    HW226211   1.303   2.938   6.565
 8738WAT     OW26212   1.386   4.130   4.050
 8738WAT    HW126213   1.338   4.217   4.045
 8738WAT    HW226214   1.350   4.075   4.126
 8739WAT     OW26215   4.133   5.506   3.022
 8739WAT    HW126216   4.209   5.561   3.056
 8739WAT    HW226217   4.055   5.516   3.084
 8740WAT     OW26218   1.391   3.936   3.052
 8740WAT    HW126219   1.303   3.888   3.055
 8740WAT    HW226220   1.411   3.974   3.143
 8741WAT     OW26221   4.707   3.992   5.629
 8741WAT    HW126222   4.636   4.000   5.698
 8741WAT    HW226223   4.740   4.083   5.604
 8742WAT     OW26224   3.637   5.699   6.328
 8742WAT    HW126225   3.652   5.701   6.427
 8742WAT    HW226226   3.594   5.785   6.299
 8743WAT     OW26227   2.627   2.669   3.710
 8743WAT    HW126228   2.621   2.592   3.773
 8743WAT    HW226229   2.672   2.746   3.755
 8744WAT     OW26230   4.572   4.149   1.700
 8744WAT    HW126231   4.603   4.242   1.720
 8744WAT    HW226232   4.481   4.135   1.739
 8745WAT     OW26233   0.743   5.433   0.452
 8745WAT    HW126234   0.652   5.473   0.465
 8745WAT    HW226235   0.798   5.449   0.533
 8746WAT     OW26236   2.607   1.537   4.524
 8746WAT    HW126237   2.586   1.568   4.617
 8746WAT    HW226238   2.523   1.524   4.472
 8747WAT     OW26239   2.229   2.502   4.518
 8747WAT    HW126240   2.265   2.542   4.433
 8747WAT    HW226241   2.290   2.526   4.594
 8748WAT     OW26242   3.357   3.015   4.313
 8748WAT    HW126243   3.331   2.951   4.385
 8748WAT    HW226244   3.300   2.999   4.232
 8749WAT     OW26245   1.530   5.106   5.886
 8749WAT    HW126246   1.470   5.168   5.836
 8749WAT    HW226247   1.485   5.074   5.969
 8750WAT     OW26248   0.404   4.406   5.401
 8750WAT    HW126249   0.366   4.471   5.335
 8750WAT    HW226250   0.455   4.334   5.354
 8751WAT     OW26251   2.198   0.031   1.656
 8751WAT    HW126252   2.184   0.040   1.754
 8751WAT    HW226253   2.294   0.006   1.639
 8752WAT     OW26254   2.206   4.196   1.249
 8752WAT    HW126255   2.119   4.212   1.202
 8752WAT    HW226256   2.190   4.141   1.332
 8753WAT     OW26257   6.503   3.119   4.768
 8753WAT    HW126258   6.567   3.057   4.722
 8753WAT    HW226259   6.409   3.092   4.747
 8754WAT     OW26260   2.836   2.091   6.215
 8754WAT    HW126261   2.805   1.998   6.235
 8754WAT    HW226262   2.792   2.123   6.131
 8755WAT     OW26263   4.364   0.626   0.603
 8755WAT    HW126264   4.406   0.536   0.615
 8755WAT    HW226265   4.316   0.652   0.687
 8756WAT     OW26266   5.735   5.866   0.560
 8756WAT    HW126267   5.703   5.892   0.652
 8756WAT    HW226268   5.816   5.809   0.568
 8757WAT     OW26269   3.242   6.495   1.880
 8757WAT    HW126270   3.172   6.442   1.832
 8757WAT    HW226271   3.330   6.450   1.869
 8758WAT     OW26272   4.570   4.134   3.241
 8758WAT    HW126273   4.516   4.198   3.295
 8758WAT    HW226274   4.510   4.067   3.198
 8759WAT     OW26275   4.093   4.519   3.775
 8759WAT    HW126276   4.087   4.473   3.686
 8759WAT    HW226277   4.146   4.603   3.766
 8760WAT     OW26278   1.622   0.347   3.750
 8760WAT    HW126279   1.598   0.408   3.675
 8760WAT    HW226280   1.678   0.272   3.714
 8761WAT     OW26281   2.575   1.771   3.400
 8761WAT    HW126282   2.557   1.732   3.310
 8761WAT    HW226283   2.602   1.867   3.390
 8762WAT     OW26284   0.380   4.434   3.494
 8762WAT    HW126285   0.310   4.416   3.425
 8762WAT    HW226286   0.360   4.520   3.540
 8763WAT     OW26287   3.528   6.675   3.614
 8763WAT    HW126288   3.540   6.647   3.519
 8763WAT    HW226289   3.458   6.745   3.620
 8764WAT     OW26290   5.516   3.148   3.542
 8764WAT    HW126291   5.606   3.140   3.584
 8764WAT    HW226292   5.521   3.211   3.464
 8765WAT     OW26293   5.141   1.184   2.516
 8765WAT    HW126294   5.145   1.099   2.465
 8765WAT    HW226295   5.225   1.237   2.500
 8766WAT     OW26296   2.379   1.476   1.956
 8766WAT    HW126297   2.306   1.528   1.912
 8766WAT    HW226298   2.377   1.382   1.922
 8767WAT     OW26299   3.830   6.638   5.523
 8767WAT    HW126300   3.824   6.583   5.606
 8767WAT    HW226301   3.764   6.712   5.526
 8768WAT     OW26302   3.606   3.495   3.118
 8768WAT    HW126303   3.593   3.474   3.215
 8768WAT    HW226304   3.528   3.548   3.085
 8769WAT     OW26305   4.490   3.750   2.956
 8769WAT    HW126306   4.485   3.714   3.050
 8769WAT    HW226307   4.406   3.725   2.907
 8770WAT     OW26308   1.549   1.742   1.912
 8770WAT    HW126309   1.584   1.831   1.940
 8770WAT    HW226310   1.461   1.725   1.956
 8771WAT     OW26311   0.503   2.458   3.347
 8771WAT    HW126312   0.545   2.406   3.421
 8771WAT    HW226313   0.541   2.551   3.347
 8772WAT     OW26314   5.695   6.646   6.441
 8772WAT    HW126315   5.619   6.582   6.450
 8772WAT    HW226316   5.776   6.610   6.488
 8773WAT     OW26317   0.265   5.591   5.402
 8773WAT    HW126318   0.321   5.579   5.320
 8773WAT    HW226319   0.169   5.574   5.379
 8774WAT     OW26320   0.023   3.546   6.540
 8774WAT    HW126321   0.089   3.615   6.510
 8774WAT    HW226322   0.059   3.499   6.620
 8775WAT     OW26323   5.658   4.418   5.087
 8775WAT    HW126324   5.685   4.331   5.128
 8775WAT    HW226325   5.580   4.403   5.026
 8776WAT     OW26326   3.475   3.502   0.302
 8776WAT    HW126327   3.510   3.563   0.231
 8776WAT    HW226328   3.467   3.409   0.265
 8777WAT     OW26329   4.248   5.961   4.365
 8777WAT    HW126330   4.169   5.953   4.304
 8777WAT    HW226331   4.240   5.894   4.439
 8778WAT     OW26332   1.476   2.382   2.014
 8778WAT    HW126333   1.504   2.445   2.087
 8778WAT    HW226334   1.446   2.434   1.935
 8779WAT     OW26335   4.067   2.001   3.260
 8779WAT    HW126336   4.043   2.066   3.333
 8779WAT    HW226337   4.165   1.985   3.261
 8780WAT     OW26338   2.177   3.445   2.844
 8780WAT    HW126339   2.226   3.445   2.931
 8780WAT    HW226340   2.091   3.395   2.854
 8781WAT     OW26341   5.721   4.548   0.282
 8781WAT    HW126342   5.758   4.485   0.214
 8781WAT    HW226343   5.624   4.530   0.296
 8782WAT     OW26344   4.995   1.771   1.764
 8782WAT    HW126345   4.925   1.780   1.835
 8782WAT    HW226346   5.086   1.771   1.807
 8783WAT     OW26347   5.364   3.877   0.793
 8783WAT    HW126348   5.270   3.864   0.760
 8783WAT    HW226349   5.361   3.898   0.891
 8784WAT     OW26350   6.082   6.487   3.761
 8784WAT    HW126351   6.093   6.578   3.802
 8784WAT    HW226352   6.150   6.473   3.690
 8785WAT     OW26353   4.981   1.093   2.724
 8785WAT    HW126354   4.984   0.996   2.701
 8785WAT    HW226355   5.034   1.145   2.656
 8786WAT     OW26356   3.602   4.031   5.910
 8786WAT    HW126357   3.550   3.975   5.845
 8786WAT    HW226358   3.699   4.030   5.884
 8787WAT     OW26359   2.749   2.308   3.739
 8787WAT    HW126360   2.840   2.339   3.713
 8787WAT    HW226361   2.754   2.214   3.773
 8788WAT     OW26362   3.221   5.840   2.776
 8788WAT    HW126363   3.299   5.808   2.722
 8788WAT    HW226364   3.212   5.783   2.858
 8789WAT     OW26365   1.360   6.168   2.073
 8789WAT    HW126366   1.312   6.217   2.001
 8789WAT    HW226367   1.441   6.220   2.101
 8790WAT     OW26368   0.096   6.289   0.782
 8790WAT    HW126369   0.097   6.193   0.754
 8790WAT    HW226370   0.107   6.347   0.701
 8791WAT     OW26371   6.517   5.584   2.773
 8791WAT    HW126372   6.534   5.489   2.799
 8791WAT    HW226373   6.466   5.629   2.847
 8792WAT     OW26374   1.409   4.420   5.196
 8792WAT    HW126375   1.438   4.364   5.118
 8792WAT    HW226376   1.323   4.467   5.173
 8793WAT     OW26377   2.889   2.660   2.676
 8793WAT    HW126378   2.942   2.629   2.755
 8793WAT    HW226379   2.804   2.702   2.708
 8794WAT     OW26380   6.341   0.696   6.378
 8794WAT    HW126381   6.326   0.685   6.476
 8794WAT    HW226382   6.404   0.772   6.362
 8795WAT     OW26383   0.970   3.806   2.429
 8795WAT    HW126384   0.915   3.826   2.349
 8795WAT    HW226385   0.994   3.709   2.430
 8796WAT     OW26386   2.337   2.535   0.228
 8796WAT    HW126387   2.313   2.600   0.300
 8796WAT    HW226388   2.270   2.461   0.226
 8797WAT     OW26389   0.116   1.884   2.132
 8797WAT    HW126390   0.030   1.833   2.128
 8797WAT    HW226391   0.109   1.955   2.203
 8798WAT     OW26392   1.139   5.598   1.328
 8798WAT    HW126393   1.237   5.597   1.347
 8798WAT    HW226394   1.125   5.611   1.230
 8799WAT     OW26395   4.226   3.337   6.077
 8799WAT    HW126396   4.252   3.433   6.063
 8799WAT    HW226397   4.144   3.334   6.135
 8800WAT     OW26398   0.982   1.162   5.024
 8800WAT    HW126399   0.951   1.249   4.984
 8800WAT    HW226400   1.014   1.178   5.117
 8801WAT     OW26401   4.802   4.026   2.053
 8801WAT    HW126402   4.885   4.069   2.017
 8801WAT    HW226403   4.747   4.094   2.102
 8802WAT     OW26404   2.232   1.540   2.578
 8802WAT    HW126405   2.285   1.625   2.584
 8802WAT    HW226406   2.183   1.539   2.490
 8803WAT     OW26407   3.852   0.979   2.048
 8803WAT    HW126408   3.783   0.953   1.981
 8803WAT    HW226409   3.807   1.014   2.130
 8804WAT     OW26410   3.756   6.221   4.462
 8804WAT    HW126411   3.748   6.129   4.502
 8804WAT    HW226412   3.834   6.224   4.400
 8805WAT     OW26413   0.094   2.651   3.389
 8805WAT    HW126414   0.159   2.577   3.404
 8805WAT    HW226415   0.129   2.736   3.428
 8806WAT     OW26416   4.419   5.447   2.741
 8806WAT    HW126417   4.485   5.521   2.726
 8806WAT    HW226418   4.326   5.484   2.741
 8807WAT     OW26419   3.161   1.869   2.206
 8807WAT    HW126420   3.124   1.800   2.268
 8807WAT    HW226421   3.250   1.901   2.240
 8808WAT     OW26422   5.979   6.055   5.109
 8808WAT    HW126423   5.884   6.031   5.133
 8808WAT    HW226424   6.015   6.119   5.177
 8809WAT     OW26425   3.816   5.848   1.756
 8809WAT    HW126426   3.871   5.909   1.700
 8809WAT    HW226427   3.719   5.861   1.735
 8810WAT     OW26428   3.834   5.897   2.028
 8810WAT    HW126429   3.837   5.882   1.929
 8810WAT    HW226430   3.797   5.816   2.073
 8811WAT     OW26431   1.008   6.474   2.101
 8811WAT    HW126432   1.009   6.519   2.011
 8811WAT    HW226433   0.914   6.456   2.128
 8812WAT     OW26434   6.007   4.375   0.273
 8812WAT    HW126435   6.037   4.390   0.179
 8812WAT    HW226436   6.056   4.438   0.334
 8813WAT     OW26437   4.489   3.418   5.564
 8813WAT    HW126438   4.416   3.468   5.611
 8813WAT    HW226439   4.466   3.407   5.468
 8814WAT     OW26440   2.965   2.724   6.135
 8814WAT    HW126441   2.881   2.759   6.176
 8814WAT    HW226442   3.026   2.801   6.112
 8815WAT     OW26443   5.018   1.328   1.604
 8815WAT    HW126444   5.033   1.264   1.529
 8815WAT    HW226445   4.923   1.324   1.633
 8816WAT     OW26446   1.050   2.894   1.433
 8816WAT    HW126447   1.102   2.925   1.354
 8816WAT    HW226448   1.078   2.801   1.457
 8817WAT     OW26449   2.880   0.820   3.476
 8817WAT    HW126450   2.892   0.911   3.434
 8817WAT    HW226451   2.970   0.779   3.492
 8818WAT     OW26452   5.142   3.748   5.792
 8818WAT    HW126453   5.107   3.725   5.883
 8818WAT    HW226454   5.071   3.797   5.740
 8819WAT     OW26455   0.597   1.572   2.914
 8819WAT    HW126456   0.668   1.508   2.944
 8819WAT    HW226457   0.577   1.637   2.987
 8820WAT     OW26458   1.282   3.183   4.854
 8820WAT    HW126459   1.350   3.254   4.871
 8820WAT    HW226460   1.199   3.225   4.816
 8821WAT     OW26461   2.888   0.883   3.156
 8821WAT    HW126462   2.838   0.917   3.076
 8821WAT    HW226463   2.895   0.956   3.224
 8822WAT     OW26464   1.490   0.626   4.017
 8822WAT    HW126465   1.458   0.667   3.932
 8822WAT    HW226466   1.449   0.535   4.028
 8823WAT     OW26467   4.611   1.978   1.886
 8823WAT    HW126468   4.586   1.995   1.791
 8823WAT    HW226469   4.665   1.894   1.892
 8824WAT     OW26470   0.177   1.458   1.842
 8824WAT    HW126471   0.204   1.530   1.906
 8824WAT    HW226472   0.077   1.451   1.839
 8825WAT     OW26473   1.852   4.508   1.667
 8825WAT    HW126474   1.910   4.587   1.645
 8825WAT    HW226475   1.784   4.535   1.735
 8826WAT     OW26476   4.767   1.352   4.360
 8826WAT    HW126477   4.747   1.257   4.387
 8826WAT    HW226478   4.861   1.358   4.327
 8827WAT     OW26479   5.869   6.545   1.048
 8827WAT    HW126480   5.955   6.587   1.018
 8827WAT    HW226481   5.818   6.512   0.969
 8828WAT     OW26482   6.471   5.353   3.458
 8828WAT    HW126483   6.557   5.304   3.470
 8828WAT    HW226484   6.395   5.289   3.468
 8829WAT     OW26485   5.280   2.157   2.488
 8829WAT    HW126486   5.198   2.185   2.438
 8829WAT    HW226487   5.358   2.211   2.457
 8830WAT     OW26488   2.860   1.554   3.098
 8830WAT    HW126489   2.956   1.577   3.116
 8830WAT    HW226490   2.808   1.638   3.084
 8831WAT     OW26491   0.429   2.739   3.816
 8831WAT    HW126492   0.433   2.698   3.907
 8831WAT    HW226493   0.362   2.689   3.760
 8832WAT     OW26494   5.023   0.134   5.901
 8832WAT    HW126495   4.970   0.212   5.867
 8832WAT    HW226496   5.082   0.164   5.975
 8833WAT     OW26497   1.097   6.418   5.973
 8833WAT    HW126498   1.133   6.336   5.929
 8833WAT    HW226499   1.005   6.437   5.938
 8834WAT     OW26500   5.784   3.657   1.854
 8834WAT    HW126501   5.690   3.680   1.876
 8834WAT    HW226502   5.787   3.573   1.800
 8835WAT     OW26503   5.007   3.854   1.657
 8835WAT    HW126504   5.070   3.777   1.662
 8835WAT    HW226505   4.938   3.846   1.729
 8836WAT     OW26506   6.196   2.151   1.293
 8836WAT    HW126507   6.260   2.223   1.267
 8836WAT    HW226508   6.237   2.093   1.363
 8837WAT     OW26509   2.271   0.962   1.821
 8837WAT    HW126510   2.272   0.864   1.837
 8837WAT    HW226511   2.176   0.994   1.811
 8838WAT     OW26512   0.854   1.577   4.733
 8838WAT    HW126513   0.758   1.572   4.703
 8838WAT    HW226514   0.876   1.672   4.757
 8839WAT     OW26515   4.493   2.275   6.070
 8839WAT    HW126516   4.395   2.268   6.088
 8839WAT    HW226517   4.531   2.184   6.054
 8840WAT     OW26518   4.787   3.692   5.975
 8840WAT    HW126519   4.752   3.599   5.986
 8840WAT    HW226520   4.886   3.691   5.985
 8841WAT     OW26521   5.812   1.341   1.627
 8841WAT    HW126522   5.723   1.299   1.607
 8841WAT    HW226523   5.836   1.323   1.722
 8842WAT     OW26524   5.834   0.018   3.626
 8842WAT    HW126525   5.790   0.098   3.585
 8842WAT    HW226526   5.927   0.010   3.592
 8843WAT     OW26527   1.267   2.311   4.630
 8843WAT    HW126528   1.349   2.271   4.590
 8843WAT    HW226529   1.290   2.356   4.717
 8844WAT     OW26530   0.186   0.682   1.275
 8844WAT    HW126531   0.140   0.733   1.203
 8844WAT    HW226532   0.155   0.587   1.275
 8845WAT     OW26533   3.955   6.032   1.601
 8845WAT    HW126534   3.903   6.111   1.570
 8845WAT    HW226535   4.037   6.063   1.650
 8846WAT     OW26536   0.762   5.589   1.995
 8846WAT    HW126537   0.843   5.533   1.977
 8846WAT    HW226538   0.762   5.618   2.091
 8847WAT     OW26539   1.879   2.356   6.564
 8847WAT    HW126540   1.910   2.303   6.643
 8847WAT    HW226541   1.790   2.322   6.534
 8848WAT     OW26542   5.443   5.034   6.325
 8848WAT    HW126543   5.421   4.967   6.254
 8848WAT    HW226544   5.443   5.126   6.285
 8849WAT     OW26545   1.287   2.900   2.304
 8849WAT    HW126546   1.194   2.923   2.276
 8849WAT    HW226547   1.342   2.876   2.224
 8850WAT     OW26548   4.082   4.262   3.899
 8850WAT    HW126549   4.075   4.359   3.878
 8850WAT    HW226550   4.075   4.249   3.997
 8851WAT     OW26551   5.648   6.132   4.865
 8851WAT    HW126552   5.548   6.131   4.865
 8851WAT    HW226553   5.682   6.104   4.954
 8852WAT     OW26554   1.848   6.447   2.338
 8852WAT    HW126555   1.857   6.426   2.436
 8852WAT    HW226556   1.911   6.389   2.286
 8853WAT     OW26557   5.171   3.266   2.368
 8853WAT    HW126558   5.201   3.244   2.461
 8853WAT    HW226559   5.127   3.355   2.367
 8854WAT     OW26560   4.382   2.912   5.917
 8854WAT    HW126561   4.313   2.973   5.955
 8854WAT    HW226562   4.423   2.954   5.836
 8855WAT     OW26563   4.422   0.962   4.306
 8855WAT    HW126564   4.369   0.981   4.389
 8855WAT    HW226565   4.453   1.047   4.265
 8856WAT     OW26566   0.517   4.456   5.643
 8856WAT    HW126567   0.471   4.448   5.554
 8856WAT    HW226568   0.512   4.368   5.691
 8857WAT     OW26569   0.133   0.691   4.953
 8857WAT    HW126570   0.165   0.609   4.904
 8857WAT    HW226571   0.186   0.770   4.923
 8858WAT     OW26572   6.515   4.418   5.578
 8858WAT    HW126573   6.545   4.405   5.673
 8858WAT    HW226574   6.431   4.367   5.562
 8859WAT     OW26575   2.625   5.539   1.057
 8859WAT    HW126576   2.627   5.630   1.100
 8859WAT    HW226577   2.547   5.487   1.093
 8860WAT     OW26578   3.780   2.456   5.874
 8860WAT    HW126579   3.833   2.523   5.822
 8860WAT    HW226580   3.691   2.444   5.831
 8861WAT     OW26581   1.038   1.607   3.184
 8861WAT    HW126582   1.138   1.616   3.187
 8861WAT    HW226583   1.007   1.603   3.089
 8862WAT     OW26584   3.197   1.505   6.678
 8862WAT    HW126585   3.267   1.458   6.731
 8862WAT    HW226586   3.167   1.587   6.729
 8863WAT     OW26587   1.725   0.994   6.459
 8863WAT    HW126588   1.800   0.969   6.397
 8863WAT    HW226589   1.691   0.912   6.505
 8864WAT     OW26590   4.200   1.606   1.135
 8864WAT    HW126591   4.110   1.587   1.095
 8864WAT    HW226592   4.222   1.703   1.123
 8865WAT     OW26593   2.306   1.939   6.409
 8865WAT    HW126594   2.375   1.974   6.472
 8865WAT    HW226595   2.331   1.846   6.382
 8866WAT     OW26596   0.988   0.881   3.277
 8866WAT    HW126597   1.032   0.967   3.252
 8866WAT    HW226598   0.985   0.872   3.376
 8867WAT     OW26599   3.622   3.460   5.996
 8867WAT    HW126600   3.561   3.493   5.923
 8867WAT    HW226601   3.595   3.502   6.083
 8868WAT     OW26602   3.995   3.405   6.213
 8868WAT    HW126603   4.045   3.487   6.241
 8868WAT    HW226604   3.945   3.368   6.291
 8869WAT     OW26605   0.915   1.602   2.140
 8869WAT    HW126606   0.863   1.672   2.090
 8869WAT    HW226607   0.935   1.525   2.079
 8870WAT     OW26608   5.062   4.447   1.774
 8870WAT    HW126609   5.052   4.409   1.682
 8870WAT    HW226610   4.986   4.415   1.831
 8871WAT     OW26611   4.492   3.293   6.018
 8871WAT    HW126612   4.396   3.306   6.044
 8871WAT    HW226613   4.498   3.272   5.921
 8872WAT     OW26614   5.217   6.156   4.425
 8872WAT    HW126615   5.155   6.224   4.466
 8872WAT    HW226616   5.247   6.092   4.496
 8873WAT     OW26617   0.609   1.464   6.376
 8873WAT    HW126618   0.668   1.544   6.385
 8873WAT    HW226619   0.519   1.492   6.345
 8874WAT     OW26620   0.548   5.575   6.160
 8874WAT    HW126621   0.591   5.664   6.179
 8874WAT    HW226622   0.476   5.587   6.091
 8875WAT     OW26623   4.998   5.131   2.252
 8875WAT    HW126624   4.901   5.118   2.268
 8875WAT    HW226625   5.015   5.142   2.154
 8876WAT     OW26626   4.189   1.494   3.087
 8876WAT    HW126627   4.106   1.537   3.054
 8876WAT    HW226628   4.203   1.519   3.183
 8877WAT     OW26629   0.797   2.972   5.622
 8877WAT    HW126630   0.809   3.071   5.627
 8877WAT    HW226631   0.708   2.952   5.579
 8878WAT     OW26632   3.147   5.611   6.301
 8878WAT    HW126633   3.152   5.519   6.339
 8878WAT    HW226634   3.158   5.678   6.374
 8879WAT     OW26635   6.360   1.847   3.099
 8879WAT    HW126636   6.349   1.946   3.109
 8879WAT    HW226637   6.299   1.800   3.163
 8880WAT     OW26638   4.834   3.161   4.140
 8880WAT    HW126639   4.795   3.161   4.048
 8880WAT    HW226640   4.854   3.066   4.167
 8881WAT     OW26641   5.941   5.908   5.593
 8881WAT    HW126642   5.909   5.993   5.634
 8881WAT    HW226643   5.959   5.840   5.664
 8882WAT     OW26644   4.514   4.881   2.566
 8882WAT    HW126645   4.592   4.832   2.603
 8882WAT    HW226646   4.432   4.824   2.573
 8883WAT     OW26647   5.506   0.253   4.003
 8883WAT    HW126648   5.563   0.312   4.060
 8883WAT    HW226649   5.546   0.245   3.912
 8884WAT     OW26650   3.076   3.894   5.343
 8884WAT    HW126651   3.028   3.903   5.431
 8884WAT    HW226652   3.153   3.832   5.354
 8885WAT     OW26653   1.766   6.146   2.552
 8885WAT    HW126654   1.733   6.061   2.592
 8885WAT    HW226655   1.842   6.127   2.491
 8886WAT     OW26656   6.534   0.489   1.123
 8886WAT    HW126657   6.614   0.481   1.183
 8886WAT    HW226658   6.508   0.585   1.115
 8887WAT     OW26659   4.591   3.957   4.004
 8887WAT    HW126660   4.503   3.941   3.960
 8887WAT    HW226661   4.586   4.039   4.061
 8888WAT     OW26662   0.180   1.869   6.417
 8888WAT    HW126663   0.119   1.920   6.479
 8888WAT    HW226664   0.165   1.771   6.430
 8889WAT     OW26665   1.208   4.946   0.183
 8889WAT    HW126666   1.149   4.972   0.260
 8889WAT    HW226667   1.212   5.021   0.117
 8890WAT     OW26668   3.700   2.703   3.270
 8890WAT    HW126669   3.645   2.639   3.216
 8890WAT    HW226670   3.719   2.785   3.216
 8891WAT     OW26671   3.826   5.228   6.608
 8891WAT    HW126672   3.847   5.160   6.538
 8891WAT    HW226673   3.891   5.219   6.684
 8892WAT     OW26674   2.157   0.861   4.741
 8892WAT    HW126675   2.212   0.857   4.824
 8892WAT    HW226676   2.115   0.951   4.733
 8893WAT     OW26677   4.804   0.205   2.092
 8893WAT    HW126678   4.705   0.217   2.086
 8893WAT    HW226679   4.850   0.277   2.039
 8894WAT     OW26680   3.640   1.093   5.664
 8894WAT    HW126681   3.692   1.138   5.737
 8894WAT    HW226682   3.562   1.150   5.639
 8895WAT     OW26683   5.336   4.452   1.726
 8895WAT    HW126684   5.240   4.457   1.754
 8895WAT    HW226685   5.393   4.438   1.806
 8896WAT     OW26686   4.152   5.519   2.749
 8896WAT    HW126687   4.141   5.521   2.848
 8896WAT    HW226688   4.090   5.451   2.710
 8897WAT     OW26689   5.245   4.405   1.363
 8897WAT    HW126690   5.319   4.364   1.415
 8897WAT    HW226691   5.269   4.407   1.266
 8898WAT     OW26692   5.303   5.131   6.024
 8898WAT    HW126693   5.357   5.195   6.077
 8898WAT    HW226694   5.267   5.176   5.942
 8899WAT     OW26695   6.676   2.880   2.423
 8899WAT    HW126696   6.755   2.841   2.376
 8899WAT    HW226697   6.685   2.979   2.428
 8900WAT     OW26698   1.970   4.707   6.521
 8900WAT    HW126699   2.016   4.632   6.473
 8900WAT    HW226700   2.010   4.718   6.612
 8901WAT     OW26701   4.199   1.595   0.433
 8901WAT    HW126702   4.210   1.554   0.343
 8901WAT    HW226703   4.269   1.560   0.495
 8902WAT     OW26704   1.544   4.873   0.900
 8902WAT    HW126705   1.639   4.849   0.918
 8902WAT    HW226706   1.527   4.967   0.929
 8903WAT     OW26707   1.777   6.206   4.502
 8903WAT    HW126708   1.844   6.187   4.431
 8903WAT    HW226709   1.688   6.225   4.460
 8904WAT     OW26710   3.015   1.005   5.325
 8904WAT    HW126711   2.935   1.000   5.384
 8904WAT    HW226712   3.000   0.952   5.242
 8905WAT     OW26713   1.098   5.180   5.016
 8905WAT    HW126714   1.194   5.205   5.030
 8905WAT    HW226715   1.056   5.158   5.104
 8906WAT     OW26716   5.698   0.592   2.924
 8906WAT    HW126717   5.701   0.500   2.886
 8906WAT    HW226718   5.630   0.595   2.997
 8907WAT     OW26719   2.803   5.103   3.564
 8907WAT    HW126720   2.752   5.187   3.545
 8907WAT    HW226721   2.745   5.040   3.615
 8908WAT     OW26722   1.595   1.924   1.069
 8908WAT    HW126723   1.512   1.883   1.031
 8908WAT    HW226724   1.570   1.994   1.136
 8909WAT     OW26725   0.193   1.054   2.222
 8909WAT    HW126726   0.137   1.137   2.210
 8909WAT    HW226727   0.274   1.061   2.164
 8910WAT     OW26728   3.552   3.102   2.926
 8910WAT    HW126729   3.620   3.176   2.926
 8910WAT    HW226730   3.573   3.038   2.852
 8911WAT     OW26731   4.158   2.669   5.606
 8911WAT    HW126732   4.205   2.684   5.693
 8911WAT    HW226733   4.202   2.594   5.557
 8912WAT     OW26734   5.027   5.017   1.588
 8912WAT    HW126735   4.973   5.021   1.672
 8912WAT    HW226736   5.090   5.095   1.585
 8913WAT     OW26737   0.270   6.667   0.611
 8913WAT    HW126738   0.270   6.731   0.688
 8913WAT    HW226739   0.237   6.714   0.529
 8914WAT     OW26740   6.332   3.566   4.743
 8914WAT    HW126741   6.293   3.519   4.822
 8914WAT    HW226742   6.395   3.505   4.695
 8915WAT     OW26743   3.732   5.330   0.872
 8915WAT    HW126744   3.678   5.246   0.882
 8915WAT    HW226745   3.725   5.363   0.778
 8916WAT     OW26746   5.090   4.014   2.392
 8916WAT    HW126747   5.053   3.933   2.347
 8916WAT    HW226748   5.154   3.986   2.464
 8917WAT     OW26749   0.152   5.077   5.501
 8917WAT    HW126750   0.085   5.003   5.507
 8917WAT    HW226751   0.164   5.118   5.592
 8918WAT     OW26752   4.516   4.770   1.794
 8918WAT    HW126753   4.616   4.769   1.802
 8918WAT    HW226754   4.490   4.819   1.711
 8919WAT     OW26755   1.492   4.247   1.722
 8919WAT    HW126756   1.479   4.153   1.691
 8919WAT    HW226757   1.555   4.293   1.660
 8920WAT     OW26758   4.886   0.365   5.836
 8920WAT    HW126759   4.904   0.390   5.931
 8920WAT    HW226760   4.934   0.427   5.775
 8921WAT     OW26761   2.676   2.600   3.439
 8921WAT    HW126762   2.770   2.563   3.437
 8921WAT    HW226763   2.652   2.624   3.533
 8922WAT     OW26764   5.410   6.114   3.312
 8922WAT    HW126765   5.360   6.069   3.238
 8922WAT    HW226766   5.468   6.048   3.359
 8923WAT     OW26767   3.889   3.943   0.462
 8923WAT    HW126768   3.845   3.894   0.387
 8923WAT    HW226769   3.837   3.931   0.546
 8924WAT     OW26770   6.020   6.494   6.207
 8924WAT    HW126771   5.994   6.455   6.119
 8924WAT    HW226772   6.064   6.582   6.192
 8925WAT     OW26773   5.280   2.414   5.239
 8925WAT    HW126774   5.361   2.377   5.284
 8925WAT    HW226775   5.245   2.346   5.174
 8926WAT     OW26776   2.400   1.088   4.116
 8926WAT    HW126777   2.327   1.155   4.123
 8926WAT    HW226778   2.440   1.092   4.024
 8927WAT     OW26779   2.782   4.568   5.482
 8927WAT    HW126780   2.747   4.635   5.547
 8927WAT    HW226781   2.876   4.591   5.458
 8928WAT     OW26782   3.727   5.402   4.411
 8928WAT    HW126783   3.744   5.377   4.506
 8928WAT    HW226784   3.785   5.347   4.351
 8929WAT     OW26785   0.471   3.809   4.954
 8929WAT    HW126786   0.506   3.826   4.862
 8929WAT    HW226787   0.543   3.769   5.010
 8930WAT     OW26788   3.099   2.035   5.570
 8930WAT    HW126789   3.082   2.125   5.611
 8930WAT    HW226790   3.191   2.034   5.531
 8931WAT     OW26791   4.282   3.030   2.730
 8931WAT    HW126792   4.378   3.022   2.702
 8931WAT    HW226793   4.277   3.052   2.827
 8932WAT     OW26794   4.534   1.697   1.663
 8932WAT    HW126795   4.455   1.677   1.606
 8932WAT    HW226796   4.608   1.732   1.606
 8933WAT     OW26797   3.535   6.283   1.228
 8933WAT    HW126798   3.559   6.379   1.221
 8933WAT    HW226799   3.589   6.230   1.162
 8934WAT     OW26800   3.622   1.507   5.718
 8934WAT    HW126801   3.539   1.462   5.749
 8934WAT    HW226802   3.630   1.597   5.762
 8935WAT     OW26803   6.381   3.122   2.358
 8935WAT    HW126804   6.397   3.067   2.440
 8935WAT    HW226805   6.468   3.153   2.321
 8936WAT     OW26806   3.067   5.147   3.062
 8936WAT    HW126807   3.142   5.103   3.111
 8936WAT    HW226808   3.095   5.167   2.968
 8937WAT     OW26809   3.117   1.613   3.163
 8937WAT    HW126810   3.132   1.542   3.232
 8937WAT    HW226811   3.200   1.623   3.108
 8938WAT     OW26812   4.534   5.389   5.417
 8938WAT    HW126813   4.480   5.426   5.493
 8938WAT    HW226814   4.619   5.351   5.452
 8939WAT     OW26815   3.023   0.639   5.329
 8939WAT    HW126816   3.037   0.548   5.291
 8939WAT    HW226817   3.087   0.653   5.405
 8940WAT     OW26818   2.803   4.186   3.051
 8940WAT    HW126819   2.739   4.131   3.104
 8940WAT    HW226820   2.768   4.279   3.040
 8941WAT     OW26821   0.112   3.520   4.043
 8941WAT    HW126822   0.027   3.572   4.048
 8941WAT    HW226823   0.103   3.436   4.098
 8942WAT     OW26824   0.085   4.388   2.344
 8942WAT    HW126825   0.057   4.294   2.323
 8942WAT    HW226826   0.180   4.401   2.315
 8943WAT     OW26827   2.982   2.050   2.104
 8943WAT    HW126828   3.020   2.112   2.035
 8943WAT    HW226829   3.054   1.990   2.138
 8944WAT     OW26830   6.282   4.704   5.370
 8944WAT    HW126831   6.265   4.678   5.465
 8944WAT    HW226832   6.345   4.782   5.367
 8945WAT     OW26833   4.610   6.064   1.571
 8945WAT    HW126834   4.543   5.990   1.565
 8945WAT    HW226835   4.660   6.056   1.657
 8946WAT     OW26836   5.500   2.024   3.875
 8946WAT    HW126837   5.583   2.026   3.931
 8946WAT    HW226838   5.464   2.117   3.867
 8947WAT     OW26839   4.704   5.686   4.605
 8947WAT    HW126840   4.677   5.764   4.550
 8947WAT    HW226841   4.803   5.671   4.597
 8948WAT     OW26842   4.273   5.882   6.567
 8948WAT    HW126843   4.254   5.867   6.664
 8948WAT    HW226844   4.362   5.841   6.544
 8949WAT     OW26845   3.749   3.976   1.262
 8949WAT    HW126846   3.808   4.053   1.238
 8949WAT    HW226847   3.739   3.970   1.361
 8950WAT     OW26848   1.468   3.777   3.753
 8950WAT    HW126849   1.376   3.779   3.713
 8950WAT    HW226850   1.491   3.868   3.786
 8951WAT     OW26851   5.269   0.813   2.727
 8951WAT    HW126852   5.175   0.839   2.703
 8951WAT    HW226853   5.274   0.714   2.737
 8952WAT     OW26854   2.449   1.495   4.202
 8952WAT    HW126855   2.406   1.495   4.292
 8952WAT    HW226856   2.429   1.581   4.155
 8953WAT     OW26857   1.387   5.554   3.306
 8953WAT    HW126858   1.403   5.577   3.402
 8953WAT    HW226859   1.355   5.635   3.257
 8954WAT     OW26860   4.373   4.034   3.667
 8954WAT    HW126861   4.318   4.056   3.587
 8954WAT    HW226862   4.470   4.036   3.643
 8955WAT     OW26863   0.868   0.422   0.563
 8955WAT    HW126864   0.946   0.395   0.620
 8955WAT    HW226865   0.866   0.521   0.553
 8956WAT     OW26866   2.335   5.119   0.779
 8956WAT    HW126867   2.402   5.092   0.849
 8956WAT    HW226868   2.323   5.218   0.781
 8957WAT     OW26869   6.331   0.992   6.139
 8957WAT    HW126870   6.263   0.919   6.136
 8957WAT    HW226871   6.358   1.015   6.045
 8958WAT     OW26872   5.010   0.947   5.238
 8958WAT    HW126873   5.019   0.850   5.213
 8958WAT    HW226874   5.049   0.962   5.329
 8959WAT     OW26875   2.310   6.252   5.511
 8959WAT    HW126876   2.215   6.262   5.483
 8959WAT    HW226877   2.317   6.262   5.610
 8960WAT     OW26878   5.167   0.678   1.910
 8960WAT    HW126879   5.110   0.635   1.840
 8960WAT    HW226880   5.136   0.772   1.926
 8961WAT     OW26881   2.593   2.355   1.952
 8961WAT    HW126882   2.569   2.321   2.043
 8961WAT    HW226883   2.605   2.278   1.890
 8962WAT     OW26884   4.540   1.925   1.398
 8962WAT    HW126885   4.599   1.916   1.318
 8962WAT    HW226886   4.446   1.903   1.373
 8963WAT     OW26887   1.885   6.634   3.263
 8963WAT    HW126888   1.876   6.645   3.362
 8963WAT    HW226889   1.847   6.546   3.235
 8964WAT     OW26890   1.913   5.326   3.703
 8964WAT    HW126891   1.881   5.389   3.774
 8964WAT    HW226892   1.989   5.272   3.738
 8965WAT     OW26893   4.683   5.738   3.559
 8965WAT    HW126894   4.694   5.691   3.471
 8965WAT    HW226895   4.612   5.808   3.551
 8966WAT     OW26896   1.608   1.868   1.487
 8966WAT    HW126897   1.526   1.925   1.483
 8966WAT    HW226898   1.689   1.925   1.468
 8967WAT     OW26899   6.555   2.148   1.670
 8967WAT    HW126900   6.480   2.192   1.720
 8967WAT    HW226901   6.522   2.114   1.582
 8968WAT     OW26902   2.711   6.025   4.319
 8968WAT    HW126903   2.696   5.972   4.403
 8968WAT    HW226904   2.763   6.108   4.342
 8969WAT     OW26905   3.065   5.338   6.012
 8969WAT    HW126906   3.019   5.268   6.067
 8969WAT    HW226907   3.143   5.374   6.063
 8970WAT     OW26908   4.719   0.380   0.712
 8970WAT    HW126909   4.799   0.426   0.675
 8970WAT    HW226910   4.685   0.431   0.791
 8971WAT     OW26911   4.641   4.324   0.013
 8971WAT    HW126912   4.558   4.299   0.063
 8971WAT    HW226913   4.644   4.423   0.000
 8972WAT     OW26914   5.116   1.356   6.463
 8972WAT    HW126915   5.160   1.369   6.552
 8972WAT    HW226916   5.035   1.298   6.474
 8973WAT     OW26917   2.479   3.318   5.629
 8973WAT    HW126918   2.429   3.232   5.637
 8973WAT    HW226919   2.427   3.391   5.674
 8974WAT     OW26920   1.809   0.794   2.275
 8974WAT    HW126921   1.736   0.844   2.323
 8974WAT    HW226922   1.847   0.852   2.203
 8975WAT     OW26923   5.015   5.905   4.609
 8975WAT    HW126924   5.015   5.937   4.515
 8975WAT    HW226925   4.998   5.806   4.611
 8976WAT     OW26926   5.946   1.133   3.027
 8976WAT    HW126927   6.010   1.126   2.951
 8976WAT    HW226928   5.857   1.096   3.001
 8977WAT     OW26929   3.808   5.245   2.276
 8977WAT    HW126930   3.746   5.227   2.353
 8977WAT    HW226931   3.888   5.294   2.310
 8978WAT     OW26932   1.979   6.592   4.993
 8978WAT    HW126933   1.894   6.641   4.975
 8978WAT    HW226934   1.990   6.580   5.092
 8979WAT     OW26935   5.526   1.580   3.486
 8979WAT    HW126936   5.572   1.654   3.534
 8979WAT    HW226937   5.589   1.504   3.473
 8980WAT     OW26938   1.982   5.177   1.212
 8980WAT    HW126939   1.953   5.129   1.295
 8980WAT    HW226940   1.974   5.116   1.133
 8981WAT     OW26941   3.072   4.132   1.569
 8981WAT    HW126942   2.996   4.192   1.597
 8981WAT    HW226943   3.062   4.043   1.614
 8982WAT     OW26944   2.662   4.349   5.375
 8982WAT    HW126945   2.698   4.429   5.422
 8982WAT    HW226946   2.724   4.321   5.302
 8983WAT     OW26947   2.699   2.145   5.988
 8983WAT    HW126948   2.727   2.091   5.908
 8983WAT    HW226949   2.601   2.134   6.002
 8984WAT     OW26950   2.927   3.302   2.581
 8984WAT    HW126951   2.961   3.336   2.493
 8984WAT    HW226952   2.902   3.380   2.639
 8985WAT     OW26953   4.957   5.864   0.964
 8985WAT    HW126954   4.914   5.791   0.910
 8985WAT    HW226955   5.007   5.824   1.041
 8986WAT     OW26956   5.155   2.444   1.218
 8986WAT    HW126957   5.135   2.419   1.124
 8986WAT    HW226958   5.088   2.511   1.249
 8987WAT     OW26959   2.999   1.853   3.208
 8987WAT    HW126960   2.920   1.853   3.147
 8987WAT    HW226961   3.047   1.766   3.201
 8988WAT     OW26962   1.059   3.059   2.829
 8988WAT    HW126963   1.128   3.081   2.898
 8988WAT    HW226964   1.050   3.136   2.765
 8989WAT     OW26965   2.207   5.263   1.332
 8989WAT    HW126966   2.121   5.237   1.287
 8989WAT    HW226967   2.188   5.329   1.404
 8990WAT     OW26968   3.310   5.365   5.393
 8990WAT    HW126969   3.246   5.299   5.354
 8990WAT    HW226970   3.377   5.392   5.324
 8991WAT     OW26971   5.970   3.173   1.853
 8991WAT    HW126972   5.948   3.197   1.759
 8991WAT    HW226973   5.887   3.173   1.908
 8992WAT     OW26974   5.398   4.884   6.090
 8992WAT    HW126975   5.366   4.818   6.022
 8992WAT    HW226976   5.367   4.976   6.064
 8993WAT     OW26977   4.789   5.315   5.955
 8993WAT    HW126978   4.729   5.236   5.945
 8993WAT    HW226979   4.736   5.399   5.946
 8994WAT     OW26980   0.906   4.964   6.211
 8994WAT    HW126981   0.813   4.987   6.241
 8994WAT    HW226982   0.967   4.961   6.289
 8995WAT     OW26983   3.198   5.129   1.137
 8995WAT    HW126984   3.123   5.117   1.072
 8995WAT    HW226985   3.161   5.135   1.230
 8996WAT     OW26986   0.948   5.350   6.040
 8996WAT    HW126987   0.855   5.345   6.077
 8996WAT    HW226988   0.946   5.393   5.950
 8997WAT     OW26989   0.991   3.563   4.828
 8997WAT    HW126990   1.063   3.630   4.812
 8997WAT    HW226991   0.908   3.591   4.780
 8998WAT     OW26992   2.604   4.705   1.531
 8998WAT    HW126993   2.693   4.749   1.519
 8998WAT    HW226994   2.536   4.773   1.557
 8999WAT     OW26995   2.016   4.730   1.662
 8999WAT    HW126996   2.054   4.697   1.748
 8999WAT    HW226997   2.034   4.828   1.652
 9000WAT     OW26998   3.129   0.761   6.391
 9000WAT    HW126999   3.175   0.701   6.455
 9000WAT    HW227000   3.044   0.796   6.432
 9001WAT     OW27001   0.723   4.512   3.698
 9001WAT    HW127002   0.651   4.571   3.732
 9001WAT    HW227003   0.746   4.536   3.604
 9002WAT     OW27004   2.546   5.716   5.858
 9002WAT    HW127005   2.464   5.769   5.840
 9002WAT    HW227006   2.530   5.621   5.832
 9003WAT     OW27007   5.132   4.094   1.665
 9003WAT    HW127008   5.081   4.008   1.662
 9003WAT    HW227009   5.227   4.077   1.640
 9004WAT     OW27010   4.252   4.197   6.443
 9004WAT    HW127011   4.349   4.204   6.464
 9004WAT    HW227012   4.220   4.104   6.462
 9005WAT     OW27013   0.323   0.693   4.181
 9005WAT    HW127014   0.227   0.666   4.195
 9005WAT    HW227015   0.327   0.778   4.129
 9006WAT     OW27016   5.621   4.316   6.028
 9006WAT    HW127017   5.554   4.243   6.038
 9006WAT    HW227018   5.583   4.389   5.972
 9007WAT     OW27019   0.612   4.611   3.256
 9007WAT    HW127020   0.551   4.665   3.314
 9007WAT    HW227021   0.559   4.543   3.206
 9008WAT     OW27022   0.464   5.424   3.033
 9008WAT    HW127023   0.450   5.343   2.976
 9008WAT    HW227024   0.426   5.505   2.987
 9009WAT     OW27025   4.409   5.170   5.315
 9009WAT    HW127026   4.452   5.253   5.350
 9009WAT    HW227027   4.435   5.156   5.220
 9010WAT     OW27028   1.892   1.827   3.100
 9010WAT    HW127029   1.796   1.821   3.072
 9010WAT    HW227030   1.934   1.908   3.059
 9011WAT     OW27031   3.218   4.563   4.447
 9011WAT    HW127032   3.227   4.567   4.546
 9011WAT    HW227033   3.252   4.648   4.407
 9012WAT     OW27034   2.502   3.533   1.830
 9012WAT    HW127035   2.531   3.443   1.863
 9012WAT    HW227036   2.564   3.563   1.757
 9013WAT     OW27037   4.688   1.767   6.209
 9013WAT    HW127038   4.646   1.759   6.300
 9013WAT    HW227039   4.616   1.766   6.139
 9014WAT     OW27040   2.515   4.215   0.899
 9014WAT    HW127041   2.504   4.223   0.998
 9014WAT    HW227042   2.455   4.143   0.865
 9015WAT     OW27043   4.789   0.657   5.356
 9015WAT    HW127044   4.794   0.674   5.454
 9015WAT    HW227045   4.760   0.740   5.308
 9016WAT     OW27046   6.064   3.024   2.074
 9016WAT    HW127047   6.054   3.060   1.981
 9016WAT    HW227048   6.033   3.092   2.140
 9017WAT     OW27049   4.858   4.140   3.758
 9017WAT    HW127050   4.953   4.160   3.737
 9017WAT    HW227051   4.853   4.094   3.847
 9018WAT     OW27052   4.760   0.190   6.146
 9018WAT    HW127053   4.688   0.192   6.077
 9018WAT    HW227054   4.821   0.267   6.133
 9019WAT     OW27055   3.317   5.887   5.950
 9019WAT    HW127056   3.402   5.846   5.982
 9019WAT    HW227057   3.288   5.842   5.866
 9020WAT     OW27058   4.692   5.073   6.566
 9020WAT    HW127059   4.652   5.127   6.640
 9020WAT    HW227060   4.620   5.035   6.509
 9021WAT     OW27061   4.220   0.956   1.905
 9021WAT    HW127062   4.304   1.003   1.879
 9021WAT    HW227063   4.194   0.891   1.833
 9022WAT     OW27064   4.894   2.786   2.907
 9022WAT    HW127065   4.888   2.798   2.808
 9022WAT    HW227066   4.963   2.716   2.928
 9023WAT     OW27067   1.957   1.554   3.034
 9023WAT    HW127068   1.956   1.653   3.043
 9023WAT    HW227069   1.996   1.528   2.945
 9024WAT     OW27070   2.008   1.040   1.809
 9024WAT    HW127071   1.965   1.002   1.891
 9024WAT    HW227072   2.022   1.139   1.821
 9025WAT     OW27073   1.680   4.096   4.416
 9025WAT    HW127074   1.628   4.011   4.417
 9025WAT    HW227075   1.653   4.151   4.337
 9026WAT     OW27076   3.554   1.155   0.733
 9026WAT    HW127077   3.535   1.107   0.819
 9026WAT    HW227078   3.470   1.164   0.680
 9027WAT     OW27079   3.106   2.471   0.381
 9027WAT    HW127080   3.054   2.394   0.418
 9027WAT    HW227081   3.118   2.458   0.282
 9028WAT     OW27082   4.776   5.369   2.159
 9028WAT    HW127083   4.854   5.389   2.100
 9028WAT    HW227084   4.742   5.454   2.200
 9029WAT     OW27085   6.263   4.698   2.782
 9029WAT    HW127086   6.331   4.765   2.812
 9029WAT    HW227087   6.176   4.744   2.762
 9030WAT     OW27088   4.504   4.662   6.051
 9030WAT    HW127089   4.504   4.566   6.022
 9030WAT    HW227090   4.418   4.682   6.098
 9031WAT     OW27091   3.626   5.909   3.929
 9031WAT    HW127092   3.535   5.889   3.965
 9031WAT    HW227093   3.632   5.879   3.834
 9032WAT     OW27094   6.525   6.175   5.520
 9032WAT    HW127095   6.501   6.150   5.426
 9032WAT    HW227096   6.481   6.261   5.544
 9033WAT     OW27097   3.834   6.257   1.497
 9033WAT    HW127098   3.747   6.213   1.475
 9033WAT    HW227099   3.892   6.259   1.416
 9034WAT     OW27100   0.443   0.793   1.265
 9034WAT    HW127101   0.449   0.876   1.320
 9034WAT    HW227102   0.351   0.754   1.274
 9035WAT     OW27103   2.177   5.113   4.443
 9035WAT    HW127104   2.261   5.163   4.423
 9035WAT    HW227105   2.107   5.137   4.375
 9036WAT     OW27106   1.323   6.591   0.286
 9036WAT    HW127107   1.278   6.520   0.339
 9036WAT    HW227108   1.364   6.551   0.204
 9037WAT     OW27109   4.865   3.502   0.443
 9037WAT    HW127110   4.953   3.486   0.399
 9037WAT    HW227111   4.830   3.416   0.480
 9038WAT     OW27112   1.658   1.221   0.356
 9038WAT    HW127113   1.683   1.301   0.302
 9038WAT    HW227114   1.585   1.246   0.420
 9039WAT     OW27115   5.146   2.244   5.065
 9039WAT    HW127116   5.075   2.205   5.124
 9039WAT    HW227117   5.103   2.299   4.993
 9040WAT     OW27118   3.797   5.292   4.649
 9040WAT    HW127119   3.892   5.285   4.619
 9040WAT    HW227120   3.794   5.295   4.749
 9041WAT     OW27121   3.425   4.933   0.727
 9041WAT    HW127122   3.384   4.961   0.640
 9041WAT    HW227123   3.354   4.891   0.785
 9042WAT     OW27124   4.080   1.321   2.664
 9042WAT    HW127125   4.127   1.255   2.605
 9042WAT    HW227126   4.006   1.274   2.713
 9043WAT     OW27127   2.362   1.141   0.317
 9043WAT    HW127128   2.275   1.130   0.270
 9043WAT    HW227129   2.346   1.168   0.412
 9044WAT     OW27130   4.382   3.638   2.598
 9044WAT    HW127131   4.319   3.668   2.670
 9044WAT    HW227132   4.405   3.542   2.612
 9045WAT     OW27133   1.022   4.509   4.651
 9045WAT    HW127134   0.989   4.423   4.690
 9045WAT    HW227135   1.080   4.556   4.718
 9046WAT     OW27136   3.387   0.174   0.918
 9046WAT    HW127137   3.322   0.241   0.954
 9046WAT    HW227138   3.449   0.220   0.853
 9047WAT     OW27139   5.783   0.402   6.543
 9047WAT    HW127140   5.820   0.377   6.633
 9047WAT    HW227141   5.858   0.411   6.478
 9048WAT     OW27142   1.434   3.011   0.556
 9048WAT    HW127143   1.371   3.072   0.509
 9048WAT    HW227144   1.472   3.058   0.636
 9049WAT     OW27145   6.084   4.084   4.893
 9049WAT    HW127146   6.122   4.159   4.946
 9049WAT    HW227147   6.091   4.105   4.795
 9050WAT     OW27148   6.409   5.877   6.403
 9050WAT    HW127149   6.455   5.842   6.485
 9050WAT    HW227150   6.364   5.963   6.423
 9051WAT     OW27151   3.309   0.439   2.628
 9051WAT    HW127152   3.246   0.372   2.588
 9051WAT    HW227153   3.402   0.404   2.623
 9052WAT     OW27154   5.401   0.167   1.160
 9052WAT    HW127155   5.432   0.210   1.245
 9052WAT    HW227156   5.353   0.082   1.182
 9053WAT     OW27157   1.825   5.273   2.189
 9053WAT    HW127158   1.908   5.218   2.176
 9053WAT    HW227159   1.849   5.361   2.230
 9054WAT     OW27160   1.209   0.752   1.050
 9054WAT    HW127161   1.301   0.736   1.012
 9054WAT    HW227162   1.212   0.830   1.113
 9055WAT     OW27163   5.604   3.033   1.419
 9055WAT    HW127164   5.697   3.009   1.446
 9055WAT    HW227165   5.549   2.950   1.410
 9056WAT     OW27166   2.785   6.379   3.884
 9056WAT    HW127167   2.735   6.398   3.799
 9056WAT    HW227168   2.848   6.454   3.902
 9057WAT     OW27169   3.257   1.244   3.983
 9057WAT    HW127170   3.300   1.316   4.038
 9057WAT    HW227171   3.308   1.158   3.996
 9058WAT     OW27172   0.209   6.140   4.850
 9058WAT    HW127173   0.278   6.111   4.784
 9058WAT    HW227174   0.125   6.165   4.802
 9059WAT     OW27175   4.990   3.998   6.448
 9059WAT    HW127176   4.971   3.917   6.503
 9059WAT    HW227177   4.923   4.004   6.374
 9060WAT     OW27178   5.932   2.540   4.149
 9060WAT    HW127179   5.958   2.523   4.054
 9060WAT    HW227180   5.837   2.510   4.163
 9061WAT     OW27181   2.617   3.248   1.196
 9061WAT    HW127182   2.683   3.185   1.237
 9061WAT    HW227183   2.564   3.200   1.126
 9062WAT     OW27184   1.658   0.538   1.311
 9062WAT    HW127185   1.628   0.531   1.215
 9062WAT    HW227186   1.658   0.447   1.352
 9063WAT     OW27187   1.156   2.189   3.308
 9063WAT    HW127188   1.126   2.267   3.254
 9063WAT    HW227189   1.251   2.204   3.338
 9064WAT     OW27190   2.939   3.716   4.226
 9064WAT    HW127191   2.956   3.669   4.312
 9064WAT    HW227192   3.014   3.780   4.208
 9065WAT     OW27193   0.050   6.062   2.185
 9065WAT    HW127194   0.079   6.034   2.093
 9065WAT    HW227195  -0.032   6.012   2.210
 9066WAT     OW27196   1.197   1.862   4.644
 9066WAT    HW127197   1.262   1.885   4.717
 9066WAT    HW227198   1.169   1.945   4.597
 9067WAT     OW27199   4.386   2.802   6.345
 9067WAT    HW127200   4.447   2.747   6.402
 9067WAT    HW227201   4.294   2.763   6.348
 9068WAT     OW27202   3.394   2.074   4.032
 9068WAT    HW127203   3.300   2.064   4.065
 9068WAT    HW227204   3.408   2.014   3.953
 9069WAT     OW27205   5.368   5.739   2.276
 9069WAT    HW127206   5.451   5.739   2.221
 9069WAT    HW227207   5.376   5.671   2.349
 9070WAT     OW27208   2.784   0.096   0.506
 9070WAT    HW127209   2.788   0.136   0.415
 9070WAT    HW227210   2.767  -0.002   0.499
 9071WAT     OW27211   4.760   3.426   2.341
 9071WAT    HW127212   4.692   3.487   2.301
 9071WAT    HW227213   4.715   3.361   2.402
 9072WAT     OW27214   5.829   4.932   4.915
 9072WAT    HW127215   5.904   4.950   4.852
 9072WAT    HW227216   5.840   4.841   4.955
 9073WAT     OW27217   3.436   4.083   0.320
 9073WAT    HW127218   3.347   4.125   0.336
 9073WAT    HW227219   3.489   4.084   0.405
 9074WAT     OW27220   2.593   2.976   0.316
 9074WAT    HW127221   2.691   2.978   0.337
 9074WAT    HW227222   2.580   2.987   0.217
 9075WAT     OW27223   6.244   3.532   6.463
 9075WAT    HW127224   6.208   3.515   6.371
 9075WAT    HW227225   6.279   3.447   6.501
 9076WAT     OW27226   5.132   4.533   2.531
 9076WAT    HW127227   5.061   4.499   2.469
 9076WAT    HW227228   5.100   4.523   2.626
 9077WAT     OW27229   2.177   3.894   1.054
 9077WAT    HW127230   2.127   3.899   1.140
 9077WAT    HW227231   2.245   3.821   1.059
 9078WAT     OW27232   2.736   5.593   4.217
 9078WAT    HW127233   2.734   5.624   4.312
 9078WAT    HW227234   2.666   5.641   4.164
 9079WAT     OW27235   4.767   1.082   4.447
 9079WAT    HW127236   4.724   0.996   4.476
 9079WAT    HW227237   4.832   1.064   4.374
 9080WAT     OW27238   1.290   4.211   3.696
 9080WAT    HW127239   1.224   4.166   3.756
 9080WAT    HW227240   1.363   4.251   3.751
 9081WAT     OW27241   4.990   6.477   0.497
 9081WAT    HW127242   4.949   6.396   0.454
 9081WAT    HW227243   4.918   6.541   0.522
 9082WAT     OW27244   3.575   3.525   2.086
 9082WAT    HW127245   3.506   3.460   2.056
 9082WAT    HW227246   3.564   3.544   2.183
 9083WAT     OW27247   3.357   1.483   0.635
 9083WAT    HW127248   3.350   1.582   0.649
 9083WAT    HW227249   3.366   1.437   0.724
 9084WAT     OW27250   0.870   1.450   0.780
 9084WAT    HW127251   0.872   1.359   0.739
 9084WAT    HW227252   0.805   1.451   0.856
 9085WAT     OW27253   3.277   3.191   1.850
 9085WAT    HW127254   3.221   3.264   1.810
 9085WAT    HW227255   3.217   3.118   1.884
 9086WAT     OW27256   1.074   4.000   3.354
 9086WAT    HW127257   1.064   3.912   3.307
 9086WAT    HW227258   1.165   4.006   3.396
 9087WAT     OW27259   5.305   1.750   6.245
 9087WAT    HW127260   5.259   1.809   6.180
 9087WAT    HW227261   5.395   1.724   6.208
 9088WAT     OW27262   6.091   6.260   4.612
 9088WAT    HW127263   6.125   6.284   4.521
 9088WAT    HW227264   6.163   6.210   4.662
 9089WAT     OW27265   0.230   3.902   5.916
 9089WAT    HW127266   0.156   3.948   5.965
 9089WAT    HW227267   0.245   3.946   5.828
 9090WAT     OW27268   4.840   4.824   3.489
 9090WAT    HW127269   4.793   4.803   3.575
 9090WAT    HW227270   4.773   4.860   3.423
 9091WAT     OW27271   6.381   3.968   4.176
 9091WAT    HW127272   6.402   3.894   4.240
 9091WAT    HW227273   6.452   3.972   4.105
 9092WAT     OW27274   2.477   3.266   1.591
 9092WAT    HW127275   2.387   3.285   1.632
 9092WAT    HW227276   2.483   3.169   1.566
 9093WAT     OW27277   4.383   0.105   1.252
 9093WAT    HW127278   4.423   0.164   1.182
 9093WAT    HW227279   4.409   0.010   1.234
 9094WAT     OW27280   4.868   4.644   4.345
 9094WAT    HW127281   4.963   4.615   4.354
 9094WAT    HW227282   4.830   4.609   4.259
 9095WAT     OW27283   1.134   2.313   5.585
 9095WAT    HW127284   1.158   2.372   5.661
 9095WAT    HW227285   1.083   2.234   5.619
 9096WAT     OW27286   4.779   0.420   4.467
 9096WAT    HW127287   4.726   0.345   4.506
 9096WAT    HW227288   4.876   0.395   4.466
 9097WAT     OW27289   6.123   4.205   6.445
 9097WAT    HW127290   6.200   4.229   6.504
 9097WAT    HW227291   6.042   4.189   6.501
 9098WAT     OW27292   3.296   1.210   6.446
 9098WAT    HW127293   3.256   1.287   6.396
 9098WAT    HW227294   3.277   1.125   6.397
 9099WAT     OW27295   6.187   4.801   3.820
 9099WAT    HW127296   6.235   4.739   3.757
 9099WAT    HW227297   6.250   4.830   3.892
 9100WAT     OW27298   4.225   5.570   0.127
 9100WAT    HW127299   4.232   5.669   0.142
 9100WAT    HW227300   4.231   5.551   0.029
 9101WAT     OW27301   3.954   3.139   2.984
 9101WAT    HW127302   3.960   3.118   3.082
 9101WAT    HW227303   3.875   3.199   2.969
 9102WAT     OW27304   5.666   1.715   4.987
 9102WAT    HW127305   5.758   1.687   4.957
 9102WAT    HW227306   5.614   1.634   5.012
 9103WAT     OW27307   2.386   6.273   3.439
 9103WAT    HW127308   2.456   6.308   3.377
 9103WAT    HW227309   2.344   6.192   3.399
 9104WAT     OW27310   4.215   3.590   4.020
 9104WAT    HW127311   4.292   3.590   3.956
 9104WAT    HW227312   4.179   3.683   4.029
 9105WAT     OW27313   0.664   5.392   4.335
 9105WAT    HW127314   0.669   5.491   4.323
 9105WAT    HW227315   0.580   5.357   4.294
 9106WAT     OW27316   5.202   3.232   6.442
 9106WAT    HW127317   5.301   3.235   6.433
 9106WAT    HW227318   5.171   3.311   6.496
 9107WAT     OW27319   0.955   0.745   2.524
 9107WAT    HW127320   0.907   0.785   2.447
 9107WAT    HW227321   0.890   0.725   2.598
 9108WAT     OW27322   6.585   2.141   5.780
 9108WAT    HW127323   6.573   2.240   5.785
 9108WAT    HW227324   6.534   2.105   5.701
 9109WAT     OW27325   3.638   0.500   5.273
 9109WAT    HW127326   3.629   0.531   5.178
 9109WAT    HW227327   3.731   0.518   5.305
 9110WAT     OW27328   0.165   6.649   5.339
 9110WAT    HW127329   0.215   6.598   5.269
 9110WAT    HW227330   0.098   6.589   5.382
 9111WAT     OW27331   5.986   5.683   6.206
 9111WAT    HW127332   6.012   5.711   6.113
 9111WAT    HW227333   6.068   5.677   6.263
 9112WAT     OW27334   1.709   2.422   5.167
 9112WAT    HW127335   1.797   2.395   5.130
 9112WAT    HW227336   1.710   2.414   5.267
 9113WAT     OW27337   4.843   1.421   5.662
 9113WAT    HW127338   4.803   1.332   5.680
 9113WAT    HW227339   4.870   1.463   5.749
 9114WAT     OW27340   2.587   6.016   3.304
 9114WAT    HW127341   2.487   6.021   3.310
 9114WAT    HW227342   2.627   6.090   3.358
 9115WAT     OW27343   4.939   6.603   4.337
 9115WAT    HW127344   4.897   6.648   4.258
 9115WAT    HW227345   4.934   6.504   4.326
 9116WAT     OW27346   5.191   6.218   5.881
 9116WAT    HW127347   5.206   6.231   5.783
 9116WAT    HW227348   5.278   6.198   5.926
 9117WAT     OW27349   4.543   0.251   2.045
 9117WAT    HW127350   4.463   0.242   2.104
 9117WAT    HW227351   4.514   0.272   1.952
 9118WAT     OW27352   3.752   5.025   4.591
 9118WAT    HW127353   3.745   5.123   4.608
 9118WAT    HW227354   3.771   5.010   4.494
 9119WAT     OW27355   3.612   1.470   4.721
 9119WAT    HW127356   3.525   1.441   4.681
 9119WAT    HW227357   3.676   1.492   4.648
 9120WAT     OW27358   1.260   6.449   5.142
 9120WAT    HW127359   1.173   6.408   5.169
 9120WAT    HW227360   1.318   6.459   5.223
 9121WAT     OW27361   3.287   4.997   6.234
 9121WAT    HW127362   3.296   4.953   6.145
 9121WAT    HW227363   3.351   5.074   6.240
 9122WAT     OW27364   0.041   0.032   3.556
 9122WAT    HW127365   0.089   0.057   3.473
 9122WAT    HW227366   0.103   0.038   3.634
 9123WAT     OW27367   6.500   5.305   4.986
 9123WAT    HW127368   6.495   5.261   4.896
 9123WAT    HW227369   6.440   5.386   4.987
 9124WAT     OW27370   3.671   1.234   3.714
 9124WAT    HW127371   3.747   1.232   3.649
 9124WAT    HW227372   3.601   1.168   3.686
 9125WAT     OW27373   5.497   6.503   5.916
 9125WAT    HW127374   5.574   6.487   5.978
 9125WAT    HW227375   5.450   6.587   5.943
 9126WAT     OW27376   0.437   2.962   2.316
 9126WAT    HW127377   0.483   2.948   2.404
 9126WAT    HW227378   0.499   2.936   2.242
 9127WAT     OW27379   2.910   4.342   6.167
 9127WAT    HW127380   2.817   4.367   6.142
 9127WAT    HW227381   2.959   4.422   6.202
 9128WAT     OW27382   5.965   4.728   5.599
 9128WAT    HW127383   5.969   4.825   5.622
 9128WAT    HW227384   6.054   4.686   5.615
 9129WAT     OW27385   1.984   5.393   0.432
 9129WAT    HW127386   1.905   5.340   0.463
 9129WAT    HW227387   2.005   5.367   0.337
 9130WAT     OW27388   3.791   5.123   1.265
 9130WAT    HW127389   3.764   5.035   1.226
 9130WAT    HW227390   3.709   5.174   1.291
 9131WAT     OW27391   3.975   1.476   2.264
 9131WAT    HW127392   3.883   1.437   2.269
 9131WAT    HW227393   4.042   1.403   2.270
 9132WAT     OW27394   6.094   0.099   3.250
 9132WAT    HW127395   6.057   0.192   3.251
 9132WAT    HW227396   6.168   0.093   3.182
 9133WAT     OW27397   2.423   0.012   6.645
 9133WAT    HW127398   2.352   0.082   6.634
 9133WAT    HW227399   2.395  -0.071   6.597
 9134WAT     OW27400   2.191   4.633   4.953
 9134WAT    HW127401   2.228   4.593   4.870
 9134WAT    HW227402   2.150   4.721   4.933
 9135WAT     OW27403   0.211   0.273   6.161
 9135WAT    HW127404   0.177   0.366   6.148
 9135WAT    HW227405   0.246   0.237   6.075
 9136WAT     OW27406   2.866   6.008   3.711
 9136WAT    HW127407   2.896   5.935   3.650
 9136WAT    HW227408   2.915   6.001   3.798
 9137WAT     OW27409   1.449   5.324   1.610
 9137WAT    HW127410   1.426   5.228   1.594
 9137WAT    HW227411   1.442   5.344   1.708
 9138WAT     OW27412   1.539   2.594   2.184
 9138WAT    HW127413   1.604   2.622   2.255
 9138WAT    HW227414   1.494   2.674   2.145
 9139WAT     OW27415   2.405   0.752   6.237
 9139WAT    HW127416   2.505   0.749   6.238
 9139WAT    HW227417   2.374   0.836   6.193
 9140WAT     OW27418   3.524   2.562   3.124
 9140WAT    HW127419   3.430   2.587   3.147
 9140WAT    HW227420   3.527   2.528   3.030
 9141WAT     OW27421   4.736   5.252   5.540
 9141WAT    HW127422   4.809   5.242   5.608
 9141WAT    HW227423   4.664   5.186   5.559
 9142WAT     OW27424   2.537   5.073   0.959
 9142WAT    HW127425   2.516   5.103   1.052
 9142WAT    HW227426   2.586   5.145   0.910
 9143WAT     OW27427   0.796   0.729   5.148
 9143WAT    HW127428   0.747   0.660   5.202
 9143WAT    HW227429   0.750   0.742   5.060
 9144WAT     OW27430   1.935   1.154   5.897
 9144WAT    HW127431   1.889   1.127   5.813
 9144WAT    HW227432   1.971   1.247   5.887
 9145WAT     OW27433   5.052   5.157   1.983
 9145WAT    HW127434   5.034   5.254   1.966
 9145WAT    HW227435   5.147   5.136   1.959
 9146WAT     OW27436   2.263   5.950   2.542
 9146WAT    HW127437   2.192   5.921   2.478
 9146WAT    HW227438   2.352   5.918   2.510
 9147WAT     OW27439   0.062   1.731   0.801
 9147WAT    HW127440   0.122   1.716   0.723
 9147WAT    HW227441   0.117   1.747   0.883
 9148WAT     OW27442   6.568   3.714   5.252
 9148WAT    HW127443   6.494   3.776   5.276
 9148WAT    HW227444   6.645   3.727   5.315
 9149WAT     OW27445   6.529   1.256   6.083
 9149WAT    HW127446   6.446   1.265   6.138
 9149WAT    HW227447   6.508   1.276   5.987
 9150WAT     OW27448   2.223   4.508   3.328
 9150WAT    HW127449   2.294   4.440   3.308
 9150WAT    HW227450   2.184   4.489   3.418
 9151WAT     OW27451   1.812   1.832   0.448
 9151WAT    HW127452   1.851   1.754   0.498
 9151WAT    HW227453   1.884   1.898   0.427
 9152WAT     OW27454   0.486   0.436   1.665
 9152WAT    HW127455   0.576   0.448   1.709
 9152WAT    HW227456   0.460   0.339   1.670
 9153WAT     OW27457   3.894   4.903   2.297
 9153WAT    HW127458   3.842   4.824   2.263
 9153WAT    HW227459   3.913   4.965   2.221
 9154WAT     OW27460   1.486   5.138   0.966
 9154WAT    HW127461   1.496   5.207   0.895
 9154WAT    HW227462   1.529   5.170   1.050
 9155WAT     OW27463   2.592   6.667   5.825
 9155WAT    HW127464   2.645   6.738   5.779
 9155WAT    HW227465   2.509   6.707   5.864
 9156WAT     OW27466   6.554   1.046   0.430
 9156WAT    HW127467   6.519   0.998   0.510
 9156WAT    HW227468   6.652   1.058   0.439
 9157WAT     OW27469   5.719   4.810   0.192
 9157WAT    HW127470   5.719   4.877   0.267
 9157WAT    HW227471   5.719   4.718   0.231
 9158WAT     OW27472   3.625   0.638   1.052
 9158WAT    HW127473   3.634   0.555   1.107
 9158WAT    HW227474   3.558   0.699   1.095
 9159WAT     OW27475   1.669   0.815   1.707
 9159WAT    HW127476   1.623   0.898   1.737
 9159WAT    HW227477   1.758   0.838   1.666
 9160WAT     OW27478   3.171   5.839   5.224
 9160WAT    HW127479   3.073   5.826   5.244
 9160WAT    HW227480   3.209   5.754   5.188
 9161WAT     OW27481   5.285   2.976   1.732
 9161WAT    HW127482   5.383   2.988   1.716
 9161WAT    HW227483   5.267   2.883   1.763
 9162WAT     OW27484   0.361   0.181   2.299
 9162WAT    HW127485   0.265   0.163   2.321
 9162WAT    HW227486   0.375   0.170   2.201
 9163WAT     OW27487   1.358   3.347   6.193
 9163WAT    HW127488   1.269   3.341   6.148
 9163WAT    HW227489   1.409   3.425   6.156
 9164WAT     OW27490   6.643   4.373   5.820
 9164WAT    HW127491   6.742   4.384   5.810
 9164WAT    HW227492   6.614   4.402   5.911
 9165WAT     OW27493   2.867   1.316   0.941
 9165WAT    HW127494   2.784   1.358   0.978
 9165WAT    HW227495   2.909   1.378   0.875
 9166WAT     OW27496   0.705   2.691   1.434
 9166WAT    HW127497   0.720   2.779   1.391
 9166WAT    HW227498   0.607   2.670   1.433
 9167WAT     OW27499   4.162   4.999   3.711
 9167WAT    HW127500   4.259   5.022   3.719
 9167WAT    HW227501   4.130   5.023   3.619
 9168WAT     OW27502   6.359   4.263   4.510
 9168WAT    HW127503   6.439   4.207   4.531
 9168WAT    HW227504   6.375   4.357   4.541
 9169WAT     OW27505   2.455   4.307   0.637
 9169WAT    HW127506   2.358   4.284   0.643
 9169WAT    HW227507   2.498   4.296   0.726
 9170WAT     OW27508   6.285   6.675   0.305
 9170WAT    HW127509   6.207   6.613   0.313
 9170WAT    HW227510   6.370   6.622   0.308
 9171WAT     OW27511   1.118   5.558   2.487
 9171WAT    HW127512   1.130   5.654   2.511
 9171WAT    HW227513   1.142   5.544   2.391
 9172WAT     OW27514   1.883   5.164   1.837
 9172WAT    HW127515   1.980   5.152   1.858
 9172WAT    HW227516   1.829   5.097   1.887
 9173WAT     OW27517   1.183   4.478   1.716
 9173WAT    HW127518   1.196   4.412   1.641
 9173WAT    HW227519   1.122   4.550   1.686
 9174WAT     OW27520   1.153   2.164   5.220
 9174WAT    HW127521   1.060   2.197   5.230
 9174WAT    HW227522   1.215   2.224   5.271
 9175WAT     OW27523   6.558   3.241   0.048
 9175WAT    HW127524   6.642   3.292   0.068
 9175WAT    HW227525   6.514   3.216   0.134
 9176WAT     OW27526   0.468   3.945   6.036
 9176WAT    HW127527   0.387   3.915   5.986
 9176WAT    HW227528   0.536   3.980   5.972
 9177WAT     OW27529   2.460   2.971   1.539
 9177WAT    HW127530   2.451   2.872   1.532
 9177WAT    HW227531   2.401   3.015   1.471
 9178WAT     OW27532   2.616   0.920   4.188
 9178WAT    HW127533   2.647   0.883   4.101
 9178WAT    HW227534   2.533   0.974   4.174
 9179WAT     OW27535   5.685   2.843   2.024
 9179WAT    HW127536   5.609   2.787   1.991
 9179WAT    HW227537   5.651   2.908   2.092
 9180WAT     OW27538   6.289   6.102   6.511
 9180WAT    HW127539   6.317   6.070   6.601
 9180WAT    HW227540   6.273   6.200   6.514
 9181WAT     OW27541   5.210   1.835   0.919
 9181WAT    HW127542   5.186   1.752   0.970
 9181WAT    HW227543   5.303   1.864   0.944
 9182WAT     OW27544   3.882   2.779   2.969
 9182WAT    HW127545   3.933   2.835   2.903
 9182WAT    HW227546   3.821   2.837   3.022
 9183WAT     OW27547   3.471   0.694   6.148
 9183WAT    HW127548   3.533   0.639   6.091
 9183WAT    HW227549   3.468   0.787   6.113
 9184WAT     OW27550   4.269   3.576   1.831
 9184WAT    HW127551   4.277   3.497   1.770
 9184WAT    HW227552   4.324   3.651   1.795
 9185WAT     OW27553   6.003   0.214   4.256
 9185WAT    HW127554   5.964   0.198   4.347
 9185WAT    HW227555   6.039   0.307   4.251
 9186WAT     OW27556   6.096   3.750   6.533
 9186WAT    HW127557   6.146   3.667   6.511
 9186WAT    HW227558   6.141   3.828   6.490
 9187WAT     OW27559   1.675   6.518   0.946
 9187WAT    HW127560   1.615   6.551   0.874
 9187WAT    HW227561   1.770   6.543   0.924
 9188WAT     OW27562   5.795   2.922   4.796
 9188WAT    HW127563   5.849   2.849   4.837
 9188WAT    HW227564   5.699   2.894   4.789
 9189WAT     OW27565   0.294   4.152   6.126
 9189WAT    HW127566   0.200   4.125   6.105
 9189WAT    HW227567   0.357   4.080   6.097
 9190WAT     OW27568   0.003   0.879   1.838
 9190WAT    HW127569   0.042   0.875   1.930
 9190WAT    HW227570   0.007   0.788   1.796
 9191WAT     OW27571   3.093   5.890   0.970
 9191WAT    HW127572   3.096   5.845   1.059
 9191WAT    HW227573   3.112   5.824   0.898
 9192WAT     OW27574   1.902   4.081   3.642
 9192WAT    HW127575   1.880   4.044   3.552
 9192WAT    HW227576   1.821   4.125   3.682
 9193WAT     OW27577   1.911   1.991   1.184
 9193WAT    HW127578   1.873   1.900   1.167
 9193WAT    HW227579   2.008   1.983   1.208
 9194WAT     OW27580   1.371   6.578   1.683
 9194WAT    HW127581   1.469   6.590   1.663
 9194WAT    HW227582   1.361   6.551   1.779
 9195WAT     OW27583   2.092   4.483   3.575
 9195WAT    HW127584   1.994   4.473   3.593
 9195WAT    HW227585   2.123   4.572   3.609
 9196WAT     OW27586   1.932   2.206   0.104
 9196WAT    HW127587   1.843   2.198   0.148
 9196WAT    HW227588   1.971   2.114   0.092
 9197WAT     OW27589   6.495   6.300   2.998
 9197WAT    HW127590   6.429   6.231   3.028
 9197WAT    HW227591   6.507   6.294   2.899
 9198WAT     OW27592   4.236   5.158   2.385
 9198WAT    HW127593   4.279   5.190   2.469
 9198WAT    HW227594   4.190   5.071   2.403
 9199WAT     OW27595   0.682   5.820   6.206
 9199WAT    HW127596   0.727   5.843   6.292
 9199WAT    HW227597   0.750   5.787   6.140
 9200WAT     OW27598   2.826   3.779   1.839
 9200WAT    HW127599   2.778   3.844   1.897
 9200WAT    HW227600   2.761   3.735   1.776
 9201WAT     OW27601   0.047   2.591   5.907
 9201WAT    HW127602   0.041   2.683   5.945
 9201WAT    HW227603   0.107   2.591   5.827
 9202WAT     OW27604   1.206   0.328   2.553
 9202WAT    HW127605   1.140   0.390   2.510
 9202WAT    HW227606   1.289   0.379   2.575
 9203WAT     OW27607   0.294   2.630   0.109
 9203WAT    HW127608   0.264   2.639   0.014
 9203WAT    HW227609   0.343   2.712   0.136
 9204WAT     OW27610   2.121   0.760   3.779
 9204WAT    HW127611   2.189   0.834   3.784
 9204WAT    HW227612   2.157   0.678   3.823
 9205WAT     OW27613   5.802   4.867   3.948
 9205WAT    HW127614   5.709   4.842   3.977
 9205WAT    HW227615   5.837   4.798   3.884
 9206WAT     OW27616   0.520   0.785   6.137
 9206WAT    HW127617   0.563   0.777   6.047
 9206WAT    HW227618   0.566   0.856   6.190
 9207WAT     OW27619   6.660   0.482   3.675
 9207WAT    HW127620   6.604   0.535   3.611
 9207WAT    HW227621   6.603   0.412   3.718
 9208WAT     OW27622   0.092   5.908   2.629
 9208WAT    HW127623  -0.003   5.884   2.610
 9208WAT    HW227624   0.096   5.997   2.672
 9209WAT     OW27625   5.434   0.798   0.411
 9209WAT    HW127626   5.481   0.729   0.355
 9209WAT    HW227627   5.440   0.887   0.366
 9210WAT     OW27628   0.575   0.030   2.376
 9210WAT    HW127629   0.564  -0.015   2.465
 9210WAT    HW227630   0.492   0.081   2.355
 9211WAT     OW27631   0.477   3.063   5.804
 9211WAT    HW127632   0.508   3.027   5.892
 9211WAT    HW227633   0.418   2.996   5.760
 9212WAT     OW27634   6.151   2.986   5.024
 9212WAT    HW127635   6.121   3.012   4.932
 9212WAT    HW227636   6.251   2.991   5.029
 9213WAT     OW27637   0.348   6.295   5.540
 9213WAT    HW127638   0.256   6.258   5.555
 9213WAT    HW227639   0.369   6.295   5.443
 9214WAT     OW27640   5.750   2.244   0.583
 9214WAT    HW127641   5.728   2.289   0.670
 9214WAT    HW227642   5.666   2.227   0.532
 9215WAT     OW27643   3.283   1.600   4.496
 9215WAT    HW127644   3.340   1.623   4.417
 9215WAT    HW227645   3.188   1.628   4.478
 9216WAT     OW27646   0.596   5.230   1.272
 9216WAT    HW127647   0.653   5.158   1.232
 9216WAT    HW227648   0.654   5.294   1.322
 9217WAT     OW27649   4.584   1.236   1.078
 9217WAT    HW127650   4.497   1.194   1.105
 9217WAT    HW227651   4.598   1.320   1.130
 9218WAT     OW27652   6.440   3.477   5.191
 9218WAT    HW127653   6.480   3.407   5.249
 9218WAT    HW227654   6.489   3.563   5.204
 9219WAT     OW27655   0.759   3.954   4.668
 9219WAT    HW127656   0.663   3.927   4.678
 9219WAT    HW227657   0.764   4.041   4.620
 9220WAT     OW27658   1.848   4.899   3.969
 9220WAT    HW127659   1.883   4.890   3.876
 9220WAT    HW227660   1.876   4.820   4.023
 9221WAT     OW27661   5.453   2.627   6.488
 9221WAT    HW127662   5.508   2.631   6.571
 9221WAT    HW227663   5.505   2.580   6.416
 9222WAT     OW27664   5.842   4.254   1.257
 9222WAT    HW127665   5.848   4.354   1.259
 9222WAT    HW227666   5.823   4.224   1.164
 9223WAT     OW27667   3.190   5.563   5.537
 9223WAT    HW127668   3.238   5.493   5.484
 9223WAT    HW227669   3.100   5.579   5.498
 9224WAT     OW27670   1.163   3.193   0.909
 9224WAT    HW127671   1.109   3.219   0.989
 9224WAT    HW227672   1.126   3.108   0.871
 9225WAT     OW27673   5.769   6.473   2.882
 9225WAT    HW127674   5.777   6.559   2.934
 9225WAT    HW227675   5.814   6.400   2.932
 9226WAT     OW27676   0.823   2.386   6.319
 9226WAT    HW127677   0.839   2.434   6.405
 9226WAT    HW227678   0.911   2.369   6.273
 9227WAT     OW27679   2.013   2.489   5.619
 9227WAT    HW127680   1.997   2.541   5.535
 9227WAT    HW227681   1.974   2.398   5.610
 9228WAT     OW27682   6.415   6.225   4.273
 9228WAT    HW127683   6.327   6.254   4.310
 9228WAT    HW227684   6.425   6.125   4.283
 9229WAT     OW27685   6.531   5.236   2.269
 9229WAT    HW127686   6.499   5.165   2.332
 9229WAT    HW227687   6.630   5.247   2.278
 9230WAT     OW27688   0.865   2.009   1.388
 9230WAT    HW127689   0.785   2.065   1.366
 9230WAT    HW227690   0.857   1.921   1.341
 9231WAT     OW27691   1.348   2.391   6.372
 9231WAT    HW127692   1.318   2.434   6.287
 9231WAT    HW227693   1.413   2.451   6.418
 9232WAT     OW27694   1.919   0.609   1.241
 9232WAT    HW127695   1.968   0.615   1.329
 9232WAT    HW227696   1.821   0.605   1.258
 9233WAT     OW27697   0.670   0.973   6.267
 9233WAT    HW127698   0.718   0.995   6.182
 9233WAT    HW227699   0.648   1.057   6.316
 9234WAT     OW27700   3.141   4.389   5.543
 9234WAT    HW127701   3.073   4.394   5.617
 9234WAT    HW227702   3.230   4.364   5.582
 9235WAT     OW27703   5.478   2.548   2.688
 9235WAT    HW127704   5.496   2.450   2.697
 9235WAT    HW227705   5.557   2.593   2.645
 9236WAT     OW27706   5.488   5.647   3.568
 9236WAT    HW127707   5.490   5.637   3.667
 9236WAT    HW227708   5.401   5.609   3.533
 9237WAT     OW27709   3.391   1.209   5.606
 9237WAT    HW127710   3.326   1.134   5.615
 9237WAT    HW227711   3.379   1.253   5.517
 9238WAT     OW27712   2.484   4.014   6.449
 9238WAT    HW127713   2.522   4.097   6.408
 9238WAT    HW227714   2.538   3.988   6.528
 9239WAT     OW27715   1.027   5.911   1.977
 9239WAT    HW127716   1.014   5.859   2.061
 9239WAT    HW227717   1.124   5.919   1.957
 9240WAT     OW27718   2.431   0.099   3.601
 9240WAT    HW127719   2.395   0.007   3.592
 9240WAT    HW227720   2.365   0.165   3.566
 9241WAT     OW27721   4.007   6.408   3.283
 9241WAT    HW127722   4.081   6.403   3.215
 9241WAT    HW227723   4.007   6.324   3.338
 9242WAT     OW27724   1.442   4.436   1.413
 9242WAT    HW127725   1.454   4.454   1.315
 9242WAT    HW227726   1.528   4.403   1.452
 9243WAT     OW27727   3.727   0.341   4.391
 9243WAT    HW127728   3.772   0.257   4.358
 9243WAT    HW227729   3.628   0.330   4.384
 9244WAT     OW27730   1.817   2.681   6.307
 9244WAT    HW127731   1.859   2.593   6.330
 9244WAT    HW227732   1.867   2.723   6.231
 9245WAT     OW27733   4.671   2.311   3.182
 9245WAT    HW127734   4.739   2.294   3.110
 9245WAT    HW227735   4.586   2.264   3.159
 9246WAT     OW27736   4.056   5.270   4.572
 9246WAT    HW127737   4.083   5.355   4.618
 9246WAT    HW227738   4.110   5.194   4.607
 9247WAT     OW27739   3.141   1.172   1.585
 9247WAT    HW127740   3.207   1.245   1.593
 9247WAT    HW227741   3.068   1.185   1.652
 9248WAT     OW27742   6.056   5.447   1.155
 9248WAT    HW127743   6.061   5.385   1.076
 9248WAT    HW227744   6.148   5.466   1.189
 9249WAT     OW27745   5.943   6.561   3.209
 9249WAT    HW127746   6.000   6.641   3.230
 9249WAT    HW227747   5.998   6.478   3.213
 9250WAT     OW27748   0.069   1.340   5.259
 9250WAT    HW127749   0.124   1.261   5.286
 9250WAT    HW227750  -0.028   1.319   5.274
 9251WAT     OW27751   0.361   2.062   2.551
 9251WAT    HW127752   0.357   2.084   2.454
 9251WAT    HW227753   0.413   2.133   2.599
 9252WAT     OW27754   4.841   4.686   6.423
 9252WAT    HW127755   4.853   4.767   6.480
 9252WAT    HW227756   4.930   4.654   6.392
 9253WAT     OW27757   4.753   4.566   4.112
 9253WAT    HW127758   4.737   4.550   4.015
 9253WAT    HW227759   4.681   4.624   4.149
 9254WAT     OW27760   4.142   5.855   5.518
 9254WAT    HW127761   4.215   5.888   5.459
 9254WAT    HW227762   4.055   5.894   5.488
 9255WAT     OW27763   6.396   1.290   5.811
 9255WAT    HW127764   6.402   1.192   5.829
 9255WAT    HW227765   6.424   1.307   5.716
 9256WAT     OW27766   3.752   3.330   3.481
 9256WAT    HW127767   3.669   3.377   3.450
 9256WAT    HW227768   3.736   3.292   3.573
 9257WAT     OW27769   1.355   5.835   5.943
 9257WAT    HW127770   1.439   5.882   5.969
 9257WAT    HW227771   1.365   5.736   5.959
 9258WAT     OW27772   3.615   3.336   6.455
 9258WAT    HW127773   3.595   3.299   6.545
 9258WAT    HW227774   3.713   3.335   6.439
 9259WAT     OW27775   1.578   6.582   1.193
 9259WAT    HW127776   1.574   6.682   1.198
 9259WAT    HW227777   1.616   6.554   1.105
 9260WAT     OW27778   4.143   3.994   3.231
 9260WAT    HW127779   4.234   3.985   3.190
 9260WAT    HW227780   4.082   4.038   3.165
 9261WAT     OW27781   2.750   6.511   0.479
 9261WAT    HW127782   2.790   6.438   0.534
 9261WAT    HW227783   2.781   6.503   0.385
 9262WAT     OW27784   3.374   2.771   1.125
 9262WAT    HW127785   3.280   2.784   1.095
 9262WAT    HW227786   3.426   2.855   1.112
 9263WAT     OW27787   3.346   0.397   3.847
 9263WAT    HW127788   3.289   0.457   3.791
 9263WAT    HW227789   3.434   0.441   3.864
 9264WAT     OW27790   5.269   6.168   2.023
 9264WAT    HW127791   5.276   6.076   1.984
 9264WAT    HW227792   5.294   6.166   2.120
 9265WAT     OW27793   2.707   2.582   0.551
 9265WAT    HW127794   2.658   2.527   0.619
 9265WAT    HW227795   2.643   2.646   0.509
 9266WAT     OW27796   5.862   6.336   3.771
 9266WAT    HW127797   5.803   6.373   3.699
 9266WAT    HW227798   5.946   6.391   3.776
 9267WAT     OW27799   3.706   6.219   0.795
 9267WAT    HW127800   3.736   6.139   0.743
 9267WAT    HW227801   3.608   6.233   0.780
 9268WAT     OW27802   3.774   3.970   6.528
 9268WAT    HW127803   3.851   3.955   6.590
 9268WAT    HW227804   3.734   4.059   6.546
 9269WAT     OW27805   5.950   1.066   5.848
 9269WAT    HW127806   5.967   1.054   5.946
 9269WAT    HW227807   6.014   1.133   5.811
 9270WAT     OW27808   5.317   4.499   6.255
 9270WAT    HW127809   5.404   4.544   6.238
 9270WAT    HW227810   5.331   4.421   6.315
 9271WAT     OW27811   5.182   1.682   0.002
 9271WAT    HW127812   5.100   1.739   0.000
 9271WAT    HW227813   5.246   1.713  -0.068
 9272WAT     OW27814   0.611   5.869   3.051
 9272WAT    HW127815   0.676   5.800   3.021
 9272WAT    HW227816   0.659   5.956   3.066
 9273WAT     OW27817   5.719   2.492   5.072
 9273WAT    HW127818   5.659   2.529   5.001
 9273WAT    HW227819   5.686   2.401   5.099
 9274WAT     OW27820   5.169   3.982   0.427
 9274WAT    HW127821   5.147   3.960   0.522
 9274WAT    HW227822   5.184   4.080   0.418
 9275WAT     OW27823   0.083   5.718   4.167
 9275WAT    HW127824   0.156   5.705   4.100
 9275WAT    HW227825  -0.002   5.680   4.131
 9276WAT     OW27826   1.268   2.862   6.041
 9276WAT    HW127827   1.323   2.869   6.124
 9276WAT    HW227828   1.205   2.940   6.037
 9277WAT     OW27829   0.986   6.519   3.468
 9277WAT    HW127830   0.961   6.492   3.375
 9277WAT    HW227831   0.995   6.619   3.471
 9278WAT     OW27832   3.996   3.385   4.787
 9278WAT    HW127833   3.958   3.472   4.756
 9278WAT    HW227834   4.072   3.401   4.849
 9279WAT     OW27835   2.472   5.846   2.382
 9279WAT    HW127836   2.541   5.813   2.446
 9279WAT    HW227837   2.501   5.933   2.344
 9280WAT     OW27838   3.969   5.594   3.438
 9280WAT    HW127839   3.946   5.573   3.343
 9280WAT    HW227840   4.067   5.582   3.451
 9281WAT     OW27841   5.229   4.819   3.670
 9281WAT    HW127842   5.155   4.884   3.684
 9281WAT    HW227843   5.293   4.856   3.602
 9282WAT     OW27844   5.585   4.755   3.717
 9282WAT    HW127845   5.556   4.714   3.631
 9282WAT    HW227846   5.617   4.848   3.700
 9283WAT     OW27847   4.720   3.536   2.785
 9283WAT    HW127848   4.688   3.621   2.743
 9283WAT    HW227849   4.704   3.540   2.884
 9284WAT     OW27850   4.208   3.859   5.013
 9284WAT    HW127851   4.114   3.840   4.983
 9284WAT    HW227852   4.224   3.815   5.101
 9285WAT     OW27853   4.592   6.286   3.248
 9285WAT    HW127854   4.551   6.313   3.335
 9285WAT    HW227855   4.637   6.197   3.258
 9286WAT     OW27856   6.123   6.553   4.661
 9286WAT    HW127857   6.084   6.461   4.656
 9286WAT    HW227858   6.183   6.568   4.582
 9287WAT     OW27859   0.679   6.333   4.025
 9287WAT    HW127860   0.685   6.263   3.954
 9287WAT    HW227861   0.643   6.292   4.109
 9288WAT     OW27862   6.078   0.528   2.007
 9288WAT    HW127863   6.172   0.514   1.977
 9288WAT    HW227864   6.055   0.625   2.001
 9289WAT     OW27865   3.241   0.902   4.372
 9289WAT    HW127866   3.263   0.805   4.376
 9289WAT    HW227867   3.194   0.922   4.286
 9290WAT     OW27868   0.376   2.192   2.294
 9290WAT    HW127869   0.458   2.137   2.279
 9290WAT    HW227870   0.401   2.283   2.325
 9291WAT     OW27871   5.675   2.443   4.215
 9291WAT    HW127872   5.595   2.445   4.275
 9291WAT    HW227873   5.646   2.434   4.120
 9292WAT     OW27874   2.514   0.573   4.913
 9292WAT    HW127875   2.459   0.525   4.981
 9292WAT    HW227876   2.455   0.610   4.842
 9293WAT     OW27877   4.772   3.070   4.623
 9293WAT    HW127878   4.692   3.015   4.648
 9293WAT    HW227879   4.751   3.122   4.539
 9294WAT     OW27880   1.134   3.726   1.709
 9294WAT    HW127881   1.209   3.684   1.758
 9294WAT    HW227882   1.128   3.823   1.733
 9295WAT     OW27883   4.825   3.294   2.750
 9295WAT    HW127884   4.787   3.386   2.759
 9295WAT    HW227885   4.780   3.232   2.814
 9296WAT     OW27886   5.196   5.674   2.067
 9296WAT    HW127887   5.142   5.595   2.097
 9296WAT    HW227888   5.257   5.703   2.141
 9297WAT     OW27889   4.182   2.167   4.809
 9297WAT    HW127890   4.219   2.115   4.732
 9297WAT    HW227891   4.247   2.239   4.834
 9298WAT     OW27892   0.337   1.425   4.944
 9298WAT    HW127893   0.252   1.395   4.900
 9298WAT    HW227894   0.330   1.523   4.963
 9299WAT     OW27895   1.446   0.155   1.542
 9299WAT    HW127896   1.422   0.208   1.623
 9299WAT    HW227897   1.504   0.078   1.570
 9300WAT     OW27898   4.607   1.484   1.815
 9300WAT    HW127899   4.584   1.560   1.754
 9300WAT    HW227900   4.578   1.506   1.908
 9301WAT     OW27901   6.341   3.366   0.952
 9301WAT    HW127902   6.379   3.274   0.958
 9301WAT    HW227903   6.255   3.370   1.003
 9302WAT     OW27904   5.521   2.863   4.099
 9302WAT    HW127905   5.519   2.937   4.032
 9302WAT    HW227906   5.562   2.896   4.184
 9303WAT     OW27907   0.910   0.072   1.480
 9303WAT    HW127908   1.000   0.114   1.475
 9303WAT    HW227909   0.897   0.010   1.403
 9304WAT     OW27910   5.117   0.155   3.074
 9304WAT    HW127911   5.046   0.219   3.105
 9304WAT    HW227912   5.114   0.072   3.131
 9305WAT     OW27913   1.547   2.147   2.176
 9305WAT    HW127914   1.613   2.210   2.218
 9305WAT    HW227915   1.482   2.199   2.120
 9306WAT     OW27916   6.002   5.521   2.137
 9306WAT    HW127917   6.055   5.547   2.218
 9306WAT    HW227918   5.922   5.468   2.165
 9307WAT     OW27919   5.797   0.085   4.850
 9307WAT    HW127920   5.766   0.175   4.819
 9307WAT    HW227921   5.897   0.081   4.847
 9308WAT     OW27922   3.539   3.602   5.313
 9308WAT    HW127923   3.601   3.607   5.235
 9308WAT    HW227924   3.475   3.526   5.301
 9309WAT     OW27925   5.045   5.081   4.334
 9309WAT    HW127926   5.053   5.007   4.268
 9309WAT    HW227927   5.129   5.088   4.387
 9310WAT     OW27928   1.208   3.749   4.213
 9310WAT    HW127929   1.291   3.721   4.165
 9310WAT    HW227930   1.178   3.674   4.272
 9311WAT     OW27931   3.708   5.380   0.598
 9311WAT    HW127932   3.643   5.314   0.561
 9311WAT    HW227933   3.801   5.358   0.566
 9312WAT     OW27934   2.189   1.670   1.267
 9312WAT    HW127935   2.163   1.589   1.216
 9312WAT    HW227936   2.289   1.672   1.279
 9313WAT     OW27937   4.988   0.812   4.437
 9313WAT    HW127938   4.974   0.786   4.342
 9313WAT    HW227939   4.930   0.756   4.496
 9314WAT     OW27940   4.548   5.543   4.772
 9314WAT    HW127941   4.602   5.605   4.715
 9314WAT    HW227942   4.546   5.452   4.731
 9315WAT     OW27943   5.834   3.173   3.947
 9315WAT    HW127944   5.747   3.210   3.980
 9315WAT    HW227945   5.906   3.242   3.956
 9316WAT     OW27946   0.828   3.663   6.056
 9316WAT    HW127947   0.788   3.742   6.102
 9316WAT    HW227948   0.924   3.654   6.083
 9317WAT     OW27949   5.793   2.572   0.230
 9317WAT    HW127950   5.748   2.647   0.279
 9317WAT    HW227951   5.810   2.497   0.294
 9318WAT     OW27952   4.232   6.110   1.256
 9318WAT    HW127953   4.246   6.015   1.283
 9318WAT    HW227954   4.320   6.158   1.255
 9319WAT     OW27955   1.282   2.612   3.753
 9319WAT    HW127956   1.351   2.673   3.713
 9319WAT    HW227957   1.325   2.525   3.777
 9320WAT     OW27958   5.269   5.300   1.093
 9320WAT    HW127959   5.250   5.224   1.156
 9320WAT    HW227960   5.356   5.343   1.118
 9321WAT     OW27961   6.156   1.275   0.198
 9321WAT    HW127962   6.073   1.294   0.146
 9321WAT    HW227963   6.190   1.185   0.173
 9322WAT     OW27964   5.184   1.476   5.635
 9322WAT    HW127965   5.116   1.467   5.562
 9322WAT    HW227966   5.186   1.391   5.688
 9323WAT     OW27967   2.556   2.742   4.287
 9323WAT    HW127968   2.623   2.715   4.218
 9323WAT    HW227969   2.580   2.698   4.374
 9324WAT     OW27970   4.018   4.903   3.277
 9324WAT    HW127971   4.005   4.813   3.319
 9324WAT    HW227972   3.931   4.934   3.238
 9325WAT     OW27973   4.615   3.485   4.626
 9325WAT    HW127974   4.558   3.489   4.708
 9325WAT    HW227975   4.705   3.524   4.646
 9326WAT     OW27976   3.849   6.575   6.003
 9326WAT    HW127977   3.948   6.570   5.989
 9326WAT    HW227978   3.823   6.514   6.077
 9327WAT     OW27979   2.575   1.962   3.683
 9327WAT    HW127980   2.589   1.863   3.683
 9327WAT    HW227981   2.629   2.003   3.756
 9328WAT     OW27982   2.250   1.617   3.173
 9328WAT    HW127983   2.232   1.641   3.078
 9328WAT    HW227984   2.194   1.537   3.199
 9329WAT     OW27985   5.888   2.745   3.842
 9329WAT    HW127986   5.945   2.665   3.865
 9329WAT    HW227987   5.793   2.716   3.836
 9330WAT     OW27988   5.502   0.952   5.091
 9330WAT    HW127989   5.580   0.892   5.072
 9330WAT    HW227990   5.420   0.897   5.107
 9331WAT     OW27991   4.358   1.424   1.267
 9331WAT    HW127992   4.299   1.486   1.217
 9331WAT    HW227993   4.454   1.446   1.249
 9332WAT     OW27994   1.389   2.437   0.843
 9332WAT    HW127995   1.450   2.469   0.772
 9332WAT    HW227996   1.432   2.362   0.893
 9333WAT     OW27997   1.212   2.799   4.192
 9333WAT    HW127998   1.168   2.878   4.235
 9333WAT    HW227999   1.177   2.787   4.099
 9334WAT     OW28000   2.702   1.833   4.225
 9334WAT    HW128001   2.699   1.761   4.156
 9334WAT    HW228002   2.728   1.794   4.313
 9335WAT     OW28003   1.397   2.574   2.585
 9335WAT    HW128004   1.431   2.496   2.531
 9335WAT    HW228005   1.473   2.638   2.602
 9336WAT     OW28006   1.464   2.825   4.099
 9336WAT    HW128007   1.374   2.816   4.140
 9336WAT    HW228008   1.458   2.884   4.018
 9337WAT     OW28009   6.603   0.684   6.142
 9337WAT    HW128010   6.534   0.612   6.152
 9337WAT    HW228011   6.588   0.755   6.211
 9338WAT     OW28012   5.546   0.041   2.016
 9338WAT    HW128013   5.494   0.125   2.007
 9338WAT    HW228014   5.582   0.014   1.927
 9339WAT     OW28015   1.978   2.798   0.953
 9339WAT    HW128016   2.072   2.781   0.984
 9339WAT    HW228017   1.980   2.838   0.861
 9340WAT     OW28018   5.339   0.393   6.239
 9340WAT    HW128019   5.255   0.339   6.238
 9340WAT    HW228020   5.363   0.415   6.334
 9341WAT     OW28021   2.660   3.686   5.848
 9341WAT    HW128022   2.659   3.586   5.844
 9341WAT    HW228023   2.724   3.717   5.917
 9342WAT     OW28024   4.187   0.084   6.142
 9342WAT    HW128025   4.223  -0.009   6.157
 9342WAT    HW228026   4.102   0.095   6.192
 9343WAT     OW28027   0.099   5.386   1.227
 9343WAT    HW128028   0.169   5.456   1.242
 9343WAT    HW228029   0.139   5.295   1.241
 9344WAT     OW28030   5.849   5.479   2.766
 9344WAT    HW128031   5.908   5.399   2.750
 9344WAT    HW228032   5.768   5.473   2.708
 9345WAT     OW28033   1.280   6.657   3.283
 9345WAT    HW128034   1.297   6.678   3.379
 9345WAT    HW228035   1.187   6.682   3.259
 9346WAT     OW28036   0.960   1.606   5.636
 9346WAT    HW128037   1.000   1.588   5.726
 9346WAT    HW228038   0.873   1.558   5.627
 9347WAT     OW28039   3.656   1.783   4.248
 9347WAT    HW128040   3.630   1.879   4.238
 9347WAT    HW228041   3.736   1.765   4.191
 9348WAT     OW28042   3.783   3.393   1.114
 9348WAT    HW128043   3.684   3.388   1.127
 9348WAT    HW228044   3.804   3.406   1.017
 9349WAT     OW28045   1.143   1.576   0.315
 9349WAT    HW128046   1.238   1.591   0.285
 9349WAT    HW228047   1.092   1.661   0.305
 9350WAT     OW28048   2.181   1.743   4.429
 9350WAT    HW128049   2.091   1.722   4.467
 9350WAT    HW228050   2.202   1.840   4.445
 9351WAT     OW28051   4.005   2.393   5.357
 9351WAT    HW128052   3.988   2.380   5.455
 9351WAT    HW228053   4.011   2.490   5.336
 9352WAT     OW28054   0.683   1.551   3.754
 9352WAT    HW128055   0.690   1.564   3.655
 9352WAT    HW228056   0.588   1.562   3.783
 9353WAT     OW28057   4.643   1.677   0.248
 9353WAT    HW128058   4.595   1.729   0.177
 9353WAT    HW228059   4.742   1.688   0.238
 9354WAT     OW28060   0.525   1.212   2.681
 9354WAT    HW128061   0.472   1.280   2.732
 9354WAT    HW228062   0.478   1.124   2.685
 9355WAT     OW28063   4.406   0.438   3.727
 9355WAT    HW128064   4.486   0.426   3.668
 9355WAT    HW228065   4.424   0.511   3.793
 9356WAT     OW28066   3.535   4.577   3.423
 9356WAT    HW128067   3.590   4.543   3.346
 9356WAT    HW228068   3.554   4.521   3.504
 9357WAT     OW28069   0.684   0.784   1.632
 9357WAT    HW128070   0.710   0.866   1.581
 9357WAT    HW228071   0.735   0.706   1.596
 9358WAT     OW28072   2.768   5.279   5.574
 9358WAT    HW128073   2.859   5.237   5.573
 9358WAT    HW228074   2.728   5.274   5.483
 9359WAT     OW28075   5.750   3.432   1.704
 9359WAT    HW128076   5.692   3.370   1.757
 9359WAT    HW228077   5.821   3.379   1.657
 9360WAT     OW28078   3.720   3.452   3.862
 9360WAT    HW128079   3.659   3.515   3.910
 9360WAT    HW228080   3.814   3.485   3.868
 9361WAT     OW28081   0.562   5.980   1.161
 9361WAT    HW128082   0.615   5.975   1.076
 9361WAT    HW228083   0.625   5.972   1.239
 9362WAT     OW28084   5.748   3.796   5.033
 9362WAT    HW128085   5.729   3.743   5.116
 9362WAT    HW228086   5.673   3.785   4.968
 9363WAT     OW28087   4.372   0.627   5.240
 9363WAT    HW128088   4.434   0.588   5.172
 9363WAT    HW228089   4.398   0.722   5.258
 9364WAT     OW28090   1.403   6.204   5.978
 9364WAT    HW128091   1.470   6.195   5.905
 9364WAT    HW228092   1.311   6.191   5.941
 9365WAT     OW28093   2.453   2.369   6.135
 9365WAT    HW128094   2.506   2.370   6.220
 9365WAT    HW228095   2.456   2.277   6.095
 9366WAT     OW28096   2.228   5.625   5.153
 9366WAT    HW128097   2.196   5.537   5.188
 9366WAT    HW228098   2.177   5.649   5.071
 9367WAT     OW28099   5.575   0.115   3.346
 9367WAT    HW128100   5.499   0.137   3.285
 9367WAT    HW228101   5.661   0.146   3.306
 9368WAT     OW28102   1.690   6.464   4.848
 9368WAT    HW128103   1.683   6.399   4.923
 9368WAT    HW228104   1.706   6.556   4.885
 9369WAT     OW28105   5.128   3.904   3.226
 9369WAT    HW128106   5.182   3.887   3.308
 9369WAT    HW228107   5.122   4.003   3.210
 9370WAT     OW28108   3.939   3.370   0.477
 9370WAT    HW128109   4.009   3.364   0.548
 9370WAT    HW228110   3.861   3.312   0.502
 9371WAT     OW28111   2.054   0.976   1.423
 9371WAT    HW128112   2.018   0.918   1.496
 9371WAT    HW228113   2.145   0.943   1.396
 9372WAT     OW28114   6.214   4.869   0.894
 9372WAT    HW128115   6.131   4.901   0.849
 9372WAT    HW228116   6.292   4.924   0.864
 9373WAT     OW28117   4.904   0.413   1.925
 9373WAT    HW128118   4.943   0.473   1.855
 9373WAT    HW228119   4.872   0.469   2.002
 9374WAT     OW28120   0.783   1.555   2.375
 9374WAT    HW128121   0.686   1.578   2.362
 9374WAT    HW228122   0.832   1.569   2.290
 9375WAT     OW28123   3.933   2.158   6.183
 9375WAT    HW128124   3.896   2.170   6.275
 9375WAT    HW228125   4.028   2.188   6.181
 9376WAT     OW28126   1.888   2.015   5.461
 9376WAT    HW128127   1.889   2.032   5.362
 9376WAT    HW228128   1.861   1.921   5.479
 9377WAT     OW28129   6.388   5.347   1.066
 9377WAT    HW128130   6.374   5.400   1.150
 9377WAT    HW228131   6.348   5.397   0.989
 9378WAT     OW28132   6.646   5.933   6.259
 9378WAT    HW128133   6.649   5.916   6.161
 9378WAT    HW228134   6.553   5.918   6.293
 9379WAT     OW28135   2.188   3.213   3.122
 9379WAT    HW128136   2.099   3.249   3.154
 9379WAT    HW228137   2.250   3.290   3.106
 9380WAT     OW28138   2.803   0.314   3.876
 9380WAT    HW128139   2.842   0.231   3.837
 9380WAT    HW228140   2.867   0.390   3.862
 9381WAT     OW28141   3.755   0.051   2.802
 9381WAT    HW128142   3.746  -0.040   2.843
 9381WAT    HW228143   3.668   0.099   2.807
 9382WAT     OW28144   4.055   4.258   0.643
 9382WAT    HW128145   4.002   4.235   0.561
 9382WAT    HW228146   4.126   4.324   0.619
 9383WAT     OW28147   1.802   0.667   0.410
 9383WAT    HW128148   1.768   0.586   0.362
 9383WAT    HW228149   1.838   0.732   0.344
 9384WAT     OW28150   3.946   0.979   1.108
 9384WAT    HW128151   3.924   0.882   1.101
 9384WAT    HW228152   3.861   1.033   1.111
 9385WAT     OW28153   5.776   3.564   5.951
 9385WAT    HW128154   5.785   3.613   5.864
 9385WAT    HW228155   5.701   3.603   6.003
 9386WAT     OW28156   2.418   5.252   4.440
 9386WAT    HW128157   2.437   5.197   4.522
 9386WAT    HW228158   2.447   5.346   4.455
 9387WAT     OW28159   4.523   5.782   6.509
 9387WAT    HW128160   4.613   5.816   6.482
 9387WAT    HW228161   4.492   5.714   6.442
 9388WAT     OW28162   0.039   5.241   5.315
 9388WAT    HW128163   0.077   5.201   5.398
 9388WAT    HW228164   0.068   5.186   5.236
 9389WAT     OW28165   5.044   0.599   4.730
 9389WAT    HW128166   5.053   0.660   4.808
 9389WAT    HW228167   4.965   0.626   4.676
 9390WAT     OW28168   5.055   1.761   5.453
 9390WAT    HW128169   5.045   1.661   5.446
 9390WAT    HW228170   4.968   1.800   5.484
 9391WAT     OW28171   4.973   5.056   0.971
 9391WAT    HW128172   4.948   5.099   0.884
 9391WAT    HW228173   5.071   5.040   0.973
 9392WAT     OW28174   3.626   0.329   1.960
 9392WAT    HW128175   3.533   0.365   1.950
 9392WAT    HW228176   3.648   0.320   2.057
 9393WAT     OW28177   3.713   2.931   0.920
 9393WAT    HW128178   3.631   2.956   0.972
 9393WAT    HW228179   3.791   2.982   0.954
 9394WAT     OW28180   0.704   2.204   0.917
 9394WAT    HW128181   0.625   2.173   0.971
 9394WAT    HW228182   0.678   2.284   0.864
 9395WAT     OW28183   5.159   4.835   1.182
 9395WAT    HW128184   5.179   4.778   1.262
 9395WAT    HW228185   5.073   4.805   1.140
 9396WAT     OW28186   2.694   5.743   3.879
 9396WAT    HW128187   2.656   5.800   3.806
 9396WAT    HW228188   2.742   5.801   3.945
 9397WAT     OW28189   2.484   3.416   4.606
 9397WAT    HW128190   2.474   3.317   4.598
 9397WAT    HW228191   2.531   3.451   4.524
 9398WAT     OW28192   2.830   3.614   0.397
 9398WAT    HW128193   2.886   3.684   0.353
 9398WAT    HW228194   2.734   3.632   0.379
 9399WAT     OW28195   0.818   5.276   0.235
 9399WAT    HW128196   0.807   5.341   0.311
 9399WAT    HW228197   0.888   5.310   0.173
 9400WAT     OW28198   4.326   0.007   0.462
 9400WAT    HW128199   4.404   0.047   0.414
 9400WAT    HW228200   4.251  -0.006   0.397
 9401WAT     OW28201   5.022   1.554   0.615
 9401WAT    HW128202   5.091   1.610   0.569
 9401WAT    HW228203   4.945   1.612   0.641
 9402WAT     OW28204   0.244   1.771   0.998
 9402WAT    HW128205   0.254   1.870   0.986
 9402WAT    HW228206   0.290   1.742   1.082
 9403WAT     OW28207   1.422   0.294   0.397
 9403WAT    HW128208   1.334   0.246   0.393
 9403WAT    HW228209   1.442   0.334   0.308
 9404WAT     OW28210   3.903   2.162   4.837
 9404WAT    HW128211   3.867   2.147   4.745
 9404WAT    HW228212   4.003   2.164   4.834
 9405WAT     OW28213   6.094   5.570   1.695
 9405WAT    HW128214   6.114   5.473   1.679
 9405WAT    HW228215   6.024   5.579   1.766
 9406WAT     OW28216   0.193   4.756   0.098
 9406WAT    HW128217   0.120   4.731   0.035
 9406WAT    HW228218   0.279   4.714   0.068
 9407WAT     OW28219   3.737   0.331   0.963
 9407WAT    HW128220   3.656   0.329   0.904
 9407WAT    HW228221   3.710   0.365   1.054
 9408WAT     OW28222   1.425   1.322   5.813
 9408WAT    HW128223   1.357   1.319   5.739
 9408WAT    HW228224   1.517   1.323   5.773
 9409WAT     OW28225   1.888   0.888   3.861
 9409WAT    HW128226   1.884   0.898   3.961
 9409WAT    HW228227   1.966   0.829   3.838
 9410WAT     OW28228   1.494   6.022   3.444
 9410WAT    HW128229   1.445   5.950   3.493
 9410WAT    HW228230   1.584   6.036   3.485
 9411WAT     OW28231   5.593   5.259   0.784
 9411WAT    HW128232   5.499   5.227   0.788
 9411WAT    HW228233   5.614   5.291   0.691
 9412WAT     OW28234   2.922   4.201   3.780
 9412WAT    HW128235   2.967   4.284   3.746
 9412WAT    HW228236   2.823   4.214   3.778
 9413WAT     OW28237   3.530   0.775   2.077
 9413WAT    HW128238   3.579   0.817   2.000
 9413WAT    HW228239   3.447   0.730   2.043
 9414WAT     OW28240   4.643   4.509   0.350
 9414WAT    HW128241   4.622   4.414   0.371
 9414WAT    HW228242   4.583   4.542   0.277
 9415WAT     OW28243   6.206   5.967   0.779
 9415WAT    HW128244   6.292   5.925   0.749
 9415WAT    HW228245   6.143   5.896   0.811
 9416WAT     OW28246   5.808   5.078   4.617
 9416WAT    HW128247   5.825   5.127   4.531
 9416WAT    HW228248   5.895   5.055   4.660
 9417WAT     OW28249   5.802   3.896   0.420
 9417WAT    HW128250   5.771   3.809   0.457
 9417WAT    HW228251   5.805   3.891   0.320
 9418WAT     OW28252   3.804   2.115   4.585
 9418WAT    HW128253   3.874   2.047   4.564
 9418WAT    HW228254   3.715   2.069   4.594
 9419WAT     OW28255   0.290   4.861   5.252
 9419WAT    HW128256   0.372   4.847   5.197
 9419WAT    HW228257   0.314   4.853   5.349
 9420WAT     OW28258   3.019   6.103   5.809
 9420WAT    HW128259   2.983   6.040   5.878
 9420WAT    HW228260   2.995   6.070   5.718
 9421WAT     OW28261   0.873   5.036   4.387
 9421WAT    HW128262   0.790   4.997   4.348
 9421WAT    HW228263   0.891   5.126   4.345
 9422WAT     OW28264   5.653   4.936   4.316
 9422WAT    HW128265   5.626   5.032   4.317
 9422WAT    HW228266   5.642   4.897   4.407
 9423WAT     OW28267   5.445   5.744   0.149
 9423WAT    HW128268   5.474   5.780   0.237
 9423WAT    HW228269   5.478   5.650   0.139
 9424WAT     OW28270   4.225   0.258   4.741
 9424WAT    HW128271   4.296   0.228   4.678
 9424WAT    HW228272   4.139   0.213   4.718
 9425WAT     OW28273   3.168   1.561   5.842
 9425WAT    HW128274   3.136   1.640   5.789
 9425WAT    HW228275   3.106   1.484   5.829
 9426WAT     OW28276   0.790   6.526   2.701
 9426WAT    HW128277   0.830   6.512   2.791
 9426WAT    HW228278   0.795   6.442   2.648
 9427WAT     OW28279   3.518   3.388   4.627
 9427WAT    HW128280   3.514   3.439   4.541
 9427WAT    HW228281   3.561   3.299   4.612
 9428WAT     OW28282   1.807   5.842   5.636
 9428WAT    HW128283   1.865   5.913   5.674
 9428WAT    HW228284   1.863   5.777   5.584
 9429WAT     OW28285   6.507   3.911   6.520
 9429WAT    HW128286   6.482   3.817   6.541
 9429WAT    HW228287   6.603   3.926   6.543
 9430WAT     OW28288   0.795   2.064   2.046
 9430WAT    HW128289   0.875   2.042   2.101
 9430WAT    HW228290   0.775   2.162   2.053
 9431WAT     OW28291   2.464   6.345   2.980
 9431WAT    HW128292   2.475   6.250   2.949
 9431WAT    HW228293   2.459   6.405   2.901
 9432WAT     OW28294   0.870   3.560   1.284
 9432WAT    HW128295   0.955   3.507   1.283
 9432WAT    HW228296   0.807   3.520   1.351
 9433WAT     OW28297   5.666   5.742   0.959
 9433WAT    HW128298   5.757   5.716   0.991
 9433WAT    HW228299   5.618   5.662   0.924
 9434WAT     OW28300   1.677   4.030   6.422
 9434WAT    HW128301   1.725   4.116   6.402
 9434WAT    HW228302   1.735   3.953   6.398
 9435WAT     OW28303   4.965   4.624   0.796
 9435WAT    HW128304   4.990   4.661   0.707
 9435WAT    HW228305   4.889   4.560   0.785
 9436WAT     OW28306   4.196   3.106   5.091
 9436WAT    HW128307   4.151   3.027   5.049
 9436WAT    HW228308   4.285   3.120   5.048
 9437WAT     OW28309   6.318   5.138   2.119
 9437WAT    HW128310   6.400   5.180   2.158
 9437WAT    HW228311   6.259   5.210   2.081
 9438WAT     OW28312   3.465   2.365   3.475
 9438WAT    HW128313   3.477   2.316   3.389
 9438WAT    HW228314   3.521   2.322   3.546
 9439WAT     OW28315   0.185   3.610   5.225
 9439WAT    HW128316   0.241   3.552   5.284
 9439WAT    HW228317   0.150   3.687   5.278
 9440WAT     OW28318   0.996   5.556   4.834
 9440WAT    HW128319   0.941   5.482   4.873
 9440WAT    HW228320   1.045   5.522   4.754
 9441WAT     OW28321   5.047   2.675   3.328
 9441WAT    HW128322   5.027   2.594   3.273
 9441WAT    HW228323   5.146   2.684   3.338
 9442WAT     OW28324   1.274   5.287   2.200
 9442WAT    HW128325   1.307   5.222   2.132
 9442WAT    HW228326   1.353   5.333   2.242
 9443WAT     OW28327   5.534   3.932   5.835
 9443WAT    HW128328   5.497   3.997   5.901
 9443WAT    HW228329   5.631   3.916   5.855
 9444WAT     OW28330   2.966   2.925   2.338
 9444WAT    HW128331   3.004   2.843   2.295
 9444WAT    HW228332   2.980   2.920   2.437
 9445WAT     OW28333   0.903   4.233   4.325
 9445WAT    HW128334   0.846   4.218   4.406
 9445WAT    HW228335   0.984   4.286   4.350
 9446WAT     OW28336   3.149   0.911   3.820
 9446WAT    HW128337   3.221   0.852   3.856
 9446WAT    HW228338   3.089   0.940   3.895
 9447WAT     OW28339   1.285   0.925   4.984
 9447WAT    HW128340   1.301   0.832   5.018
 9447WAT    HW228341   1.267   0.986   5.061
 9448WAT     OW28342   3.800   1.372   1.595
 9448WAT    HW128343   3.833   1.432   1.668
 9448WAT    HW228344   3.868   1.301   1.577
 9449WAT     OW28345   6.113   0.966   2.132
 9449WAT    HW128346   6.041   1.009   2.187
 9449WAT    HW228347   6.072   0.907   2.063
 9450WAT     OW28348   0.340   6.136   1.492
 9450WAT    HW128349   0.369   6.175   1.405
 9450WAT    HW228350   0.296   6.047   1.476
 9451WAT     OW28351   5.887   5.887   1.879
 9451WAT    HW128352   5.984   5.904   1.897
 9451WAT    HW228353   5.864   5.923   1.788
 9452WAT     OW28354   0.880   5.603   0.145
 9452WAT    HW128355   0.780   5.601   0.145
 9452WAT    HW228356   0.916   5.520   0.103
 9453WAT     OW28357   2.781   0.593   1.842
 9453WAT    HW128358   2.833   0.624   1.761
 9453WAT    HW228359   2.684   0.611   1.828
 9454WAT     OW28360   3.194   3.730   6.341
 9454WAT    HW128361   3.236   3.679   6.265
 9454WAT    HW228362   3.217   3.685   6.427
 9455WAT     OW28363   2.299   0.536   0.848
 9455WAT    HW128364   2.326   0.564   0.941
 9455WAT    HW228365   2.211   0.576   0.826
 9456WAT     OW28366   1.567   4.319   3.279
 9456WAT    HW128367   1.496   4.386   3.300
 9456WAT    HW228368   1.655   4.353   3.312
 9457WAT     OW28369   1.568   3.906   2.244
 9457WAT    HW128370   1.496   3.935   2.181
 9457WAT    HW228371   1.552   3.946   2.334
 9458WAT     OW28372   2.439   0.268   0.320
 9458WAT    HW128373   2.482   0.182   0.295
 9458WAT    HW228374   2.383   0.302   0.244
 9459WAT     OW28375   6.222   1.211   0.459
 9459WAT    HW128376   6.311   1.245   0.492
 9459WAT    HW228377   6.203   1.252   0.370
 9460WAT     OW28378   1.831   2.424   3.401
 9460WAT    HW128379   1.806   2.437   3.305
 9460WAT    HW228380   1.930   2.408   3.408
 9461WAT     OW28381   0.648   2.736   0.323
 9461WAT    HW128382   0.680   2.757   0.416
 9461WAT    HW228383   0.661   2.639   0.304
 9462WAT     OW28384   3.516   5.213   0.487
 9462WAT    HW128385   3.462   5.129   0.487
 9462WAT    HW228386   3.542   5.236   0.393
 9463WAT     OW28387   2.267   2.003   4.456
 9463WAT    HW128388   2.342   2.004   4.390
 9463WAT    HW228389   2.222   2.092   4.458
 9464WAT     OW28390   3.878   0.724   1.099
 9464WAT    HW128391   3.917   0.663   1.168
 9464WAT    HW228392   3.787   0.691   1.073
 9465WAT     OW28393   5.234   4.945   0.941
 9465WAT    HW128394   5.226   4.882   0.864
 9465WAT    HW228395   5.214   4.896   1.026
 9466WAT     OW28396   3.932   0.809   5.333
 9466WAT    HW128397   3.944   0.812   5.234
 9466WAT    HW228398   3.906   0.716   5.360
 9467WAT     OW28399   3.349   3.508   5.026
 9467WAT    HW128400   3.353   3.465   5.117
 9467WAT    HW228401   3.311   3.600   5.035
 9468WAT     OW28402   6.186   1.009   1.191
 9468WAT    HW128403   6.247   1.017   1.269
 9468WAT    HW228404   6.239   0.986   1.109
 9469WAT     OW28405   1.930   3.107   3.946
 9469WAT    HW128406   1.957   3.045   4.019
 9469WAT    HW228407   1.837   3.085   3.916
 9470WAT     OW28408   5.316   4.269   6.407
 9470WAT    HW128409   5.388   4.212   6.446
 9470WAT    HW228410   5.236   4.266   6.466
 9471WAT     OW28411   5.935   2.958   0.170
 9471WAT    HW128412   5.882   2.972   0.087
 9471WAT    HW228413   5.982   3.042   0.196
 9472WAT     OW28414   4.831   6.273   0.371
 9472WAT    HW128415   4.758   6.208   0.391
 9472WAT    HW228416   4.792   6.358   0.337
 9473WAT     OW28417   5.521   1.673   3.231
 9473WAT    HW128418   5.518   1.642   3.326
 9473WAT    HW228419   5.454   1.622   3.177
 9474WAT     OW28420   5.813   3.817   3.102
 9474WAT    HW128421   5.839   3.740   3.161
 9474WAT    HW228422   5.884   3.887   3.106
 9475WAT     OW28423   5.114   0.087   4.473
 9475WAT    HW128424   5.202   0.074   4.427
 9475WAT    HW228425   5.046   0.026   4.433
 9476WAT     OW28426   3.203   3.352   6.617
 9476WAT    HW128427   3.224   3.271   6.673
 9476WAT    HW228428   3.169   3.323   6.527
 9477WAT     OW28429   3.914   3.497   2.865
 9477WAT    HW128430   4.008   3.475   2.843
 9477WAT    HW228431   3.910   3.537   2.957
 9478WAT     OW28432   2.022   0.994   4.327
 9478WAT    HW128433   1.979   0.975   4.239
 9478WAT    HW228434   1.956   0.981   4.401
 9479WAT     OW28435   1.692   3.970   3.132
 9479WAT    HW128436   1.612   4.004   3.182
 9479WAT    HW228437   1.691   4.008   3.039
 9480WAT     OW28438   6.112   4.202   4.630
 9480WAT    HW128439   6.096   4.284   4.684
 9480WAT    HW228440   6.199   4.211   4.580
 9481WAT     OW28441   3.740   1.339   2.291
 9481WAT    HW128442   3.673   1.366   2.221
 9481WAT    HW228443   3.758   1.241   2.283
 9482WAT     OW28444   2.576   4.366   1.908
 9482WAT    HW128445   2.560   4.382   2.006
 9482WAT    HW228446   2.491   4.338   1.865
 9483WAT     OW28447   5.641   2.627   3.791
 9483WAT    HW128448   5.546   2.657   3.798
 9483WAT    HW228449   5.668   2.623   3.695
 9484WAT     OW28450   3.801   4.645   0.424
 9484WAT    HW128451   3.723   4.672   0.481
 9484WAT    HW228452   3.786   4.553   0.388
 9485WAT     OW28453   3.877   6.403   1.995
 9485WAT    HW128454   3.829   6.317   2.012
 9485WAT    HW228455   3.891   6.452   2.081
 9486WAT     OW28456   6.189   5.983   3.624
 9486WAT    HW128457   6.160   5.889   3.606
 9486WAT    HW228458   6.112   6.034   3.662
 9487WAT     OW28459   0.282   3.412   2.966
 9487WAT    HW128460   0.378   3.405   2.995
 9487WAT    HW228461   0.248   3.321   2.940
 9488WAT     OW28462   4.338   2.758   0.536
 9488WAT    HW128463   4.360   2.779   0.631
 9488WAT    HW228464   4.261   2.694   0.532
 9489WAT     OW28465   5.696   1.546   2.207
 9489WAT    HW128466   5.754   1.504   2.276
 9489WAT    HW228467   5.699   1.493   2.123
 9490WAT     OW28468   2.304   2.488   1.643
 9490WAT    HW128469   2.259   2.522   1.726
 9490WAT    HW228470   2.359   2.561   1.603
 9491WAT     OW28471   5.311   5.490   3.234
 9491WAT    HW128472   5.332   5.573   3.181
 9491WAT    HW228473   5.281   5.515   3.326
 9492WAT     OW28474   5.517   1.092   6.498
 9492WAT    HW128475   5.446   1.127   6.559
 9492WAT    HW228476   5.476   1.030   6.431
 9493WAT     OW28477   6.292   1.518   1.769
 9493WAT    HW128478   6.286   1.567   1.682
 9493WAT    HW228479   6.388   1.501   1.792
 9494WAT     OW28480   3.511   4.098   5.227
 9494WAT    HW128481   3.411   4.095   5.217
 9494WAT    HW228482   3.534   4.109   5.324
 9495WAT     OW28483   6.157   6.462   2.251
 9495WAT    HW128484   6.208   6.447   2.335
 9495WAT    HW228485   6.180   6.392   2.184
 9496WAT     OW28486   5.556   6.126   3.821
 9496WAT    HW128487   5.537   6.215   3.781
 9496WAT    HW228488   5.582   6.061   3.749
 9497WAT     OW28489   1.138   3.847   2.997
 9497WAT    HW128490   1.084   3.926   2.969
 9497WAT    HW228491   1.098   3.807   3.079
 9498WAT     OW28492   5.257   0.251   2.123
 9498WAT    HW128493   5.202   0.175   2.087
 9498WAT    HW228494   5.260   0.246   2.223
 9499WAT     OW28495   3.793   3.749   1.704
 9499WAT    HW128496   3.881   3.701   1.702
 9499WAT    HW228497   3.759   3.751   1.798
 9500WAT     OW28498   6.492   3.335   3.879
 9500WAT    HW128499   6.472   3.381   3.965
 9500WAT    HW228500   6.470   3.238   3.887
 9501WAT     OW28501   5.198   5.239   5.788
 9501WAT    HW128502   5.257   5.179   5.733
 9501WAT    HW228503   5.103   5.224   5.763
 9502WAT     OW28504   4.981   2.392   4.879
 9502WAT    HW128505   4.939   2.475   4.915
 9502WAT    HW228506   5.044   2.416   4.805
 9503WAT     OW28507   4.979   1.786   3.485
 9503WAT    HW128508   5.064   1.823   3.522
 9503WAT    HW228509   4.925   1.861   3.445
 9504WAT     OW28510   2.628   5.275   0.774
 9504WAT    HW128511   2.724   5.280   0.800
 9504WAT    HW228512   2.587   5.366   0.777
 9505WAT     OW28513   3.179   5.472   3.812
 9505WAT    HW128514   3.275   5.444   3.803
 9505WAT    HW228515   3.133   5.410   3.877
 9506WAT     OW28516   2.231   0.448   2.161
 9506WAT    HW128517   2.213   0.382   2.234
 9506WAT    HW228518   2.233   0.540   2.200
 9507WAT     OW28519   5.373   3.727   4.585
 9507WAT    HW128520   5.402   3.652   4.526
 9507WAT    HW228521   5.443   3.798   4.587
 9508WAT     OW28522   5.236   6.643   1.204
 9508WAT    HW128523   5.266   6.568   1.144
 9508WAT    HW228524   5.192   6.604   1.286
 9509WAT     OW28525   4.864   4.012   4.000
 9509WAT    HW128526   4.772   3.974   3.987
 9509WAT    HW228527   4.870   4.053   4.091
 9510WAT     OW28528   1.603   2.819   5.312
 9510WAT    HW128529   1.581   2.907   5.270
 9510WAT    HW228530   1.679   2.832   5.377
 9511WAT     OW28531   1.200   1.382   0.508
 9511WAT    HW128532   1.181   1.444   0.432
 9511WAT    HW228533   1.178   1.428   0.594
 9512WAT     OW28534   6.584   5.479   1.401
 9512WAT    HW128535   6.654   5.429   1.350
 9512WAT    HW228536   6.578   5.442   1.494
 9513WAT     OW28537   3.226   6.139   5.996
 9513WAT    HW128538   3.149   6.144   5.933
 9513WAT    HW228539   3.264   6.047   5.995
 9514WAT     OW28540   5.956   0.854   1.208
 9514WAT    HW128541   6.033   0.917   1.206
 9514WAT    HW228542   5.974   0.776   1.148
 9515WAT     OW28543   2.960   4.239   0.251
 9515WAT    HW128544   2.961   4.159   0.191
 9515WAT    HW228545   2.970   4.322   0.196
 9516WAT     OW28546   6.409   2.773   1.985
 9516WAT    HW128547   6.329   2.754   1.929
 9516WAT    HW228548   6.382   2.832   2.062
 9517WAT     OW28549   6.283   3.158   3.187
 9517WAT    HW128550   6.219   3.233   3.204
 9517WAT    HW228551   6.373   3.196   3.166
 9518WAT     OW28552   0.461   0.034   1.013
 9518WAT    HW128553   0.540   0.076   1.059
 9518WAT    HW228554   0.461  -0.064   1.031
 9519WAT     OW28555   6.452   3.297   1.943
 9519WAT    HW128556   6.401   3.342   2.016
 9519WAT    HW228557   6.477   3.364   1.873
 9520WAT     OW28558   4.892   5.309   4.329
 9520WAT    HW128559   4.878   5.324   4.427
 9520WAT    HW228560   4.948   5.227   4.316
 9521WAT     OW28561   1.748   1.016   4.949
 9521WAT    HW128562   1.762   0.926   4.989
 9521WAT    HW228563   1.652   1.026   4.922
 9522WAT     OW28564   5.027   4.289   4.365
 9522WAT    HW128565   5.002   4.287   4.461
 9522WAT    HW228566   5.125   4.308   4.356
 9523WAT     OW28567   2.686   3.123   5.174
 9523WAT    HW128568   2.784   3.112   5.192
 9523WAT    HW228569   2.644   3.175   5.248
 9524WAT     OW28570   2.834   0.851   6.039
 9524WAT    HW128571   2.802   0.804   5.957
 9524WAT    HW228572   2.802   0.802   6.120
 9525WAT     OW28573   6.178   1.365   4.540
 9525WAT    HW128574   6.121   1.296   4.495
 9525WAT    HW228575   6.205   1.434   4.473
 9526WAT     OW28576   4.663   2.323   1.644
 9526WAT    HW128577   4.629   2.370   1.725
 9526WAT    HW228578   4.610   2.351   1.564
 9527WAT     OW28579   6.528   2.470   2.694
 9527WAT    HW128580   6.477   2.494   2.776
 9527WAT    HW228581   6.519   2.542   2.626
 9528WAT     OW28582   1.174   5.536   6.625
 9528WAT    HW128583   1.210   5.498   6.540
 9528WAT    HW228584   1.251   5.565   6.683
 9529WAT     OW28585   5.326   6.255   4.185
 9529WAT    HW128586   5.287   6.218   4.269
 9529WAT    HW228587   5.277   6.339   4.159
 9530WAT     OW28588   3.193   6.461   2.492
 9530WAT    HW128589   3.128   6.449   2.566
 9530WAT    HW228590   3.152   6.518   2.421
 9531WAT     OW28591   4.665   0.568   6.669
 9531WAT    HW128592   4.647   0.526   6.758
 9531WAT    HW228593   4.749   0.621   6.673
 9532WAT     OW28594   1.646   5.364   2.888
 9532WAT    HW128595   1.578   5.354   2.816
 9532WAT    HW228596   1.716   5.293   2.878
 9533WAT     OW28597   1.138   2.118   4.247
 9533WAT    HW128598   1.040   2.133   4.256
 9533WAT    HW228599   1.157   2.059   4.169
 9534WAT     OW28600   0.093   3.067   5.045
 9534WAT    HW128601   0.062   3.145   4.991
 9534WAT    HW228602   0.106   2.988   4.986
 9535WAT     OW28603   3.242   3.403   2.688
 9535WAT    HW128604   3.202   3.460   2.759
 9535WAT    HW228605   3.275   3.317   2.728
 9536WAT     OW28606   4.303   3.721   4.425
 9536WAT    HW128607   4.209   3.712   4.459
 9536WAT    HW228608   4.362   3.751   4.500
 9537WAT     OW28609   3.072   2.421   3.250
 9537WAT    HW128610   3.131   2.496   3.222
 9537WAT    HW228611   3.017   2.449   3.328
 9538WAT     OW28612   6.684   0.630   1.700
 9538WAT    HW128613   6.594   0.655   1.665
 9538WAT    HW228614   6.755   0.673   1.643
 9539WAT     OW28615   4.156   0.419   0.877
 9539WAT    HW128616   4.163   0.431   0.976
 9539WAT    HW228617   4.218   0.346   0.848
 9540WAT     OW28618   3.336   4.079   3.731
 9540WAT    HW128619   3.369   4.071   3.825
 9540WAT    HW228620   3.414   4.092   3.670
 9541WAT     OW28621   6.150   6.473   4.997
 9541WAT    HW128622   6.100   6.523   5.068
 9541WAT    HW228623   6.085   6.429   4.936
 9542WAT     OW28624   5.395   2.276   3.858
 9542WAT    HW128625   5.473   2.329   3.892
 9542WAT    HW228626   5.319   2.283   3.923
 9543WAT     OW28627   6.333   4.637   3.662
 9543WAT    HW128628   6.298   4.546   3.641
 9543WAT    HW228629   6.363   4.681   3.577
 9544WAT     OW28630   0.131   5.929   5.017
 9544WAT    HW128631   0.034   5.910   5.003
 9544WAT    HW228632   0.161   6.002   4.956
 9545WAT     OW28633   6.155   3.737   5.905
 9545WAT    HW128634   6.106   3.651   5.918
 9545WAT    HW228635   6.162   3.785   5.993
 9546WAT     OW28636   4.148   4.279   5.386
 9546WAT    HW128637   4.085   4.272   5.463
 9546WAT    HW228638   4.184   4.189   5.364
 9547WAT     OW28639   0.988   5.815   3.854
 9547WAT    HW128640   1.003   5.905   3.813
 9547WAT    HW228641   1.032   5.745   3.798
 9548WAT     OW28642   0.985   0.839   3.545
 9548WAT    HW128643   0.912   0.770   3.549
 9548WAT    HW228644   1.073   0.794   3.557
 9549WAT     OW28645   0.609   4.493   1.786
 9549WAT    HW128646   0.585   4.485   1.882
 9549WAT    HW228647   0.541   4.547   1.738
 9550WAT     OW28648   0.647   2.860   2.965
 9550WAT    HW128649   0.593   2.861   3.049
 9550WAT    HW228650   0.740   2.892   2.984
 9551WAT     OW28651   5.519   6.372   3.722
 9551WAT    HW128652   5.585   6.399   3.652
 9551WAT    HW228653   5.513   6.444   3.792
 9552WAT     OW28654   6.473   1.461   3.187
 9552WAT    HW128655   6.532   1.385   3.160
 9552WAT    HW228656   6.506   1.545   3.144
 9553WAT     OW28657   1.509   2.963   1.416
 9553WAT    HW128658   1.479   2.873   1.385
 9553WAT    HW228659   1.608   2.970   1.404
 9554WAT     OW28660   4.321   4.178   4.206
 9554WAT    HW128661   4.320   4.267   4.250
 9554WAT    HW228662   4.414   4.155   4.178
 9555WAT     OW28663   4.619   6.569   4.933
 9555WAT    HW128664   4.617   6.497   5.002
 9555WAT    HW228665   4.640   6.656   4.977
 9556WAT     OW28666   1.799   4.047   0.428
 9556WAT    HW128667   1.723   3.986   0.451
 9556WAT    HW228668   1.784   4.137   0.470
 9557WAT     OW28669   6.688   1.609   5.997
 9557WAT    HW128670   6.614   1.598   6.064
 9557WAT    HW228671   6.751   1.532   6.004
 9558WAT     OW28672   3.872   4.760   3.584
 9558WAT    HW128673   3.819   4.845   3.579
 9558WAT    HW228674   3.858   4.718   3.673
 9559WAT     OW28675   3.290   4.371   0.185
 9559WAT    HW128676   3.258   4.311   0.259
 9559WAT    HW228677   3.350   4.320   0.124
 9560WAT     OW28678   0.905   1.194   0.693
 9560WAT    HW128679   0.936   1.170   0.785
 9560WAT    HW228680   0.976   1.169   0.627
 9561WAT     OW28681   2.675   3.673   6.248
 9561WAT    HW128682   2.726   3.709   6.171
 9561WAT    HW228683   2.733   3.675   6.330
 9562WAT     OW28684   0.299   4.634   3.877
 9562WAT    HW128685   0.202   4.641   3.900
 9562WAT    HW228686   0.345   4.577   3.945
 9563WAT     OW28687   3.415   4.425   2.585
 9563WAT    HW128688   3.363   4.348   2.549
 9563WAT    HW228689   3.404   4.504   2.525
 9564WAT     OW28690   5.641   4.991   2.474
 9564WAT    HW128691   5.605   4.917   2.417
 9564WAT    HW228692   5.621   4.972   2.570
 9565WAT     OW28693   6.137   4.416   0.037
 9565WAT    HW128694   6.206   4.352   0.004
 9565WAT    HW228695   6.168   4.509   0.021
 9566WAT     OW28696   6.220   0.007   2.130
 9566WAT    HW128697   6.135   0.053   2.106
 9566WAT    HW228698   6.200  -0.080   2.175
 9567WAT     OW28699   4.946   5.770   2.563
 9567WAT    HW128700   4.887   5.689   2.566
 9567WAT    HW228701   4.995   5.773   2.475
 9568WAT     OW28702   5.304   1.827   5.537
 9568WAT    HW128703   5.212   1.812   5.503
 9568WAT    HW228704   5.359   1.745   5.524
 9569WAT     OW28705   1.096   6.147   0.373
 9569WAT    HW128706   1.030   6.170   0.302
 9569WAT    HW228707   1.054   6.086   0.439
 9570WAT     OW28708   6.130   2.991   1.497
 9570WAT    HW128709   6.176   2.907   1.529
 9570WAT    HW228710   6.184   3.070   1.522
 9571WAT     OW28711   2.709   2.826   6.218
 9571WAT    HW128712   2.664   2.909   6.184
 9571WAT    HW228713   2.678   2.747   6.165
 9572WAT     OW28714   3.930   3.061   1.003
 9572WAT    HW128715   3.962   3.125   1.074
 9572WAT    HW228716   4.003   3.047   0.936
 9573WAT     OW28717   6.363   4.784   1.976
 9573WAT    HW128718   6.300   4.823   2.042
 9573WAT    HW228719   6.437   4.849   1.957
 9574WAT     OW28720   3.143   3.569   2.898
 9574WAT    HW128721   3.059   3.620   2.916
 9574WAT    HW228722   3.142   3.483   2.949
 9575WAT     OW28723   0.002   2.118   4.970
 9575WAT    HW128724  -0.007   2.018   4.968
 9575WAT    HW228725  -0.089   2.159   4.961
 9576WAT     OW28726   1.481   6.467   5.986
 9576WAT    HW128727   1.447   6.373   5.990
 9576WAT    HW228728   1.405   6.530   5.971
 9577WAT     OW28729   5.937   3.441   0.063
 9577WAT    HW128730   5.914   3.412   0.157
 9577WAT    HW228731   5.973   3.534   0.065
 9578WAT     OW28732   6.235   6.413   0.117
 9578WAT    HW128733   6.195   6.410   0.209
 9578WAT    HW228734   6.329   6.380   0.121
 9579WAT     OW28735   3.590   6.618   3.116
 9579WAT    HW128736   3.617   6.714   3.103
 9579WAT    HW228737   3.630   6.563   3.043
 9580WAT     OW28738   4.784   5.865   2.031
 9580WAT    HW128739   4.875   5.894   2.060
 9580WAT    HW228740   4.719   5.875   2.107
 9581WAT     OW28741   4.114   3.334   3.298
 9581WAT    HW128742   4.067   3.249   3.275
 9581WAT    HW228743   4.046   3.403   3.324
 9582WAT     OW28744   6.319   0.373   2.188
 9582WAT    HW128745   6.223   0.348   2.198
 9582WAT    HW228746   6.336   0.402   2.094
 9583WAT     OW28747   4.063   3.413   5.548
 9583WAT    HW128748   4.148   3.447   5.588
 9583WAT    HW228749   4.009   3.368   5.619
 9584WAT     OW28750   6.511   0.117   0.848
 9584WAT    HW128751   6.592   0.157   0.804
 9584WAT    HW228752   6.534   0.091   0.942
 9585WAT     OW28753   5.711   2.114   2.424
 9585WAT    HW128754   5.741   2.065   2.506
 9585WAT    HW228755   5.712   2.053   2.346
 9586WAT     OW28756   1.167   4.417   3.178
 9586WAT    HW128757   1.199   4.400   3.085
 9586WAT    HW228758   1.244   4.444   3.236
 9587WAT     OW28759   4.827   0.976   2.379
 9587WAT    HW128760   4.787   1.004   2.293
 9587WAT    HW228761   4.927   0.982   2.374
 9588WAT     OW28762   1.184   6.625   6.348
 9588WAT    HW128763   1.135   6.551   6.303
 9588WAT    HW228764   1.120   6.681   6.400
 9589WAT     OW28765   5.939   1.747   3.634
 9589WAT    HW128766   5.921   1.686   3.556
 9589WAT    HW228767   5.876   1.725   3.708
 9590WAT     OW28768   0.170   4.135   4.600
 9590WAT    HW128769   0.207   4.164   4.512
 9590WAT    HW228770   0.205   4.045   4.623
 9591WAT     OW28771   3.491   3.017   3.413
 9591WAT    HW128772   3.433   3.057   3.485
 9591WAT    HW228773   3.500   2.919   3.429
 9592WAT     OW28774   4.352   1.116   1.159
 9592WAT    HW128775   4.266   1.148   1.119
 9592WAT    HW228776   4.354   1.137   1.256
 9593WAT     OW28777   6.216   4.900   2.181
 9593WAT    HW128778   6.116   4.906   2.184
 9593WAT    HW228779   6.254   4.990   2.161
 9594WAT     OW28780   4.651   2.136   0.680
 9594WAT    HW128781   4.639   2.063   0.613
 9594WAT    HW228782   4.733   2.188   0.658
 9595WAT     OW28783   3.207   5.700   2.319
 9595WAT    HW128784   3.157   5.772   2.367
 9595WAT    HW228785   3.148   5.620   2.309
 9596WAT     OW28786   4.331   4.143   0.484
 9596WAT    HW128787   4.269   4.071   0.451
 9596WAT    HW228788   4.280   4.229   0.492
 9597WAT     OW28789   0.981   2.639   2.555
 9597WAT    HW128790   1.054   2.646   2.488
 9597WAT    HW228791   1.004   2.693   2.636
 9598WAT     OW28792   0.609   4.802   6.549
 9598WAT    HW128793   0.640   4.749   6.470
 9598WAT    HW228794   0.685   4.814   6.612
 9599WAT     OW28795   4.482   4.177   4.916
 9599WAT    HW128796   4.503   4.156   4.821
 9599WAT    HW228797   4.480   4.092   4.969
 9600WAT     OW28798   6.163   2.718   1.867
 9600WAT    HW128799   6.085   2.736   1.927
 9600WAT    HW228800   6.164   2.622   1.841
 9601WAT     OW28801   0.308   4.575   5.214
 9601WAT    HW128802   0.321   4.566   5.115
 9601WAT    HW228803   0.278   4.668   5.235
 9602WAT     OW28804   3.537   3.457   3.381
 9602WAT    HW128805   3.531   3.540   3.437
 9602WAT    HW228806   3.445   3.423   3.362
 9603WAT     OW28807   3.905   1.806   5.870
 9603WAT    HW128808   3.927   1.855   5.954
 9603WAT    HW228809   3.945   1.714   5.874
 9604WAT     OW28810   0.599   2.055   2.259
 9604WAT    HW128811   0.630   2.029   2.167
 9604WAT    HW228812   0.675   2.043   2.324
 9605WAT     OW28813   3.382   3.043   4.685
 9605WAT    HW128814   3.459   3.072   4.628
 9605WAT    HW228815   3.404   3.061   4.782
 9606WAT     OW28816   2.232   4.651   0.253
 9606WAT    HW128817   2.233   4.690   0.345
 9606WAT    HW228818   2.295   4.702   0.195
 9607WAT     OW28819   4.503   5.398   3.991
 9607WAT    HW128820   4.566   5.408   4.069
 9607WAT    HW228821   4.499   5.485   3.941
 9608WAT     OW28822   0.452   0.442   4.153
 9608WAT    HW128823   0.406   0.531   4.158
 9608WAT    HW228824   0.549   0.456   4.132
 9609WAT     OW28825   6.496   6.059   0.858
 9609WAT    HW128826   6.515   6.012   0.944
 9609WAT    HW228827   6.486   5.991   0.785
 9610WAT     OW28828   5.223   3.495   6.152
 9610WAT    HW128829   5.319   3.482   6.177
 9610WAT    HW228830   5.177   3.406   6.151
 9611WAT     OW28831   2.609   6.643   2.262
 9611WAT    HW128832   2.632   6.567   2.202
 9611WAT    HW228833   2.688   6.705   2.269
 9612WAT     OW28834   0.260   4.924   4.092
 9612WAT    HW128835   0.235   4.960   4.002
 9612WAT    HW228836   0.185   4.937   4.156
 9613WAT     OW28837   5.677   0.451   4.102
 9613WAT    HW128838   5.692   0.500   4.188
 9613WAT    HW228839   5.650   0.517   4.031
 9614WAT     OW28840   6.579   0.034   1.097
 9614WAT    HW128841   6.672  -0.001   1.092
 9614WAT    HW228842   6.517  -0.037   1.132
 9615WAT     OW28843   0.042   5.047   4.650
 9615WAT    HW128844  -0.018   4.976   4.615
 9615WAT    HW228845   0.137   5.024   4.630
 9616WAT     OW28846   1.057   5.715   4.101
 9616WAT    HW128847   1.017   5.761   4.180
 9616WAT    HW228848   1.014   5.747   4.017
 9617WAT     OW28849   3.055   0.929   4.165
 9617WAT    HW128850   3.049   0.837   4.126
 9617WAT    HW228851   2.974   0.946   4.222
 9618WAT     OW28852   5.781   0.010   3.901
 9618WAT    HW128853   5.798   0.101   3.941
 9618WAT    HW228854   5.805   0.011   3.804
 9619WAT     OW28855   5.300   6.511   5.607
 9619WAT    HW128856   5.382   6.455   5.600
 9619WAT    HW228857   5.322   6.598   5.651
 9620WAT     OW28858   4.737   0.888   5.226
 9620WAT    HW128859   4.710   0.879   5.130
 9620WAT    HW228860   4.826   0.933   5.232
 9621WAT     OW28861   4.764   0.070   2.758
 9621WAT    HW128862   4.731  -0.009   2.810
 9621WAT    HW228863   4.858   0.091   2.785
 9622WAT     OW28864   2.650   6.418   3.647
 9622WAT    HW128865   2.664   6.348   3.577
 9622WAT    HW228866   2.561   6.404   3.691
 9623WAT     OW28867   0.037   2.350   1.586
 9623WAT    HW128868  -0.003   2.412   1.518
 9623WAT    HW228869  -0.029   2.278   1.608
 9624WAT     OW28870   5.932   4.687   3.782
 9624WAT    HW128871   6.022   4.722   3.809
 9624WAT    HW228872   5.932   4.668   3.684
 9625WAT     OW28873   3.448   4.622   1.983
 9625WAT    HW128874   3.375   4.575   2.034
 9625WAT    HW228875   3.498   4.556   1.928
 9626WAT     OW28876   6.559   3.122   4.146
 9626WAT    HW128877   6.535   3.098   4.051
 9626WAT    HW228878   6.641   3.179   4.147
 9627WAT     OW28879   2.090   1.313   5.028
 9627WAT    HW128880   2.080   1.373   4.949
 9627WAT    HW228881   2.084   1.368   5.112
 9628WAT     OW28882   4.392   2.568   3.348
 9628WAT    HW128883   4.389   2.622   3.432
 9628WAT    HW228884   4.332   2.489   3.356
 9629WAT     OW28885   3.426   2.931   6.427
 9629WAT    HW128886   3.394   2.837   6.422
 9629WAT    HW228887   3.458   2.951   6.520
 9630WAT     OW28888   5.099   1.264   4.524
 9630WAT    HW128889   5.120   1.166   4.522
 9630WAT    HW228890   5.075   1.294   4.431
 9631WAT     OW28891   1.651   0.351   1.774
 9631WAT    HW128892   1.556   0.357   1.744
 9631WAT    HW228893   1.684   0.441   1.800
 9632WAT     OW28894   4.154   0.418   3.618
 9632WAT    HW128895   4.105   0.338   3.653
 9632WAT    HW228896   4.247   0.418   3.655
 9633WAT     OW28897   3.519   1.901   0.698
 9633WAT    HW128898   3.536   1.994   0.729
 9633WAT    HW228899   3.523   1.898   0.598
 9634WAT     OW28900   6.556   5.871   4.988
 9634WAT    HW128901   6.485   5.863   5.057
 9634WAT    HW228902   6.518   5.848   4.898
 9635WAT     OW28903   5.706   2.274   1.881
 9635WAT    HW128904   5.648   2.342   1.926
 9635WAT    HW228905   5.657   2.236   1.803
 9636WAT     OW28906   4.756   5.262   6.238
 9636WAT    HW128907   4.773   5.164   6.230
 9636WAT    HW228908   4.760   5.305   6.147
 9637WAT     OW28909   3.823   5.799   4.088
 9637WAT    HW128910   3.781   5.744   4.161
 9637WAT    HW228911   3.751   5.846   4.037
 9638WAT     OW28912   1.704   2.772   3.812
 9638WAT    HW128913   1.797   2.744   3.788
 9638WAT    HW228914   1.704   2.870   3.834
 9639WAT     OW28915   6.315   6.485   4.052
 9639WAT    HW128916   6.263   6.565   4.082
 9639WAT    HW228917   6.403   6.514   4.016
 9640WAT     OW28918   4.150   1.349   0.848
 9640WAT    HW128919   4.173   1.292   0.769
 9640WAT    HW228920   4.136   1.291   0.928
 9641WAT     OW28921   2.307   5.394   0.779
 9641WAT    HW128922   2.387   5.454   0.789
 9641WAT    HW228923   2.249   5.403   0.860
 9642WAT     OW28924   3.893   1.993   4.002
 9642WAT    HW128925   3.871   2.055   4.077
 9642WAT    HW228926   3.880   1.898   4.032
 9643WAT     OW28927   4.632   0.402   3.560
 9643WAT    HW128928   4.632   0.346   3.477
 9643WAT    HW228929   4.672   0.492   3.540
 9644WAT     OW28930   5.580   5.010   2.747
 9644WAT    HW128931   5.522   4.954   2.806
 9644WAT    HW228932   5.541   5.101   2.738
 9645WAT     OW28933   6.519   5.204   3.921
 9645WAT    HW128934   6.612   5.239   3.922
 9645WAT    HW228935   6.496   5.166   4.011
 9646WAT     OW28936   2.232   2.967   4.287
 9646WAT    HW128937   2.180   2.928   4.362
 9646WAT    HW228938   2.326   2.987   4.317
 9647WAT     OW28939   3.966   5.322   0.512
 9647WAT    HW128940   4.042   5.329   0.576
 9647WAT    HW228941   3.991   5.366   0.426
 9648WAT     OW28942   5.073   5.530   3.721
 9648WAT    HW128943   5.096   5.623   3.753
 9648WAT    HW228944   4.974   5.520   3.717
 9649WAT     OW28945   4.704   4.853   3.061
 9649WAT    HW128946   4.670   4.844   3.154
 9649WAT    HW228947   4.766   4.931   3.054
 9650WAT     OW28948   0.598   2.301   3.553
 9650WAT    HW128949   0.556   2.212   3.571
 9650WAT    HW228950   0.624   2.344   3.639
 9651WAT     OW28951   4.867   1.931   0.384
 9651WAT    HW128952   4.940   1.999   0.372
 9651WAT    HW228953   4.889   1.849   0.331
 9652WAT     OW28954   5.924   3.827   6.140
 9652WAT    HW128955   5.878   3.894   6.198
 9652WAT    HW228956   6.023   3.839   6.145
 9653WAT     OW28957   3.299   1.735   0.711
 9653WAT    HW128958   3.375   1.798   0.722
 9653WAT    HW228959   3.260   1.714   0.801
 9654WAT     OW28960   1.752   0.767   5.061
 9654WAT    HW128961   1.674   0.752   5.001
 9654WAT    HW228962   1.762   0.689   5.123
 9655WAT     OW28963   2.841   5.945   6.453
 9655WAT    HW128964   2.875   6.016   6.390
 9655WAT    HW228965   2.902   5.940   6.532
 9656WAT     OW28966   0.726   5.577   4.064
 9656WAT    HW128967   0.726   5.608   4.160
 9656WAT    HW228968   0.671   5.640   4.009
 9657WAT     OW28969   0.541   5.951   5.118
 9657WAT    HW128970   0.635   5.940   5.151
 9657WAT    HW228971   0.477   5.918   5.188
 9658WAT     OW28972   0.857   4.075   1.743
 9658WAT    HW128973   0.844   3.980   1.770
 9658WAT    HW228974   0.858   4.133   1.825
 9659WAT     OW28975   1.049   5.010   2.391
 9659WAT    HW128976   1.016   5.080   2.326
 9659WAT    HW228977   1.137   4.975   2.360
 9660WAT     OW28978   5.767   2.203   3.586
 9660WAT    HW128979   5.671   2.223   3.571
 9660WAT    HW228980   5.783   2.186   3.683
 9661WAT     OW28981   0.241   1.114   3.240
 9661WAT    HW128982   0.298   1.095   3.320
 9661WAT    HW228983   0.161   1.053   3.241
 9662WAT     OW28984   1.012   1.813   0.270
 9662WAT    HW128985   0.984   1.855   0.184
 9662WAT    HW228986   0.934   1.808   0.332
 9663WAT     OW28987   5.384   5.562   1.705
 9663WAT    HW128988   5.387   5.652   1.661
 9663WAT    HW228989   5.440   5.563   1.788
 9664WAT     OW28990   6.332   2.938   6.524
 9664WAT    HW128991   6.285   2.851   6.541
 9664WAT    HW228992   6.280   3.013   6.565
 9665WAT     OW28993   0.926   5.145   0.589
 9665WAT    HW128994   0.828   5.145   0.574
 9665WAT    HW228995   0.947   5.103   0.677
 9666WAT     OW28996   2.417   0.802   3.208
 9666WAT    HW128997   2.330   0.760   3.237
 9666WAT    HW228998   2.492   0.762   3.262
 9667WAT     OW28999   3.446   2.892   5.217
 9667WAT    HW129000   3.520   2.950   5.181
 9667WAT    HW229001   3.485   2.822   5.278
 9668WAT     OW29002   5.137   5.623   5.599
 9668WAT    HW129003   5.123   5.579   5.688
 9668WAT    HW229004   5.210   5.576   5.550
 9669WAT     OW29005   4.361   1.203   1.420
 9669WAT    HW129006   4.360   1.289   1.369
 9669WAT    HW229007   4.311   1.214   1.506
 9670WAT     OW29008   1.310   5.877   6.555
 9670WAT    HW129009   1.270   5.873   6.647
 9670WAT    HW229010   1.237   5.889   6.488
 9671WAT     OW29011   6.423   1.557   3.962
 9671WAT    HW129012   6.402   1.559   3.864
 9671WAT    HW229013   6.352   1.505   4.010
 9672WAT     OW29014   2.937   2.583   5.906
 9672WAT    HW129015   2.867   2.512   5.913
 9672WAT    HW229016   2.946   2.629   5.995
 9673WAT     OW29017   5.215   4.396   3.578
 9673WAT    HW129018   5.311   4.385   3.554
 9673WAT    HW229019   5.165   4.428   3.498
 9674WAT     OW29020   6.425   1.798   6.396
 9674WAT    HW129021   6.367   1.801   6.315
 9674WAT    HW229022   6.453   1.890   6.421
 9675WAT     OW29023   3.885   4.516   5.091
 9675WAT    HW129024   3.942   4.558   5.021
 9675WAT    HW229025   3.920   4.425   5.113
 9676WAT     OW29026   6.487   1.685   0.690
 9676WAT    HW129027   6.567   1.722   0.736
 9676WAT    HW229028   6.423   1.759   0.669
 9677WAT     OW29029   3.441   0.964   6.090
 9677WAT    HW129030   3.427   1.055   6.051
 9677WAT    HW229031   3.516   0.968   6.157
 9678WAT     OW29032   0.882   3.306   5.160
 9678WAT    HW129033   0.815   3.315   5.087
 9678WAT    HW229034   0.958   3.370   5.144
 9679WAT     OW29035   1.834   6.642   3.534
 9679WAT    HW129036   1.826   6.715   3.602
 9679WAT    HW229037   1.881   6.563   3.574
 9680WAT     OW29038   1.108   2.632   1.517
 9680WAT    HW129039   1.192   2.580   1.529
 9680WAT    HW229040   1.036   2.573   1.480
 9681WAT     OW29041   0.841   6.507   4.528
 9681WAT    HW129042   0.853   6.411   4.502
 9681WAT    HW229043   0.754   6.518   4.577
 9682WAT     OW29044   0.969   2.078   5.628
 9682WAT    HW129045   0.975   1.996   5.570
 9682WAT    HW229046   0.950   2.050   5.722
 9683WAT     OW29047   5.391   1.974   5.259
 9683WAT    HW129048   5.292   1.960   5.265
 9683WAT    HW229049   5.422   2.025   5.340
 9684WAT     OW29050   0.939   2.847   5.418
 9684WAT    HW129051   0.936   2.919   5.348
 9684WAT    HW229052   0.891   2.878   5.500
 9685WAT     OW29053   4.489   0.489   5.698
 9685WAT    HW129054   4.544   0.407   5.710
 9685WAT    HW229055   4.435   0.482   5.614
 9686WAT     OW29056   5.269   6.233   0.392
 9686WAT    HW129057   5.271   6.308   0.326
 9686WAT    HW229058   5.187   6.178   0.379
 9687WAT     OW29059   5.434   2.975   0.604
 9687WAT    HW129060   5.361   3.038   0.578
 9687WAT    HW229061   5.411   2.883   0.575
 9688WAT     OW29062   2.190   4.395   6.099
 9688WAT    HW129063   2.278   4.401   6.146
 9688WAT    HW229064   2.140   4.315   6.132
 9689WAT     OW29065   3.672   4.222   6.593
 9689WAT    HW129066   3.589   4.210   6.647
 9689WAT    HW229067   3.732   4.288   6.638
 9690WAT     OW29068   0.142   4.632   0.783
 9690WAT    HW129069   0.113   4.567   0.713
 9690WAT    HW229070   0.229   4.673   0.757
 9691WAT     OW29071   1.430   5.830   4.532
 9691WAT    HW129072   1.510   5.819   4.591
 9691WAT    HW229073   1.432   5.761   4.460
 9692WAT     OW29074   1.449   5.586   3.572
 9692WAT    HW129075   1.391   5.523   3.624
 9692WAT    HW229076   1.411   5.678   3.579
 9693WAT     OW29077   1.517   5.946   2.916
 9693WAT    HW129078   1.514   5.987   3.007
 9693WAT    HW229079   1.495   5.849   2.923
 9694WAT     OW29080   4.011   4.212   0.130
 9694WAT    HW129081   4.093   4.262   0.157
 9694WAT    HW229082   3.942   4.277   0.096
 9695WAT     OW29083   5.767   3.182   2.047
 9695WAT    HW129084   5.840   3.215   2.106
 9695WAT    HW229085   5.704   3.125   2.100
 9696WAT     OW29086   2.432   2.181   5.733
 9696WAT    HW129087   2.476   2.270   5.721
 9696WAT    HW229088   2.483   2.112   5.682
 9697WAT     OW29089   1.734   1.261   2.401
 9697WAT    HW129090   1.655   1.229   2.349
 9697WAT    HW229091   1.772   1.186   2.455
 9698WAT     OW29092   0.346   5.243   1.960
 9698WAT    HW129093   0.398   5.323   1.929
 9698WAT    HW229094   0.262   5.235   1.907
 9699WAT     OW29095   2.840   1.022   4.304
 9699WAT    HW129096   2.767   0.982   4.249
 9699WAT    HW229097   2.800   1.068   4.383
 9700WAT     OW29098   1.410   0.137   5.822
 9700WAT    HW129099   1.358   0.066   5.870
 9700WAT    HW229100   1.346   0.201   5.779
 9701WAT     OW29101   4.830   3.372   0.806
 9701WAT    HW129102   4.808   3.276   0.789
 9701WAT    HW229103   4.875   3.381   0.894
 9702WAT     OW29104   1.915   3.622   2.133
 9702WAT    HW129105   1.843   3.584   2.191
 9702WAT    HW229106   1.962   3.547   2.086
 9703WAT     OW29107   6.381   1.852   1.825
 9703WAT    HW129108   6.376   1.915   1.903
 9703WAT    HW229109   6.294   1.854   1.775
 9704WAT     OW29110   2.224   4.697   1.491
 9704WAT    HW129111   2.283   4.627   1.530
 9704WAT    HW229112   2.142   4.707   1.548
 9705WAT     OW29113   5.583   5.007   1.995
 9705WAT    HW129114   5.636   5.065   1.933
 9705WAT    HW229115   5.643   4.966   2.063
 9706WAT     OW29116   4.767   4.482   6.171
 9706WAT    HW129117   4.821   4.444   6.245
 9706WAT    HW229118   4.827   4.528   6.105
 9707WAT     OW29119   3.910   4.608   1.152
 9707WAT    HW129120   3.924   4.591   1.250
 9707WAT    HW229121   3.992   4.583   1.102
 9708WAT     OW29122   4.136   2.687   6.363
 9708WAT    HW129123   4.126   2.648   6.455
 9708WAT    HW229124   4.071   2.763   6.352
 9709WAT     OW29125   1.541   0.693   4.903
 9709WAT    HW129126   1.501   0.702   4.812
 9709WAT    HW229127   1.470   0.672   4.969
 9710WAT     OW29128   2.824   3.015   4.237
 9710WAT    HW129129   2.792   3.042   4.329
 9710WAT    HW229130   2.866   2.925   4.242
 9711WAT     OW29131   0.593   6.518   4.646
 9711WAT    HW129132   0.593   6.458   4.726
 9711WAT    HW229133   0.554   6.607   4.671
 9712WAT     OW29134   6.402   6.546   1.211
 9712WAT    HW129135   6.390   6.462   1.158
 9712WAT    HW229136   6.312   6.581   1.238
 9713WAT     OW29137   1.398   4.774   3.296
 9713WAT    HW129138   1.319   4.827   3.325
 9713WAT    HW229139   1.480   4.811   3.339
 9714WAT     OW29140   3.436   5.399   6.483
 9714WAT    HW129141   3.484   5.418   6.397
 9714WAT    HW229142   3.340   5.379   6.463
 9715WAT     OW29143   3.188   1.270   0.337
 9715WAT    HW129144   3.252   1.310   0.271
 9715WAT    HW229145   3.120   1.215   0.289
 9716WAT     OW29146   0.626   1.198   6.422
 9716WAT    HW129147   0.624   1.295   6.397
 9716WAT    HW229148   0.706   1.179   6.480
 9717WAT     OW29149   4.278   2.920   3.180
 9717WAT    HW129150   4.225   2.920   3.264
 9717WAT    HW229151   4.285   2.827   3.145
 9718WAT     OW29152   0.150   5.958   5.292
 9718WAT    HW129153   0.242   5.932   5.322
 9718WAT    HW229154   0.141   5.940   5.194
 9719WAT     OW29155   3.113   2.065   4.125
 9719WAT    HW129156   3.152   2.012   4.201
 9719WAT    HW229157   3.021   2.096   4.149
 9720WAT     OW29158   5.697   0.676   4.283
 9720WAT    HW129159   5.629   0.729   4.231
 9720WAT    HW229160   5.785   0.724   4.282
 9721WAT     OW29161   3.505   2.475   2.860
 9721WAT    HW129162   3.549   2.388   2.839
 9721WAT    HW229163   3.538   2.545   2.796
 9722WAT     OW29164   3.279   3.675   4.318
 9722WAT    HW129165   3.266   3.682   4.417
 9722WAT    HW229166   3.237   3.753   4.273
 9723WAT     OW29167   3.287   6.330   0.572
 9723WAT    HW129168   3.365   6.322   0.634
 9723WAT    HW229169   3.319   6.326   0.477
 9724WAT     OW29170   3.479   3.134   4.032
 9724WAT    HW129171   3.465   3.189   3.950
 9724WAT    HW229172   3.393   3.089   4.057
 9725WAT     OW29173   2.407   3.750   5.759
 9725WAT    HW129174   2.408   3.822   5.690
 9725WAT    HW229175   2.501   3.725   5.784
 9726WAT     OW29176   1.190   3.951   6.535
 9726WAT    HW129177   1.277   3.942   6.487
 9726WAT    HW229178   1.117   3.969   6.469
 9727WAT     OW29179   5.459   0.627   1.581
 9727WAT    HW129180   5.409   0.705   1.542
 9727WAT    HW229181   5.533   0.601   1.519
 9728WAT     OW29182   6.515   4.356   0.178
 9728WAT    HW129183   6.434   4.338   0.233
 9728WAT    HW229184   6.595   4.312   0.220
 9729WAT     OW29185   0.122   0.264   6.590
 9729WAT    HW129186   0.046   0.220   6.637
 9729WAT    HW229187   0.157   0.340   6.645
 9730WAT     OW29188   0.866   6.132   6.383
 9730WAT    HW129189   0.849   6.039   6.415
 9730WAT    HW229190   0.802   6.195   6.428
 9731WAT     OW29191   6.421   2.804   0.538
 9731WAT    HW129192   6.452   2.762   0.452
 9731WAT    HW229193   6.356   2.742   0.583
 9732WAT     OW29194   5.057   6.458   3.893
 9732WAT    HW129195   4.990   6.533   3.893
 9732WAT    HW229196   5.101   6.454   3.803
 9733WAT     OW29197   6.324   5.515   5.014
 9733WAT    HW129198   6.277   5.602   5.026
 9733WAT    HW229199   6.257   5.441   5.010
 9734WAT     OW29200   4.615   4.417   1.769
 9734WAT    HW129201   4.648   4.485   1.704
 9734WAT    HW229202   4.533   4.451   1.815
 9735WAT     OW29203   1.258   2.613   2.817
 9735WAT    HW129204   1.240   2.525   2.861
 9735WAT    HW229205   1.311   2.599   2.733
 9736WAT     OW29206   1.413   6.318   4.959
 9736WAT    HW129207   1.504   6.312   5.001
 9736WAT    HW229208   1.349   6.361   5.023
 9737WAT     OW29209   6.534   4.130   5.873
 9737WAT    HW129210   6.575   4.216   5.843
 9737WAT    HW229211   6.435   4.141   5.879
 9738WAT     OW29212   0.596   4.648   1.433
 9738WAT    HW129213   0.652   4.583   1.381
 9738WAT    HW229214   0.582   4.731   1.378
 9739WAT     OW29215   1.383   6.212   0.042
 9739WAT    HW129216   1.421   6.168  -0.039
 9739WAT    HW229217   1.423   6.303   0.053
 9740WAT     OW29218   4.225   6.595   0.063
 9740WAT    HW129219   4.291   6.522   0.078
 9740WAT    HW229220   4.172   6.611   0.146
 9741WAT     OW29221   0.874   5.332   4.938
 9741WAT    HW129222   0.813   5.291   4.870
 9741WAT    HW229223   0.950   5.270   4.957
 9742WAT     OW29224   2.202   2.773   6.227
 9742WAT    HW129225   2.108   2.750   6.202
 9742WAT    HW229226   2.208   2.870   6.249
 9743WAT     OW29227   1.234   3.890   5.678
 9743WAT    HW129228   1.299   3.917   5.750
 9743WAT    HW229229   1.241   3.955   5.602
 9744WAT     OW29230   4.344   1.731   1.867
 9744WAT    HW129231   4.312   1.636   1.871
 9744WAT    HW229232   4.420   1.738   1.803
 9745WAT     OW29233   3.910   2.664   3.993
 9745WAT    HW129234   3.846   2.587   3.991
 9745WAT    HW229235   3.867   2.742   4.039
 9746WAT     OW29236   0.586   0.285   0.014
 9746WAT    HW129237   0.590   0.355   0.086
 9746WAT    HW229238   0.590   0.329  -0.075
 9747WAT     OW29239   3.082   0.296   4.207
 9747WAT    HW129240   3.024   0.215   4.213
 9747WAT    HW229241   3.029   0.378   4.227
 9748WAT     OW29242   2.787   4.490   0.583
 9748WAT    HW129243   2.855   4.547   0.538
 9748WAT    HW229244   2.697   4.505   0.542
 9749WAT     OW29245   2.748   1.324   4.629
 9749WAT    HW129246   2.710   1.248   4.577
 9749WAT    HW229247   2.714   1.410   4.592
 9750WAT     OW29248   1.147   5.261   1.821
 9750WAT    HW129249   1.139   5.222   1.730
 9750WAT    HW229250   1.241   5.292   1.837
 9751WAT     OW29251   4.867   2.553   6.132
 9751WAT    HW129252   4.891   2.529   6.226
 9751WAT    HW229253   4.826   2.644   6.130
 9752WAT     OW29254   0.043   6.661   5.644
 9752WAT    HW129255   0.024   6.571   5.684
 9752WAT    HW229256   0.028   6.731   5.714
 9753WAT     OW29257   1.755   3.537   4.096
 9753WAT    HW129258   1.824   3.602   4.062
 9753WAT    HW229259   1.693   3.513   4.022
 9754WAT     OW29260   6.341   4.884   3.120
 9754WAT    HW129261   6.375   4.963   3.170
 9754WAT    HW229262   6.241   4.882   3.123
 9755WAT     OW29263   3.139   0.740   3.472
 9755WAT    HW129264   3.142   0.737   3.372
 9755WAT    HW229265   3.185   0.824   3.503
 9756WAT     OW29266   1.812   1.773   4.188
 9756WAT    HW129267   1.723   1.781   4.233
 9756WAT    HW229268   1.841   1.677   4.190
 9757WAT     OW29269   1.583   3.093   5.912
 9757WAT    HW129270   1.518   3.030   5.870
 9757WAT    HW229271   1.566   3.098   6.010
 9758WAT     OW29272   2.569   2.330   6.643
 9758WAT    HW129273   2.593   2.395   6.716
 9758WAT    HW229274   2.473   2.302   6.655
 9759WAT     OW29275   3.514   3.751   6.558
 9759WAT    HW129276   3.436   3.689   6.547
 9759WAT    HW229277   3.575   3.743   6.479
 9760WAT     OW29278   0.533   1.164   4.237
 9760WAT    HW129279   0.434   1.149   4.242
 9760WAT    HW229280   0.555   1.213   4.153
 9761WAT     OW29281   5.211   4.506   6.004
 9761WAT    HW129282   5.247   4.495   6.097
 9761WAT    HW229283   5.216   4.419   5.956
 9762WAT     OW29284   0.494   1.607   4.295
 9762WAT    HW129285   0.570   1.670   4.311
 9762WAT    HW229286   0.464   1.615   4.200
 9763WAT     OW29287   5.030   1.371   4.266
 9763WAT    HW129288   4.989   1.408   4.182
 9763WAT    HW229289   5.101   1.304   4.241
 9764WAT     OW29290   5.241   2.580   6.310
 9764WAT    HW129291   5.310   2.593   6.381
 9764WAT    HW229292   5.286   2.561   6.223
 9765WAT     OW29293   6.087   2.282   3.198
 9765WAT    HW129294   6.037   2.224   3.261
 9765WAT    HW229295   6.072   2.378   3.222
 9766WAT     OW29296   2.261   3.773   2.369
 9766WAT    HW129297   2.226   3.766   2.275
 9766WAT    HW229298   2.242   3.865   2.405
 9767WAT     OW29299   4.318   2.624   4.837
 9767WAT    HW129300   4.261   2.646   4.757
 9767WAT    HW229301   4.264   2.638   4.920
 9768WAT     OW29302   6.027   2.927   2.596
 9768WAT    HW129303   6.089   2.991   2.641
 9768WAT    HW229304   6.076   2.842   2.574
 9769WAT     OW29305   3.861   6.030   4.937
 9769WAT    HW129306   3.768   6.037   4.901
 9769WAT    HW229307   3.873   6.097   5.010
 9770WAT     OW29308   4.899   0.985   4.886
 9770WAT    HW129309   4.987   1.022   4.857
 9770WAT    HW229310   4.829   1.056   4.875
 9771WAT     OW29311   5.341   5.994   0.535
 9771WAT    HW129312   5.370   6.026   0.625
 9771WAT    HW229313   5.318   6.073   0.477
 9772WAT     OW29314   3.487   1.729   1.337
 9772WAT    HW129315   3.555   1.674   1.385
 9772WAT    HW229316   3.411   1.750   1.398
 9773WAT     OW29317   0.706   0.200   2.784
 9773WAT    HW129318   0.625   0.143   2.795
 9773WAT    HW229319   0.774   0.151   2.729
 9774WAT     OW29320   5.984   0.595   1.111
 9774WAT    HW129321   5.966   0.580   1.208
 9774WAT    HW229322   6.066   0.546   1.084
 9775WAT     OW29323   4.168   5.322   3.886
 9775WAT    HW129324   4.166   5.408   3.938
 9775WAT    HW229325   4.227   5.257   3.933
 9776WAT     OW29326   1.170   4.514   5.101
 9776WAT    HW129327   1.199   4.522   5.006
 9776WAT    HW229328   1.115   4.593   5.127
 9777WAT     OW29329   5.070   1.043   6.080
 9777WAT    HW129330   5.116   1.088   6.157
 9777WAT    HW229331   5.038   1.112   6.015
 9778WAT     OW29332   4.784   3.161   5.462
 9778WAT    HW129333   4.781   3.261   5.471
 9778WAT    HW229334   4.877   3.129   5.480
 9779WAT     OW29335   4.218   5.857   0.147
 9779WAT    HW129336   4.269   5.911   0.214
 9779WAT    HW229337   4.120   5.874   0.158
 9780WAT     OW29338   4.575   4.931   1.044
 9780WAT    HW129339   4.512   4.919   1.121
 9780WAT    HW229340   4.627   4.847   1.030
 9781WAT     OW29341   4.515   2.791   1.903
 9781WAT    HW129342   4.561   2.865   1.952
 9781WAT    HW229343   4.491   2.719   1.968
 9782WAT     OW29344   5.132   5.282   6.449
 9782WAT    HW129345   5.132   5.220   6.370
 9782WAT    HW229346   5.046   5.333   6.451
 9783WAT     OW29347   4.226   4.431   0.505
 9783WAT    HW129348   4.160   4.506   0.506
 9783WAT    HW229349   4.317   4.466   0.527
 9784WAT     OW29350   3.746   2.383   1.265
 9784WAT    HW129351   3.746   2.444   1.345
 9784WAT    HW229352   3.737   2.437   1.182
 9785WAT     OW29353   5.601   3.674   6.632
 9785WAT    HW129354   5.632   3.636   6.720
 9785WAT    HW229355   5.680   3.683   6.571
 9786WAT     OW29356   2.800   1.878   2.492
 9786WAT    HW129357   2.806   1.964   2.442
 9786WAT    HW229358   2.886   1.861   2.539
 9787WAT     OW29359   6.368   2.023   2.040
 9787WAT    HW129360   6.273   2.053   2.028
 9787WAT    HW229361   6.384   2.001   2.136
 9788WAT     OW29362   4.638   2.466   0.299
 9788WAT    HW129363   4.671   2.541   0.242
 9788WAT    HW229364   4.591   2.503   0.379
 9789WAT     OW29365   0.538   3.087   3.810
 9789WAT    HW129366   0.445   3.063   3.839
 9789WAT    HW229367   0.543   3.083   3.710
 9790WAT     OW29368   5.702   4.271   1.515
 9790WAT    HW129369   5.752   4.262   1.429
 9790WAT    HW229370   5.716   4.189   1.571
 9791WAT     OW29371   2.957   5.935   3.209
 9791WAT    HW129372   2.891   5.878   3.259
 9791WAT    HW229373   3.046   5.890   3.207
 9792WAT     OW29374   3.843   6.218   0.340
 9792WAT    HW129375   3.830   6.121   0.360
 9792WAT    HW229376   3.847   6.269   0.426
 9793WAT     OW29377   5.061   5.673   1.803
 9793WAT    HW129378   5.027   5.760   1.767
 9793WAT    HW229379   5.106   5.689   1.891
 9794WAT     OW29380   3.363   1.568   1.810
 9794WAT    HW129381   3.459   1.542   1.821
 9794WAT    HW229382   3.340   1.642   1.873
 9795WAT     OW29383   1.791   5.376   6.338
 9795WAT    HW129384   1.747   5.353   6.251
 9795WAT    HW229385   1.880   5.417   6.320
 9796WAT     OW29386   4.285   6.637   4.150
 9796WAT    HW129387   4.371   6.616   4.196
 9796WAT    HW229388   4.211   6.584   4.191
 9797WAT     OW29389   1.061   0.545   1.141
 9797WAT    HW129390   0.980   0.582   1.188
 9797WAT    HW229391   1.113   0.620   1.101
 9798WAT     OW29392   6.486   2.059   5.537
 9798WAT    HW129393   6.558   2.094   5.477
 9798WAT    HW229394   6.397   2.088   5.502
 9799WAT     OW29395   2.146   1.526   4.001
 9799WAT    HW129396   2.180   1.620   3.993
 9799WAT    HW229397   2.123   1.490   3.911
 9800WAT     OW29398   4.099   1.163   6.087
 9800WAT    HW129399   4.080   1.261   6.090
 9800WAT    HW229400   4.113   1.129   6.180
 9801WAT     OW29401   1.376   2.155   3.013
 9801WAT    HW129402   1.301   2.101   2.974
 9801WAT    HW229403   1.419   2.104   3.087
 9802WAT     OW29404   2.306   0.839   4.962
 9802WAT    HW129405   2.398   0.863   4.930
 9802WAT    HW229406   2.294   0.874   5.055
 9803WAT     OW29407   5.481   5.102   1.417
 9803WAT    HW129408   5.477   5.188   1.468
 9803WAT    HW229409   5.515   5.119   1.325
 9804WAT     OW29410   4.563   1.810   4.323
 9804WAT    HW129411   4.573   1.719   4.363
 9804WAT    HW229412   4.469   1.841   4.334
 9805WAT     OW29413   6.144   3.386   1.835
 9805WAT    HW129414   6.222   3.361   1.778
 9805WAT    HW229415   6.086   3.306   1.849
 9806WAT     OW29416   2.429   1.362   4.806
 9806WAT    HW129417   2.481   1.442   4.775
 9806WAT    HW229418   2.430   1.359   4.906
 9807WAT     OW29419   0.546   5.563   5.710
 9807WAT    HW129420   0.502   5.487   5.758
 9807WAT    HW229421   0.618   5.602   5.768
 9808WAT     OW29422   6.463   0.548   4.792
 9808WAT    HW129423   6.437   0.465   4.842
 9808WAT    HW229424   6.490   0.619   4.857
 9809WAT     OW29425   0.319   2.888   5.643
 9809WAT    HW129426   0.261   2.933   5.575
 9809WAT    HW229427   0.288   2.795   5.659
 9810WAT     OW29428   6.373   1.060   1.383
 9810WAT    HW129429   6.328   1.108   1.459
 9810WAT    HW229430   6.433   1.123   1.335
 9811WAT     OW29431   0.098   0.125   2.344
 9811WAT    HW129432   0.043   0.208   2.354
 9811WAT    HW229433   0.075   0.061   2.417
 9812WAT     OW29434   2.341   1.523   4.446
 9812WAT    HW129435   2.288   1.608   4.441
 9812WAT    HW229436   2.296   1.459   4.508
 9813WAT     OW29437   5.461   6.488   2.116
 9813WAT    HW129438   5.488   6.582   2.095
 9813WAT    HW229439   5.472   6.431   2.034
 9814WAT     OW29440   1.127   2.099   4.522
 9814WAT    HW129441   1.170   2.176   4.570
 9814WAT    HW229442   1.151   2.103   4.425
 9815WAT     OW29443   0.365   1.552   5.724
 9815WAT    HW129444   0.341   1.620   5.655
 9815WAT    HW229445   0.421   1.595   5.795
 9816WAT     OW29446   5.032   1.166   1.381
 9816WAT    HW129447   5.112   1.122   1.339
 9816WAT    HW229448   4.956   1.102   1.385
 9817WAT     OW29449   2.195   2.327   6.247
 9817WAT    HW129450   2.274   2.357   6.193
 9817WAT    HW229451   2.207   2.355   6.342
 9818WAT     OW29452   1.335   1.908   5.661
 9818WAT    HW129453   1.296   1.935   5.573
 9818WAT    HW229454   1.351   1.809   5.661
 9819WAT     OW29455   0.369   1.701   1.225
 9819WAT    HW129456   0.306   1.684   1.300
 9819WAT    HW229457   0.462   1.713   1.261
 9820WAT     OW29458   2.404   6.312   1.829
 9820WAT    HW129459   2.483   6.339   1.774
 9820WAT    HW229460   2.386   6.383   1.898
 9821WAT     OW29461   0.668   6.379   1.460
 9821WAT    HW129462   0.726   6.298   1.447
 9821WAT    HW229463   0.696   6.426   1.544
 9822WAT     OW29464   0.084   5.767   1.130
 9822WAT    HW129465   0.168   5.813   1.103
 9822WAT    HW229466   0.073   5.682   1.078
 9823WAT     OW29467   3.836   4.870   0.662
 9823WAT    HW129468   3.873   4.939   0.600
 9823WAT    HW229469   3.751   4.833   0.625
 9824WAT     OW29470   2.415   5.786   6.635
 9824WAT    HW129471   2.472   5.861   6.603
 9824WAT    HW229472   2.449   5.754   6.724
 9825WAT     OW29473   3.176   5.106   4.524
 9825WAT    HW129474   3.205   5.033   4.586
 9825WAT    HW229475   3.116   5.069   4.454
 9826WAT     OW29476   4.049   4.179   4.164
 9826WAT    HW129477   4.148   4.179   4.174
 9826WAT    HW229478   4.009   4.112   4.227
 9827WAT     OW29479   6.169   4.534   0.417
 9827WAT    HW129480   6.149   4.624   0.379
 9827WAT    HW229481   6.188   4.542   0.515
 9828WAT     OW29482   1.986   1.977   2.232
 9828WAT    HW129483   1.934   1.916   2.172
 9828WAT    HW229484   2.076   1.995   2.192
 9829WAT     OW29485   6.641   4.202   2.681
 9829WAT    HW129486   6.654   4.299   2.661
 9829WAT    HW229487   6.729   4.155   2.681
 9830WAT     OW29488   1.636   2.808   4.310
 9830WAT    HW129489   1.615   2.719   4.351
 9830WAT    HW229490   1.581   2.821   4.228
 9831WAT     OW29491   2.468   3.112   1.020
 9831WAT    HW129492   2.458   3.106   0.921
 9831WAT    HW229493   2.388   3.072   1.065
 9832WAT     OW29494   5.921   3.207   2.962
 9832WAT    HW129495   5.883   3.295   2.990
 9832WAT    HW229496   5.848   3.149   2.927
 9833WAT     OW29497   5.149   4.917   0.005
 9833WAT    HW129498   5.062   4.927  -0.042
 9833WAT    HW229499   5.132   4.905   0.103
 9834WAT     OW29500   1.609   3.215   2.327
 9834WAT    HW129501   1.635   3.295   2.380
 9834WAT    HW229502   1.660   3.214   2.241
 9835WAT     OW29503   5.123   4.605   3.189
 9835WAT    HW129504   5.123   4.654   3.277
 9835WAT    HW229505   5.071   4.521   3.198
 9836WAT     OW29506   6.671   6.291   1.982
 9836WAT    HW129507   6.657   6.346   1.899
 9836WAT    HW229508   6.766   6.259   1.985
 9837WAT     OW29509   1.443   3.176   2.882
 9837WAT    HW129510   1.360   3.161   2.937
 9837WAT    HW229511   1.523   3.147   2.934
 9838WAT     OW29512   0.551   1.742   3.118
 9838WAT    HW129513   0.637   1.780   3.151
 9838WAT    HW229514   0.490   1.817   3.091
 9839WAT     OW29515   3.241   4.309   1.906
 9839WAT    HW129516   3.308   4.235   1.904
 9839WAT    HW229517   3.241   4.358   1.819
 9840WAT     OW29518   3.632   5.794   0.782
 9840WAT    HW129519   3.606   5.877   0.734
 9840WAT    HW229520   3.551   5.750   0.820
 9841WAT     OW29521   3.344   3.411   5.284
 9841WAT    HW129522   3.373   3.338   5.345
 9841WAT    HW229523   3.252   3.441   5.309
 9842WAT     OW29524   1.203   1.791   1.163
 9842WAT    HW129525   1.173   1.886   1.154
 9842WAT    HW229526   1.208   1.766   1.260
 9843WAT     OW29527   2.358   4.036   6.017
 9843WAT    HW129528   2.304   3.957   5.988
 9843WAT    HW229529   2.338   4.057   6.112
 9844WAT     OW29530   0.310   3.452   5.402
 9844WAT    HW129531   0.301   3.355   5.380
 9844WAT    HW229532   0.399   3.469   5.443
 9845WAT     OW29533   3.006   1.468   4.240
 9845WAT    HW129534   3.046   1.389   4.287
 9845WAT    HW229535   2.926   1.439   4.188
 9846WAT     OW29536   6.049   0.339   2.203
 9846WAT    HW129537   6.019   0.257   2.156
 9846WAT    HW229538   6.045   0.417   2.141
 9847WAT     OW29539   0.792   1.341   3.897
 9847WAT    HW129540   0.763   1.412   3.833
 9847WAT    HW229541   0.864   1.376   3.957
 9848WAT     OW29542   4.150   4.761   2.007
 9848WAT    HW129543   4.157   4.669   2.046
 9848WAT    HW229544   4.234   4.812   2.025
 9849WAT     OW29545   0.589   2.231   6.290
 9849WAT    HW129546   0.657   2.305   6.295
 9849WAT    HW229547   0.594   2.175   6.372
 9850WAT     OW29548   2.319   3.516   3.328
 9850WAT    HW129549   2.386   3.554   3.391
 9850WAT    HW229550   2.256   3.457   3.378
 9851WAT     OW29551   3.372   5.954   4.828
 9851WAT    HW129552   3.357   5.930   4.732
 9851WAT    HW229553   3.289   5.996   4.865
 9852WAT     OW29554   3.012   6.459   2.701
 9852WAT    HW129555   2.955   6.387   2.741
 9852WAT    HW229556   3.071   6.499   2.772
 9853WAT     OW29557   1.467   1.150   6.027
 9853WAT    HW129558   1.565   1.128   6.023
 9853WAT    HW229559   1.441   1.200   5.944
 9854WAT     OW29560   1.060   1.914   6.290
 9854WAT    HW129561   0.988   1.983   6.303
 9854WAT    HW229562   1.078   1.868   6.377
 9855WAT     OW29563   4.202   0.937   5.146
 9855WAT    HW129564   4.220   0.920   5.243
 9855WAT    HW229565   4.131   0.874   5.114
 9856WAT     OW29566   0.189   2.901   0.920
 9856WAT    HW129567   0.226   2.903   0.827
 9856WAT    HW229568   0.125   2.977   0.932
 9857WAT     OW29569   5.113   2.543   4.085
 9857WAT    HW129570   5.023   2.575   4.116
 9857WAT    HW229571   5.183   2.606   4.116
 9858WAT     OW29572   5.134   0.916   4.093
 9858WAT    HW129573   5.167   0.928   4.000
 9858WAT    HW229574   5.212   0.917   4.156
 9859WAT     OW29575   6.176   2.777   2.955
 9859WAT    HW129576   6.214   2.741   3.040
 9859WAT    HW229577   6.159   2.875   2.964
 9860WAT     OW29578   1.122   2.278   4.956
 9860WAT    HW129579   1.141   2.245   5.048
 9860WAT    HW229580   1.199   2.332   4.923
 9861WAT     OW29581   0.723   5.970   4.365
 9861WAT    HW129582   0.707   5.973   4.464
 9861WAT    HW229583   0.676   6.047   4.322
 9862WAT     OW29584   5.110   0.966   2.353
 9862WAT    HW129585   5.107   0.869   2.378
 9862WAT    HW229586   5.162   0.978   2.269
 9863WAT     OW29587   2.357   5.034   4.076
 9863WAT    HW129588   2.436   5.091   4.051
 9863WAT    HW229589   2.382   4.971   4.149
 9864WAT     OW29590   3.854   1.566   5.207
 9864WAT    HW129591   3.868   1.626   5.129
 9864WAT    HW229592   3.922   1.493   5.206
 9865WAT     OW29593   2.341   6.526   3.551
 9865WAT    HW129594   2.352   6.432   3.518
 9865WAT    HW229595   2.281   6.525   3.632
 9866WAT     OW29596   2.462   4.172   1.166
 9866WAT    HW129597   2.486   4.075   1.157
 9866WAT    HW229598   2.366   4.181   1.191
 9867WAT     OW29599   1.484   1.660   4.909
 9867WAT    HW129600   1.511   1.611   4.826
 9867WAT    HW229601   1.438   1.597   4.972
 9868WAT     OW29602   1.375   1.809   0.948
 9868WAT    HW129603   1.314   1.792   1.025
 9868WAT    HW229604   1.423   1.725   0.923
 9869WAT     OW29605   1.172   5.712   2.781
 9869WAT    HW129606   1.257   5.664   2.758
 9869WAT    HW229607   1.141   5.765   2.702
 9870WAT     OW29608   4.412   1.855   2.961
 9870WAT    HW129609   4.359   1.940   2.959
 9870WAT    HW229610   4.408   1.815   3.052
 9871WAT     OW29611   2.854   3.666   6.463
 9871WAT    HW129612   2.864   3.685   6.560
 9871WAT    HW229613   2.900   3.738   6.410
 9872WAT     OW29614   2.271   0.887   4.275
 9872WAT    HW129615   2.180   0.919   4.298
 9872WAT    HW229616   2.315   0.952   4.213
 9873WAT     OW29617   5.670   0.065   5.670
 9873WAT    HW129618   5.707   0.074   5.763
 9873WAT    HW229619   5.736   0.100   5.604
 9874WAT     OW29620   1.155   2.844   4.777
 9874WAT    HW129621   1.234   2.800   4.820
 9874WAT    HW229622   1.100   2.890   4.847
 9875WAT     OW29623   3.952   2.216   1.319
 9875WAT    HW129624   3.875   2.275   1.296
 9875WAT    HW229625   3.943   2.129   1.270
 9876WAT     OW29626   2.695   4.861   0.286
 9876WAT    HW129627   2.696   4.951   0.243
 9876WAT    HW229628   2.634   4.862   0.365
 9877WAT     OW29629   3.014   4.463   2.685
 9877WAT    HW129630   3.004   4.501   2.593
 9877WAT    HW229631   3.066   4.527   2.741
 9878WAT     OW29632   4.110   2.450   1.317
 9878WAT    HW129633   4.106   2.476   1.413
 9878WAT    HW229634   4.059   2.364   1.303
 9879WAT     OW29635   6.305   2.912   1.165
 9879WAT    HW129636   6.383   2.853   1.187
 9879WAT    HW229637   6.321   3.004   1.202
 9880WAT     OW29638   5.848   5.030   2.813
 9880WAT    HW129639   5.850   5.061   2.908
 9880WAT    HW229640   5.753   5.019   2.783
 9881WAT     OW29641   5.089   6.075   4.991
 9881WAT    HW129642   5.101   6.162   4.943
 9881WAT    HW229643   5.106   6.089   5.089
 9882WAT     OW29644   6.616   5.116   0.296
 9882WAT    HW129645   6.620   5.169   0.381
 9882WAT    HW229646   6.632   5.020   0.315
 9883WAT     OW29647   0.781   5.665   2.952
 9883WAT    HW129648   0.753   5.597   3.019
 9883WAT    HW229649   0.747   5.638   2.862
 9884WAT     OW29650   0.835   5.792   1.824
 9884WAT    HW129651   0.896   5.845   1.882
 9884WAT    HW229652   0.796   5.716   1.876
 9885WAT     OW29653   3.049   2.562   2.462
 9885WAT    HW129654   2.992   2.600   2.534
 9885WAT    HW229655   3.033   2.463   2.455
 9886WAT     OW29656   1.716   3.283   4.356
 9886WAT    HW129657   1.751   3.194   4.386
 9886WAT    HW229658   1.714   3.346   4.434
 9887WAT     OW29659   1.603   6.664   3.890
 9887WAT    HW129660   1.535   6.722   3.934
 9887WAT    HW229661   1.556   6.597   3.831
 9888WAT     OW29662   0.843   0.078   6.297
 9888WAT    HW129663   0.899   0.069   6.380
 9888WAT    HW229664   0.805   0.170   6.292
 9889WAT     OW29665   4.219   2.772   2.489
 9889WAT    HW129666   4.244   2.731   2.577
 9889WAT    HW229667   4.294   2.830   2.458
 9890WAT     OW29668   2.923   2.255   3.087
 9890WAT    HW129669   2.967   2.307   3.160
 9890WAT    HW229670   2.993   2.221   3.023
 9891WAT     OW29671   1.292   1.090   2.486
 9891WAT    HW129672   1.321   0.996   2.472
 9891WAT    HW229673   1.213   1.110   2.428
 9892WAT     OW29674   0.515   5.823   4.014
 9892WAT    HW129675   0.591   5.835   3.951
 9892WAT    HW229676   0.488   5.913   4.050
 9893WAT     OW29677   5.663   1.233   3.106
 9893WAT    HW129678   5.571   1.242   3.145
 9893WAT    HW229679   5.671   1.146   3.059
 9894WAT     OW29680   3.358   4.643   6.491
 9894WAT    HW129681   3.449   4.659   6.452
 9894WAT    HW229682   3.301   4.724   6.475
 9895WAT     OW29683   2.213   1.376   4.634
 9895WAT    HW129684   2.292   1.359   4.694
 9895WAT    HW229685   2.150   1.439   4.679
 9896WAT     OW29686   4.203   0.635   6.451
 9896WAT    HW129687   4.302   0.622   6.456
 9896WAT    HW229688   4.162   0.609   6.538
 9897WAT     OW29689   3.002   0.809   0.089
 9897WAT    HW129690   2.938   0.859   0.148
 9897WAT    HW229691   2.976   0.821  -0.007
 9898WAT     OW29692   3.551   5.602   3.327
 9898WAT    HW129693   3.456   5.615   3.356
 9898WAT    HW229694   3.611   5.660   3.382
 9899WAT     OW29695   2.063   1.702   5.124
 9899WAT    HW129696   1.991   1.665   5.066
 9899WAT    HW229697   2.071   1.800   5.107
 9900WAT     OW29698   2.026   4.883   3.449
 9900WAT    HW129699   1.972   4.936   3.385
 9900WAT    HW229700   1.999   4.905   3.543
 9901WAT     OW29701   0.618   1.186   3.112
 9901WAT    HW129702   0.625   1.169   3.211
 9901WAT    HW229703   0.626   1.100   3.063
 9902WAT     OW29704   2.656   6.636   0.900
 9902WAT    HW129705   2.701   6.704   0.843
 9902WAT    HW229706   2.709   6.621   0.984
 9903WAT     OW29707   1.589   1.925   2.347
 9903WAT    HW129708   1.574   1.944   2.444
 9903WAT    HW229709   1.563   2.005   2.293
 9904WAT     OW29710   1.230   6.455   1.484
 9904WAT    HW129711   1.267   6.459   1.391
 9904WAT    HW229712   1.285   6.513   1.544
 9905WAT     OW29713   6.610   1.414   6.610
 9905WAT    HW129714   6.653   1.403   6.700
 9905WAT    HW229715   6.601   1.511   6.589
 9906WAT     OW29716   4.679   4.539   3.855
 9906WAT    HW129717   4.685   4.627   3.808
 9906WAT    HW229718   4.703   4.466   3.791
 9907WAT     OW29719   1.765   5.413   4.896
 9907WAT    HW129720   1.784   5.506   4.865
 9907WAT    HW229721   1.846   5.375   4.940
 9908WAT     OW29722   2.382   2.696   2.234
 9908WAT    HW129723   2.390   2.694   2.134
 9908WAT    HW229724   2.471   2.716   2.274
 9909WAT     OW29725   4.963   3.293   5.937
 9909WAT    HW129726   5.029   3.294   5.863
 9909WAT    HW229727   5.010   3.284   6.025
 9910WAT     OW29728   2.611   3.975   5.918
 9910WAT    HW129729   2.520   4.002   5.948
 9910WAT    HW229730   2.611   3.878   5.895
 9911WAT     OW29731   4.396   5.503   6.094
 9911WAT    HW129732   4.373   5.408   6.072
 9911WAT    HW229733   4.324   5.563   6.059
 9912WAT     OW29734   6.666   3.331   2.766
 9912WAT    HW129735   6.726   3.279   2.827
 9912WAT    HW229736   6.718   3.405   2.723
 9913WAT     OW29737   0.560   2.926   5.514
 9913WAT    HW129738   0.534   2.965   5.425
 9913WAT    HW229739   0.477   2.907   5.567
 9914WAT     OW29740   4.657   1.221   0.821
 9914WAT    HW129741   4.633   1.230   0.917
 9914WAT    HW229742   4.629   1.303   0.771
 9915WAT     OW29743   6.363   3.301   6.549
 9915WAT    HW129744   6.292   3.239   6.584
 9915WAT    HW229745   6.445   3.294   6.606
 9916WAT     OW29746   1.317   4.722   0.096
 9916WAT    HW129747   1.382   4.748   0.025
 9916WAT    HW229748   1.277   4.804   0.137
 9917WAT     OW29749   2.104   1.545   2.334
 9917WAT    HW129750   2.187   1.509   2.291
 9917WAT    HW229751   2.024   1.499   2.296
 9918WAT     OW29752   0.319   6.502   5.161
 9918WAT    HW129753   0.376   6.439   5.215
 9918WAT    HW229754   0.251   6.451   5.109
 9919WAT     OW29755   6.321   2.129   6.674
 9919WAT    HW129756   6.276   2.208   6.632
 9919WAT    HW229757   6.382   2.086   6.607
 9920WAT     OW29758   2.132   4.652   1.892
 9920WAT    HW129759   2.132   4.558   1.926
 9920WAT    HW229760   2.225   4.679   1.869
 9921WAT     OW29761   2.611   0.756   4.656
 9921WAT    HW129762   2.618   0.768   4.557
 9921WAT    HW229763   2.671   0.681   4.684
 9922WAT     OW29764   1.699   3.466   4.569
 9922WAT    HW129765   1.697   3.399   4.643
 9922WAT    HW229766   1.756   3.544   4.597
 9923WAT     OW29767   0.821   5.261   2.686
 9923WAT    HW129768   0.898   5.202   2.660
 9923WAT    HW229769   0.850   5.321   2.761
 9924WAT     OW29770   4.115   5.092   3.455
 9924WAT    HW129771   4.070   5.034   3.388
 9924WAT    HW229772   4.157   5.171   3.409
 9925WAT     OW29773   6.082   0.819   3.858
 9925WAT    HW129774   6.172   0.784   3.835
 9925WAT    HW229775   6.026   0.826   3.775
 9926WAT     OW29776   0.407   0.613   2.367
 9926WAT    HW129777   0.356   0.608   2.453
 9926WAT    HW229778   0.343   0.611   2.290
 9927WAT     OW29779   5.808   0.305   6.166
 9927WAT    HW129780   5.874   0.331   6.095
 9927WAT    HW229781   5.715   0.308   6.128
 9928WAT     OW29782   1.823   3.878   2.134
 9928WAT    HW129783   1.852   3.783   2.140
 9928WAT    HW229784   1.729   3.886   2.169
 9929WAT     OW29785   3.203   5.821   3.197
 9929WAT    HW129786   3.243   5.765   3.270
 9929WAT    HW229787   3.194   5.766   3.114
 9930WAT     OW29788   5.646   0.537   1.398
 9930WAT    HW129789   5.667   0.453   1.448
 9930WAT    HW229790   5.608   0.513   1.308
 9931WAT     OW29791   3.142   2.419   0.105
 9931WAT    HW129792   3.212   2.487   0.084
 9931WAT    HW229793   3.068   2.426   0.039
 9932WAT     OW29794   6.159   3.350   0.432
 9932WAT    HW129795   6.253   3.382   0.425
 9932WAT    HW229796   6.100   3.425   0.462
 9933WAT     OW29797   0.624   5.914   5.485
 9933WAT    HW129798   0.694   5.866   5.537
 9933WAT    HW229799   0.585   5.987   5.542
 9934WAT     OW29800   2.477   3.130   4.858
 9934WAT    HW129801   2.568   3.170   4.870
 9934WAT    HW229802   2.451   3.134   4.761
 9935WAT     OW29803   2.915   5.147   6.135
 9935WAT    HW129804   2.955   5.127   6.225
 9935WAT    HW229805   2.920   5.065   6.078
 9936WAT     OW29806   3.669   0.422   1.219
 9936WAT    HW129807   3.731   0.353   1.259
 9936WAT    HW229808   3.625   0.473   1.293
 9937WAT     OW29809   5.369   6.570   3.350
 9937WAT    HW129810   5.425   6.560   3.268
 9937WAT    HW229811   5.411   6.637   3.411
 9938WAT     OW29812   0.774   3.341   2.771
 9938WAT    HW129813   0.681   3.319   2.743
 9938WAT    HW229814   0.771   3.410   2.844
 9939WAT     OW29815   2.801   1.863   2.024
 9939WAT    HW129816   2.767   1.814   2.104
 9939WAT    HW229817   2.862   1.937   2.053
 9940WAT     OW29818   1.613   5.397   2.054
 9940WAT    HW129819   1.563   5.417   2.139
 9940WAT    HW229820   1.695   5.345   2.075
 9941WAT     OW29821   2.777   5.259   3.892
 9941WAT    HW129822   2.810   5.167   3.870
 9941WAT    HW229823   2.688   5.252   3.938
 9942WAT     OW29824   5.343   2.694   0.261
 9942WAT    HW129825   5.398   2.748   0.198
 9942WAT    HW229826   5.324   2.604   0.220
 9943WAT     OW29827   4.853   2.001   3.378
 9943WAT    HW129828   4.814   2.091   3.400
 9943WAT    HW229829   4.909   2.008   3.295
 9944WAT     OW29830   2.160   5.422   1.009
 9944WAT    HW129831   2.093   5.358   1.048
 9944WAT    HW229832   2.113   5.504   0.978
 9945WAT     OW29833   4.826   3.241   3.637
 9945WAT    HW129834   4.815   3.341   3.633
 9945WAT    HW229835   4.907   3.215   3.585
 9946WAT     OW29836   0.772   4.859   2.057
 9946WAT    HW129837   0.710   4.834   1.983
 9946WAT    HW229838   0.815   4.947   2.036
 9947WAT     OW29839   5.781   3.790   1.300
 9947WAT    HW129840   5.861   3.802   1.360
 9947WAT    HW229841   5.698   3.804   1.354
 9948WAT     OW29842   4.471   4.217   4.482
 9948WAT    HW129843   4.375   4.192   4.495
 9948WAT    HW229844   4.478   4.294   4.419
 9949WAT     OW29845   2.112   5.821   0.708
 9949WAT    HW129846   2.039   5.876   0.666
 9949WAT    HW229847   2.180   5.882   0.749
 9950WAT     OW29848   1.341   0.113   6.618
 9950WAT    HW129849   1.259   0.169   6.628
 9950WAT    HW229850   1.316   0.016   6.617
 9951WAT     OW29851   0.268   2.137   0.164
 9951WAT    HW129852   0.288   2.137   0.066
 9951WAT    HW229853   0.266   2.231   0.197
 9952WAT     OW29854   0.867   5.867   0.068
 9952WAT    HW129855   0.883   5.771   0.090
 9952WAT    HW229856   0.783   5.874   0.013
 9953WAT     OW29857   3.467   2.458   3.801
 9953WAT    HW129858   3.403   2.404   3.746
 9953WAT    HW229859   3.484   2.410   3.888
 9954WAT     OW29860   0.095   3.879   0.432
 9954WAT    HW129861   0.107   3.955   0.496
 9954WAT    HW229862   0.014   3.894   0.376
 9955WAT     OW29863   3.116   1.223   3.522
 9955WAT    HW129864   3.140   1.288   3.450
 9955WAT    HW229865   3.178   1.237   3.600
 9956WAT     OW29866   6.682   2.372   0.877
 9956WAT    HW129867   6.780   2.394   0.874
 9956WAT    HW229868   6.634   2.425   0.806
 9957WAT     OW29869   5.329   2.806   5.496
 9957WAT    HW129870   5.245   2.821   5.444
 9957WAT    HW229871   5.328   2.715   5.537
 9958WAT     OW29872   0.359   3.186   5.017
 9958WAT    HW129873   0.375   3.091   4.991
 9958WAT    HW229874   0.272   3.193   5.066
 9959WAT     OW29875   6.577   3.685   3.999
 9959WAT    HW129876   6.596   3.668   3.902
 9959WAT    HW229877   6.569   3.784   4.015
 9960WAT     OW29878   6.213   0.448   0.367
 9960WAT    HW129879   6.300   0.433   0.413
 9960WAT    HW229880   6.146   0.382   0.400
 9961WAT     OW29881   0.649   2.078   6.515
 9961WAT    HW129882   0.670   2.079   6.613
 9961WAT    HW229883   0.571   2.017   6.498
 9962WAT     OW29884   2.079   1.965   5.056
 9962WAT    HW129885   2.015   2.014   5.115
 9962WAT    HW229886   2.167   2.013   5.055
 9963WAT     OW29887   5.941   2.598   5.160
 9963WAT    HW129888   5.979   2.533   5.225
 9963WAT    HW229889   5.855   2.563   5.123
 9964WAT     OW29890   1.075   3.334   6.129
 9964WAT    HW129891   1.036   3.328   6.221
 9964WAT    HW229892   1.003   3.321   6.061
 9965WAT     OW29893   0.722   1.323   2.020
 9965WAT    HW129894   0.643   1.377   1.991
 9965WAT    HW229895   0.693   1.251   2.082
 9966WAT     OW29896   2.171   3.853   2.912
 9966WAT    HW129897   2.138   3.784   2.847
 9966WAT    HW229898   2.098   3.874   2.977
 9967WAT     OW29899   1.192   4.407   1.975
 9967WAT    HW129900   1.177   4.439   1.882
 9967WAT    HW229901   1.113   4.429   2.032
 9968WAT     OW29902   1.287   2.008   2.011
 9968WAT    HW129903   1.299   1.988   2.108
 9968WAT    HW229904   1.229   2.088   2.001
 9969WAT     OW29905   5.883   2.215   5.485
 9969WAT    HW129906   5.890   2.153   5.564
 9969WAT    HW229907   5.856   2.163   5.404
 9970WAT     OW29908   6.131   0.978   0.809
 9970WAT    HW129909   6.153   0.916   0.734
 9970WAT    HW229910   6.118   1.071   0.774
 9971WAT     OW29911   3.215   2.907   3.161
 9971WAT    HW129912   3.193   2.927   3.257
 9971WAT    HW229913   3.273   2.980   3.124
 9972WAT     OW29914   1.117   6.237   2.205
 9972WAT    HW129915   1.209   6.216   2.170
 9972WAT    HW229916   1.086   6.324   2.167
 9973WAT     OW29917   5.890   0.356   3.774
 9973WAT    HW129918   5.890   0.321   3.868
 9973WAT    HW229919   5.971   0.323   3.726
 9974WAT     OW29920   6.378   4.066   1.595
 9974WAT    HW129921   6.315   4.026   1.661
 9974WAT    HW229922   6.327   4.119   1.528
 9975WAT     OW29923   0.920   4.169   0.228
 9975WAT    HW129924   0.951   4.217   0.310
 9975WAT    HW229925   0.998   4.142   0.173
 9976WAT     OW29926   2.562   3.539   2.741
 9976WAT    HW129927   2.481   3.502   2.696
 9976WAT    HW229928   2.576   3.634   2.712
 9977WAT     OW29929   1.819   5.756   1.605
 9977WAT    HW129930   1.884   5.830   1.620
 9977WAT    HW229931   1.846   5.677   1.659
 9978WAT     OW29932   1.785   2.452   2.864
 9978WAT    HW129933   1.858   2.416   2.805
 9978WAT    HW229934   1.705   2.393   2.857
 9979WAT     OW29935   1.982   5.213   4.265
 9979WAT    HW129936   1.911   5.154   4.227
 9979WAT    HW229937   1.939   5.283   4.322
 9980WAT     OW29938   2.996   3.774   4.901
 9980WAT    HW129939   2.947   3.817   4.977
 9980WAT    HW229940   3.015   3.842   4.831
 9981WAT     OW29941   0.160   4.824   5.853
 9981WAT    HW129942   0.233   4.882   5.816
 9981WAT    HW229943   0.193   4.779   5.936
 9982WAT     OW29944   2.227   1.821   6.033
 9982WAT    HW129945   2.216   1.904   6.089
 9982WAT    HW229946   2.187   1.836   5.943
 9983WAT     OW29947   1.172   2.794   0.245
 9983WAT    HW129948   1.241   2.861   0.217
 9983WAT    HW229949   1.099   2.840   0.296
 9984WAT     OW29950   5.438   4.230   5.210
 9984WAT    HW129951   5.533   4.201   5.219
 9984WAT    HW229952   5.425   4.277   5.123
 9985WAT     OW29953   0.768   4.984   1.482
 9985WAT    HW129954   0.759   4.905   1.542
 9985WAT    HW229955   0.694   4.983   1.414
 9986WAT     OW29956   1.993   5.385   5.480
 9986WAT    HW129957   1.899   5.349   5.481
 9986WAT    HW229958   2.044   5.346   5.556
 9987WAT     OW29959   3.854   0.110   4.314
 9987WAT    HW129960   3.944   0.147   4.337
 9987WAT    HW229961   3.860   0.057   4.229
 9988WAT     OW29962   0.549   0.554   5.551
 9988WAT    HW129963   0.520   0.474   5.604
 9988WAT    HW229964   0.475   0.621   5.548
 9989WAT     OW29965   4.365   2.868   4.551
 9989WAT    HW129966   4.291   2.907   4.606
 9989WAT    HW229967   4.451   2.876   4.602
 9990WAT     OW29968   4.292   6.498   2.704
 9990WAT    HW129969   4.279   6.479   2.607
 9990WAT    HW229970   4.335   6.588   2.715
 9991WAT     OW29971   2.396   0.474   3.371
 9991WAT    HW129972   2.471   0.425   3.326
 9991WAT    HW229973   2.434   0.544   3.431
 9992WAT     OW29974   6.288   3.075   5.931
 9992WAT    HW129975   6.198   3.037   5.910
 9992WAT    HW229976   6.299   3.161   5.881
 9993WAT     OW29977   5.975   3.903   5.495
 9993WAT    HW129978   6.035   3.870   5.422
 9993WAT    HW229979   5.890   3.852   5.494
 9994WAT     OW29980   1.272   5.359   3.972
 9994WAT    HW129981   1.309   5.267   3.985
 9994WAT    HW229982   1.334   5.426   4.014
 9995WAT     OW29983   3.806   3.705   0.887
 9995WAT    HW129984   3.858   3.624   0.859
 9995WAT    HW229985   3.843   3.740   0.973
 9996WAT     OW29986   1.850   6.434   4.634
 9996WAT    HW129987   1.785   6.447   4.708
 9996WAT    HW229988   1.826   6.352   4.582
 9997WAT     OW29989   4.245   4.748   3.783
 9997WAT    HW129990   4.196   4.824   3.741
 9997WAT    HW229991   4.293   4.779   3.865
 9998WAT     OW29992   1.312   0.637   5.054
 9998WAT    HW129993   1.213   0.620   5.049
 9998WAT    HW229994   1.332   0.687   5.138
 9999WAT     OW29995   2.661   0.625   1.350
 9999WAT    HW129996   2.642   0.677   1.266
 9999WAT    HW229997   2.628   0.677   1.429
10000WAT     OW29998   2.273   0.829   5.775
10000WAT    HW129999   2.239   0.910   5.824
10000WAT    HW230000   2.346   0.857   5.713
   6.68801   6.68801   6.68791
