Agua tip4p_2005 bulk
30000
    1WAT     OW    1   0.335   2.244   3.649
    1WAT    HW1    2   0.358   2.318   3.592
    1WAT    HW2    3   0.290   2.284   3.723
    2WAT     OW    4   6.581   5.104   0.633
    2WAT    HW1    5   6.655   5.108   0.573
    2WAT    HW2    6   6.598   5.173   0.697
    3WAT     OW    7   2.660   2.973   5.220
    3WAT    HW1    8   2.661   3.067   5.239
    3WAT    HW2    9   2.622   2.967   5.132
    4WAT     OW   10   0.413   5.374   4.946
    4WAT    HW1   11   0.462   5.376   4.864
    4WAT    HW2   12   0.436   5.290   4.986
    5WAT     OW   13   6.075   1.266   5.849
    5WAT    HW1   14   6.153   1.244   5.899
    5WAT    HW2   15   6.003   1.258   5.911
    6WAT     OW   16   5.658   0.396   1.406
    6WAT    HW1   17   5.596   0.332   1.440
    6WAT    HW2   18   5.694   0.439   1.484
    7WAT     OW   19   2.756   4.415   0.933
    7WAT    HW1   20   2.803   4.331   0.935
    7WAT    HW2   21   2.702   4.410   0.854
    8WAT     OW   22   6.085   6.463   0.911
    8WAT    HW1   23   6.062   6.464   1.004
    8WAT    HW2   24   6.169   6.509   0.907
    9WAT     OW   25   2.445   1.431   5.016
    9WAT    HW1   26   2.368   1.453   4.962
    9WAT    HW2   27   2.479   1.516   5.045
   10WAT     OW   28   3.652   5.581   2.648
   10WAT    HW1   29   3.569   5.626   2.655
   10WAT    HW2   30   3.659   5.529   2.728
   11WAT     OW   31   5.415   2.104   0.767
   11WAT    HW1   32   5.364   2.056   0.832
   11WAT    HW2   33   5.396   2.060   0.684
   12WAT     OW   34   2.963   2.094   2.855
   12WAT    HW1   35   2.948   2.138   2.938
   12WAT    HW2   36   3.054   2.115   2.833
   13WAT     OW   37   1.483   0.009   5.948
   13WAT    HW1   38   1.512   0.042   5.863
   13WAT    HW2   39   1.447  -0.078   5.929
   14WAT     OW   40   4.941   3.336   3.085
   14WAT    HW1   41   5.009   3.347   3.151
   14WAT    HW2   42   4.979   3.374   3.006
   15WAT     OW   43   6.569   0.858   2.908
   15WAT    HW1   44   6.555   0.941   2.953
   15WAT    HW2   45   6.661   0.838   2.923
   16WAT     OW   46   1.216   5.676   0.296
   16WAT    HW1   47   1.283   5.609   0.304
   16WAT    HW2   48   1.159   5.645   0.225
   17WAT     OW   49   3.401   6.443   6.320
   17WAT    HW1   50   3.476   6.502   6.321
   17WAT    HW2   51   3.430   6.367   6.371
   18WAT     OW   52   2.611   1.989   2.836
   18WAT    HW1   53   2.698   2.011   2.803
   18WAT    HW2   54   2.574   1.931   2.769
   19WAT     OW   55   3.722   0.763   4.825
   19WAT    HW1   56   3.628   0.771   4.808
   19WAT    HW2   57   3.735   0.803   4.911
   20WAT     OW   58   3.278   2.355   0.837
   20WAT    HW1   59   3.359   2.311   0.811
   20WAT    HW2   60   3.211   2.315   0.783
   21WAT     OW   61   2.881   6.296   0.398
   21WAT    HW1   62   2.846   6.210   0.421
   21WAT    HW2   63   2.841   6.317   0.314
   22WAT     OW   64   4.278   5.166   2.599
   22WAT    HW1   65   4.235   5.194   2.518
   22WAT    HW2   66   4.222   5.098   2.635
   23WAT     OW   67   0.026   4.630   0.376
   23WAT    HW1   68   0.049   4.644   0.284
   23WAT    HW2   69  -0.063   4.663   0.384
   24WAT     OW   70   3.962   3.827   3.377
   24WAT    HW1   71   3.924   3.784   3.453
   24WAT    HW2   72   4.018   3.760   3.337
   25WAT     OW   73   5.470   4.634   3.054
   25WAT    HW1   74   5.424   4.718   3.050
   25WAT    HW2   75   5.413   4.573   3.009
   26WAT     OW   76   5.610   0.910   6.590
   26WAT    HW1   77   5.517   0.913   6.568
   26WAT    HW2   78   5.635   0.819   6.577
   27WAT     OW   79   5.679   3.816   0.362
   27WAT    HW1   80   5.623   3.831   0.438
   27WAT    HW2   81   5.760   3.863   0.383
   28WAT     OW   82   4.209   1.502   4.223
   28WAT    HW1   83   4.289   1.458   4.251
   28WAT    HW2   84   4.219   1.592   4.254
   29WAT     OW   85   2.605   3.603   0.252
   29WAT    HW1   86   2.659   3.529   0.224
   29WAT    HW2   87   2.639   3.624   0.339
   30WAT     OW   88   3.093   0.360   5.783
   30WAT    HW1   89   3.138   0.422   5.726
   30WAT    HW2   90   3.104   0.396   5.871
   31WAT     OW   91   2.487   5.469   6.303
   31WAT    HW1   92   2.393   5.451   6.298
   31WAT    HW2   93   2.502   5.493   6.394
   32WAT     OW   94   5.077   1.434   2.022
   32WAT    HW1   95   5.008   1.419   1.958
   32WAT    HW2   96   5.140   1.363   2.006
   33WAT     OW   97   2.906   0.108   4.412
   33WAT    HW1   98   2.985   0.054   4.420
   33WAT    HW2   99   2.916   0.152   4.328
   34WAT     OW  100   3.157   4.573   0.425
   34WAT    HW1  101   3.220   4.509   0.392
   34WAT    HW2  102   3.080   4.562   0.370
   35WAT     OW  103   1.002   6.414   4.464
   35WAT    HW1  104   0.934   6.420   4.530
   35WAT    HW2  105   0.958   6.434   4.381
   36WAT     OW  106   6.192   4.805   4.680
   36WAT    HW1  107   6.206   4.796   4.775
   36WAT    HW2  108   6.208   4.717   4.646
   37WAT     OW  109   3.050   1.722   3.646
   37WAT    HW1  110   3.049   1.736   3.741
   37WAT    HW2  111   2.957   1.728   3.621
   38WAT     OW  112   2.603   0.368   4.006
   38WAT    HW1  113   2.685   0.338   3.967
   38WAT    HW2  114   2.543   0.293   3.995
   39WAT     OW  115   1.322   4.794   4.776
   39WAT    HW1  116   1.318   4.836   4.862
   39WAT    HW2  117   1.402   4.741   4.780
   40WAT     OW  118   0.353   2.095   1.577
   40WAT    HW1  119   0.415   2.135   1.637
   40WAT    HW2  120   0.333   2.163   1.513
   41WAT     OW  121   5.208   5.225   4.017
   41WAT    HW1  122   5.153   5.162   4.064
   41WAT    HW2  123   5.295   5.215   4.056
   42WAT     OW  124   4.512   6.191   1.776
   42WAT    HW1  125   4.540   6.263   1.719
   42WAT    HW2  126   4.511   6.114   1.719
   43WAT     OW  127   1.177   4.011   4.591
   43WAT    HW1  128   1.148   4.101   4.573
   43WAT    HW2  129   1.187   4.008   4.686
   44WAT     OW  130   3.610   1.143   5.317
   44WAT    HW1  131   3.570   1.121   5.233
   44WAT    HW2  132   3.557   1.215   5.351
   45WAT     OW  133   0.019   5.979   0.196
   45WAT    HW1  134   0.031   6.029   0.115
   45WAT    HW2  135  -0.048   6.027   0.244
   46WAT     OW  136   3.907   3.060   4.609
   46WAT    HW1  137   3.830   3.078   4.554
   46WAT    HW2  138   3.968   3.130   4.587
   47WAT     OW  139   2.342   3.915   3.521
   47WAT    HW1  140   2.399   3.967   3.578
   47WAT    HW2  141   2.392   3.836   3.503
   48WAT     OW  142   2.420   2.168   2.936
   48WAT    HW1  143   2.484   2.106   2.901
   48WAT    HW2  144   2.473   2.238   2.975
   49WAT     OW  145   5.988   5.795   3.932
   49WAT    HW1  146   5.906   5.843   3.938
   49WAT    HW2  147   6.040   5.826   4.007
   50WAT     OW  148   2.937   0.198   4.146
   50WAT    HW1  149   2.916   0.112   4.109
   50WAT    HW2  150   2.909   0.260   4.079
   51WAT     OW  151   3.331   1.164   6.416
   51WAT    HW1  152   3.237   1.180   6.410
   51WAT    HW2  153   3.371   1.239   6.372
   52WAT     OW  154   1.356   6.390   2.010
   52WAT    HW1  155   1.439   6.436   2.020
   52WAT    HW2  156   1.328   6.372   2.100
   53WAT     OW  157   6.059   0.414   4.982
   53WAT    HW1  158   6.014   0.355   5.043
   53WAT    HW2  159   5.988   0.454   4.931
   54WAT     OW  160   2.750   5.555   3.742
   54WAT    HW1  161   2.826   5.500   3.760
   54WAT    HW2  162   2.716   5.578   3.828
   55WAT     OW  163   2.886   6.116   5.757
   55WAT    HW1  164   2.835   6.130   5.677
   55WAT    HW2  165   2.956   6.056   5.730
   56WAT     OW  166   1.611   1.953   3.640
   56WAT    HW1  167   1.581   1.884   3.581
   56WAT    HW2  168   1.706   1.950   3.633
   57WAT     OW  169   1.483   2.105   5.080
   57WAT    HW1  170   1.562   2.063   5.113
   57WAT    HW2  171   1.508   2.197   5.070
   58WAT     OW  172   4.503   6.326   2.207
   58WAT    HW1  173   4.543   6.341   2.292
   58WAT    HW2  174   4.450   6.404   2.191
   59WAT     OW  175   4.277   2.189   1.881
   59WAT    HW1  176   4.200   2.167   1.934
   59WAT    HW2  177   4.338   2.228   1.944
   60WAT     OW  178   5.545   1.590   1.934
   60WAT    HW1  179   5.489   1.667   1.932
   60WAT    HW2  180   5.624   1.616   1.887
   61WAT     OW  181   3.082   6.360   5.804
   61WAT    HW1  182   3.027   6.314   5.868
   61WAT    HW2  183   3.030   6.361   5.724
   62WAT     OW  184   3.133   3.567   2.647
   62WAT    HW1  185   3.086   3.508   2.588
   62WAT    HW2  186   3.198   3.511   2.689
   63WAT     OW  187   0.926   4.906   3.001
   63WAT    HW1  188   0.900   4.813   3.004
   63WAT    HW2  189   1.003   4.911   3.059
   64WAT     OW  190   1.281   0.248   4.814
   64WAT    HW1  191   1.190   0.275   4.827
   64WAT    HW2  192   1.318   0.317   4.758
   65WAT     OW  193   2.932   5.293   5.691
   65WAT    HW1  194   2.991   5.257   5.757
   65WAT    HW2  195   2.851   5.311   5.738
   66WAT     OW  196   1.383   0.568   5.778
   66WAT    HW1  197   1.412   0.652   5.813
   66WAT    HW2  198   1.452   0.507   5.801
   67WAT     OW  199   4.425   0.041   5.894
   67WAT    HW1  200   4.449   0.019   5.804
   67WAT    HW2  201   4.369   0.119   5.885
   68WAT     OW  202   1.735   5.282   1.659
   68WAT    HW1  203   1.757   5.375   1.656
   68WAT    HW2  204   1.651   5.276   1.613
   69WAT     OW  205   6.398   6.577   3.245
   69WAT    HW1  206   6.317   6.599   3.199
   69WAT    HW2  207   6.426   6.659   3.285
   70WAT     OW  208   6.610   4.135   4.100
   70WAT    HW1  209   6.662   4.209   4.132
   70WAT    HW2  210   6.584   4.161   4.011
   71WAT     OW  211   4.395   6.085   2.290
   71WAT    HW1  212   4.383   6.028   2.214
   71WAT    HW2  213   4.428   6.167   2.254
   72WAT     OW  214   4.187   5.866   6.043
   72WAT    HW1  215   4.281   5.870   6.026
   72WAT    HW2  216   4.180   5.828   6.131
   73WAT     OW  217   3.771   4.888   6.282
   73WAT    HW1  218   3.815   4.962   6.240
   73WAT    HW2  219   3.678   4.906   6.273
   74WAT     OW  220   5.665   1.525   6.047
   74WAT    HW1  221   5.650   1.431   6.042
   74WAT    HW2  222   5.709   1.538   6.131
   75WAT     OW  223   1.506   2.499   1.255
   75WAT    HW1  224   1.601   2.489   1.264
   75WAT    HW2  225   1.470   2.416   1.285
   76WAT     OW  226   3.347   2.984   1.310
   76WAT    HW1  227   3.360   3.041   1.234
   76WAT    HW2  228   3.309   3.040   1.377
   77WAT     OW  229   5.710   3.334   6.575
   77WAT    HW1  230   5.697   3.252   6.528
   77WAT    HW2  231   5.805   3.344   6.579
   78WAT     OW  232   2.820   2.309   1.376
   78WAT    HW1  233   2.898   2.340   1.329
   78WAT    HW2  234   2.751   2.307   1.309
   79WAT     OW  235   6.341   1.094   2.860
   79WAT    HW1  236   6.390   1.071   2.939
   79WAT    HW2  237   6.379   1.178   2.832
   80WAT     OW  238   6.154   3.253   1.626
   80WAT    HW1  239   6.062   3.226   1.629
   80WAT    HW2  240   6.200   3.179   1.586
   81WAT     OW  241   2.737   2.875   1.737
   81WAT    HW1  242   2.796   2.894   1.809
   81WAT    HW2  243   2.723   2.959   1.694
   82WAT     OW  244   6.077   0.954   4.756
   82WAT    HW1  245   6.112   1.014   4.691
   82WAT    HW2  246   6.107   0.989   4.840
   83WAT     OW  247   2.117   5.956   4.211
   83WAT    HW1  248   2.059   6.025   4.244
   83WAT    HW2  249   2.071   5.921   4.135
   84WAT     OW  250   3.475   1.389   1.105
   84WAT    HW1  251   3.504   1.305   1.140
   84WAT    HW2  252   3.500   1.453   1.172
   85WAT     OW  253   2.333   5.346   0.931
   85WAT    HW1  254   2.301   5.435   0.944
   85WAT    HW2  255   2.274   5.291   0.982
   86WAT     OW  256   1.227   1.027   4.200
   86WAT    HW1  257   1.135   1.000   4.198
   86WAT    HW2  258   1.243   1.061   4.112
   87WAT     OW  259   3.923   6.661   4.027
   87WAT    HW1  260   4.012   6.627   4.031
   87WAT    HW2  261   3.886   6.644   4.114
   88WAT     OW  262   4.139   5.020   0.794
   88WAT    HW1  263   4.097   5.064   0.869
   88WAT    HW2  264   4.082   4.945   0.777
   89WAT     OW  265   3.750   1.383   2.299
   89WAT    HW1  266   3.807   1.367   2.375
   89WAT    HW2  267   3.753   1.301   2.250
   90WAT     OW  268   1.230   0.564   4.220
   90WAT    HW1  269   1.286   0.642   4.219
   90WAT    HW2  270   1.172   0.578   4.295
   91WAT     OW  271   2.284   3.383   3.682
   91WAT    HW1  272   2.371   3.403   3.647
   91WAT    HW2  273   2.252   3.312   3.627
   92WAT     OW  274   4.970   5.065   3.146
   92WAT    HW1  275   5.013   5.110   3.074
   92WAT    HW2  276   4.994   4.973   3.135
   93WAT     OW  277   5.223   4.414   2.075
   93WAT    HW1  278   5.183   4.498   2.094
   93WAT    HW2  279   5.315   4.425   2.097
   94WAT     OW  280   1.684   0.198   3.265
   94WAT    HW1  281   1.605   0.251   3.275
   94WAT    HW2  282   1.735   0.242   3.197
   95WAT     OW  283   4.726   6.354   3.916
   95WAT    HW1  284   4.631   6.365   3.920
   95WAT    HW2  285   4.745   6.294   3.988
   96WAT     OW  286   4.232   5.699   1.492
   96WAT    HW1  287   4.201   5.775   1.443
   96WAT    HW2  288   4.153   5.647   1.507
   97WAT     OW  289   6.243   4.922   3.146
   97WAT    HW1  290   6.328   4.881   3.130
   97WAT    HW2  291   6.216   4.955   3.060
   98WAT     OW  292   0.379   0.846   6.700
   98WAT    HW1  293   0.293   0.881   6.676
   98WAT    HW2  294   0.394   0.775   6.638
   99WAT     OW  295   6.013   6.340   5.814
   99WAT    HW1  296   5.961   6.402   5.864
   99WAT    HW2  297   6.102   6.374   5.818
  100WAT     OW  298   1.339   6.143   1.080
  100WAT    HW1  299   1.404   6.081   1.114
  100WAT    HW2  300   1.267   6.137   1.143
  101WAT     OW  301   0.098   3.372   3.395
  101WAT    HW1  302   0.161   3.444   3.393
  101WAT    HW2  303   0.040   3.393   3.468
  102WAT     OW  304   3.849   4.645   0.997
  102WAT    HW1  305   3.771   4.595   0.972
  102WAT    HW2  306   3.843   4.655   1.091
  103WAT     OW  307   3.394   5.088   2.180
  103WAT    HW1  308   3.486   5.061   2.188
  103WAT    HW2  309   3.355   5.065   2.264
  104WAT     OW  310   4.011   0.151   3.872
  104WAT    HW1  311   3.978   0.085   3.932
  104WAT    HW2  312   4.070   0.103   3.814
  105WAT     OW  313   1.349   3.312   3.715
  105WAT    HW1  314   1.296   3.390   3.697
  105WAT    HW2  315   1.376   3.322   3.806
  106WAT     OW  316   6.378   0.528   0.633
  106WAT    HW1  317   6.381   0.459   0.700
  106WAT    HW2  318   6.469   0.538   0.606
  107WAT     OW  319   5.817   3.105   6.208
  107WAT    HW1  320   5.890   3.163   6.230
  107WAT    HW2  321   5.767   3.098   6.289
  108WAT     OW  322   1.510   2.334   5.813
  108WAT    HW1  323   1.564   2.266   5.853
  108WAT    HW2  324   1.457   2.369   5.885
  109WAT     OW  325   3.617   6.276   3.500
  109WAT    HW1  326   3.540   6.220   3.505
  109WAT    HW2  327   3.626   6.298   3.407
  110WAT     OW  328   3.588   2.484   3.527
  110WAT    HW1  329   3.656   2.429   3.490
  110WAT    HW2  330   3.590   2.563   3.473
  111WAT     OW  331   1.590   3.044   4.627
  111WAT    HW1  332   1.608   3.138   4.638
  111WAT    HW2  333   1.504   3.041   4.585
  112WAT     OW  334   2.093   0.897   4.593
  112WAT    HW1  335   2.003   0.928   4.606
  112WAT    HW2  336   2.113   0.921   4.502
  113WAT     OW  337   2.580   1.007   5.522
  113WAT    HW1  338   2.629   0.959   5.456
  113WAT    HW2  339   2.539   0.940   5.576
  114WAT     OW  340   1.583   4.019   6.303
  114WAT    HW1  341   1.648   4.089   6.314
  114WAT    HW2  342   1.623   3.943   6.345
  115WAT     OW  343   5.631   4.358   1.243
  115WAT    HW1  344   5.644   4.302   1.320
  115WAT    HW2  345   5.558   4.318   1.197
  116WAT     OW  346   6.062   4.048   2.942
  116WAT    HW1  347   6.136   3.988   2.934
  116WAT    HW2  348   5.985   3.990   2.948
  117WAT     OW  349   3.092   6.337   5.342
  117WAT    HW1  350   3.015   6.334   5.285
  117WAT    HW2  351   3.147   6.406   5.303
  118WAT     OW  352   4.567   4.230   3.132
  118WAT    HW1  353   4.596   4.139   3.142
  118WAT    HW2  354   4.595   4.255   3.044
  119WAT     OW  355   0.507   5.790   1.560
  119WAT    HW1  356   0.587   5.763   1.514
  119WAT    HW2  357   0.436   5.747   1.511
  120WAT     OW  358   0.993   0.838   2.189
  120WAT    HW1  359   0.957   0.760   2.231
  120WAT    HW2  360   0.920   0.877   2.143
  121WAT     OW  361   0.441   4.642   5.600
  121WAT    HW1  362   0.426   4.643   5.694
  121WAT    HW2  363   0.536   4.632   5.590
  122WAT     OW  364   6.406   0.999   2.016
  122WAT    HW1  365   6.360   0.916   2.028
  122WAT    HW2  366   6.491   0.975   1.980
  123WAT     OW  367   2.641   5.927   0.978
  123WAT    HW1  368   2.615   5.954   0.890
  123WAT    HW2  369   2.730   5.962   0.988
  124WAT     OW  370   3.679   3.089   1.481
  124WAT    HW1  371   3.772   3.081   1.501
  124WAT    HW2  372   3.654   3.002   1.447
  125WAT     OW  373   3.334   0.745   5.697
  125WAT    HW1  374   3.422   0.729   5.665
  125WAT    HW2  375   3.286   0.664   5.679
  126WAT     OW  376   5.551   1.740   0.196
  126WAT    HW1  377   5.489   1.734   0.269
  126WAT    HW2  378   5.610   1.811   0.220
  127WAT     OW  379   1.594   0.868   1.815
  127WAT    HW1  380   1.688   0.847   1.814
  127WAT    HW2  381   1.568   0.858   1.906
  128WAT     OW  382   2.879   3.406   1.094
  128WAT    HW1  383   2.878   3.383   1.001
  128WAT    HW2  384   2.918   3.330   1.138
  129WAT     OW  385   2.453   5.881   0.066
  129WAT    HW1  386   2.357   5.888   0.065
  129WAT    HW2  387   2.472   5.828   0.143
  130WAT     OW  388   5.487   3.672   5.413
  130WAT    HW1  389   5.435   3.716   5.345
  130WAT    HW2  390   5.554   3.624   5.364
  131WAT     OW  391   1.528   6.658   0.844
  131WAT    HW1  392   1.498   6.624   0.760
  131WAT    HW2  393   1.585   6.731   0.822
  132WAT     OW  394   5.606   1.329   0.369
  132WAT    HW1  395   5.675   1.378   0.325
  132WAT    HW2  396   5.646   1.246   0.394
  133WAT     OW  397   1.275   5.324   4.332
  133WAT    HW1  398   1.362   5.322   4.292
  133WAT    HW2  399   1.216   5.347   4.261
  134WAT     OW  400   0.247   5.027   6.254
  134WAT    HW1  401   0.194   5.100   6.223
  134WAT    HW2  402   0.217   5.012   6.344
  135WAT     OW  403   5.619   4.179   1.482
  135WAT    HW1  404   5.572   4.251   1.525
  135WAT    HW2  405   5.550   4.119   1.454
  136WAT     OW  406   6.219   1.227   3.397
  136WAT    HW1  407   6.173   1.295   3.349
  136WAT    HW2  408   6.150   1.167   3.426
  137WAT     OW  409   6.400   5.028   6.062
  137WAT    HW1  410   6.435   5.028   5.973
  137WAT    HW2  411   6.473   5.057   6.117
  138WAT     OW  412   1.124   5.139   5.028
  138WAT    HW1  413   1.148   5.165   4.939
  138WAT    HW2  414   1.062   5.067   5.016
  139WAT     OW  415   2.151   4.544   1.206
  139WAT    HW1  416   2.123   4.625   1.249
  139WAT    HW2  417   2.093   4.477   1.244
  140WAT     OW  418   3.964   2.829   1.629
  140WAT    HW1  419   3.897   2.762   1.619
  140WAT    HW2  420   3.982   2.830   1.723
  141WAT     OW  421   1.390   6.063   1.625
  141WAT    HW1  422   1.419   6.107   1.705
  141WAT    HW2  423   1.470   6.028   1.586
  142WAT     OW  424   4.760   3.327   5.283
  142WAT    HW1  425   4.806   3.244   5.298
  142WAT    HW2  426   4.826   3.383   5.241
  143WAT     OW  427   5.669   1.444   2.798
  143WAT    HW1  428   5.589   1.399   2.828
  143WAT    HW2  429   5.734   1.375   2.792
  144WAT     OW  430   2.054   4.520   6.543
  144WAT    HW1  431   2.075   4.613   6.535
  144WAT    HW2  432   1.958   4.517   6.546
  145WAT     OW  433   0.986   0.200   2.004
  145WAT    HW1  434   1.012   0.108   2.015
  145WAT    HW2  435   1.058   0.249   2.044
  146WAT     OW  436   5.300   6.567   3.178
  146WAT    HW1  437   5.371   6.574   3.114
  146WAT    HW2  438   5.274   6.475   3.174
  147WAT     OW  439   5.648   3.879   1.321
  147WAT    HW1  440   5.690   3.952   1.276
  147WAT    HW2  441   5.564   3.914   1.352
  148WAT     OW  442   4.449   2.906   4.246
  148WAT    HW1  443   4.471   2.942   4.160
  148WAT    HW2  444   4.457   2.811   4.235
  149WAT     OW  445   4.642   0.798   1.070
  149WAT    HW1  446   4.613   0.747   0.995
  149WAT    HW2  447   4.567   0.799   1.130
  150WAT     OW  448   3.239   4.397   0.940
  150WAT    HW1  449   3.172   4.365   0.879
  150WAT    HW2  450   3.295   4.322   0.956
  151WAT     OW  451   3.378   6.524   4.640
  151WAT    HW1  452   3.289   6.489   4.640
  151WAT    HW2  453   3.406   6.519   4.548
  152WAT     OW  454   0.296   3.653   5.055
  152WAT    HW1  455   0.389   3.632   5.061
  152WAT    HW2  456   0.253   3.583   5.103
  153WAT     OW  457   2.858   5.220   5.218
  153WAT    HW1  458   2.844   5.258   5.304
  153WAT    HW2  459   2.898   5.135   5.235
  154WAT     OW  460   2.467   6.556   6.494
  154WAT    HW1  461   2.394   6.598   6.540
  154WAT    HW2  462   2.488   6.480   6.548
  155WAT     OW  463   6.427   2.616   0.485
  155WAT    HW1  464   6.357   2.618   0.421
  155WAT    HW2  465   6.461   2.706   0.486
  156WAT     OW  466   2.665   5.326   1.912
  156WAT    HW1  467   2.626   5.240   1.901
  156WAT    HW2  468   2.702   5.347   1.826
  157WAT     OW  469   3.077   1.051   5.088
  157WAT    HW1  470   3.148   1.058   5.151
  157WAT    HW2  471   2.997   1.060   5.141
  158WAT     OW  472   4.523   6.439   1.580
  158WAT    HW1  473   4.530   6.523   1.536
  158WAT    HW2  474   4.429   6.428   1.597
  159WAT     OW  475   1.312   0.474   3.484
  159WAT    HW1  476   1.309   0.569   3.470
  159WAT    HW2  477   1.225   0.452   3.518
  160WAT     OW  478   1.299   2.712   1.670
  160WAT    HW1  479   1.227   2.775   1.663
  160WAT    HW2  480   1.318   2.687   1.580
  161WAT     OW  481   6.295   5.736   6.389
  161WAT    HW1  482   6.262   5.650   6.413
  161WAT    HW2  483   6.390   5.729   6.400
  162WAT     OW  484   6.083   4.117   4.504
  162WAT    HW1  485   6.044   4.057   4.569
  162WAT    HW2  486   6.037   4.098   4.423
  163WAT     OW  487   2.140   1.078   2.863
  163WAT    HW1  488   2.199   1.152   2.848
  163WAT    HW2  489   2.068   1.115   2.915
  164WAT     OW  490   3.283   0.107   3.020
  164WAT    HW1  491   3.202   0.135   2.977
  164WAT    HW2  492   3.302   0.177   3.083
  165WAT     OW  493   4.221   0.764   2.202
  165WAT    HW1  494   4.243   0.706   2.129
  165WAT    HW2  495   4.298   0.763   2.258
  166WAT     OW  496   3.687   4.666   3.777
  166WAT    HW1  497   3.620   4.643   3.713
  166WAT    HW2  498   3.748   4.722   3.728
  167WAT     OW  499   1.834   4.044   5.607
  167WAT    HW1  500   1.803   3.977   5.668
  167WAT    HW2  501   1.917   4.073   5.645
  168WAT     OW  502   3.202   1.140   3.211
  168WAT    HW1  503   3.113   1.173   3.226
  168WAT    HW2  504   3.200   1.050   3.243
  169WAT     OW  505   4.926   4.028   3.177
  169WAT    HW1  506   4.833   4.016   3.158
  169WAT    HW2  507   4.969   4.025   3.092
  170WAT     OW  508   3.843   0.786   6.283
  170WAT    HW1  509   3.748   0.789   6.298
  170WAT    HW2  510   3.873   0.875   6.299
  171WAT     OW  511   1.916   4.046   3.007
  171WAT    HW1  512   1.951   4.027   3.094
  171WAT    HW2  513   1.854   3.974   2.990
  172WAT     OW  514   4.416   0.461   0.049
  172WAT    HW1  515   4.441   0.548   0.019
  172WAT    HW2  516   4.324   0.452   0.022
  173WAT     OW  517   4.162   6.715   3.703
  173WAT    HW1  518   4.243   6.737   3.657
  173WAT    HW2  519   4.098   6.700   3.634
  174WAT     OW  520   2.543   2.207   3.531
  174WAT    HW1  521   2.533   2.209   3.435
  174WAT    HW2  522   2.462   2.246   3.564
  175WAT     OW  523   0.609   1.787   4.386
  175WAT    HW1  524   0.551   1.837   4.329
  175WAT    HW2  525   0.683   1.846   4.403
  176WAT     OW  526   4.331   1.315   0.973
  176WAT    HW1  527   4.325   1.262   0.894
  176WAT    HW2  528   4.338   1.405   0.941
  177WAT     OW  529   4.591   3.121   5.603
  177WAT    HW1  530   4.609   3.204   5.646
  177WAT    HW2  531   4.654   3.117   5.531
  178WAT     OW  532   3.119   1.480   6.513
  178WAT    HW1  533   3.115   1.389   6.484
  178WAT    HW2  534   3.212   1.502   6.509
  179WAT     OW  535   2.676   5.558   0.423
  179WAT    HW1  536   2.639   5.473   0.399
  179WAT    HW2  537   2.666   5.562   0.518
  180WAT     OW  538   3.579   0.244   3.989
  180WAT    HW1  539   3.543   0.156   3.974
  180WAT    HW2  540   3.649   0.252   3.924
  181WAT     OW  541   4.861   4.510   0.143
  181WAT    HW1  542   4.806   4.571   0.093
  181WAT    HW2  543   4.871   4.553   0.228
  182WAT     OW  544   3.331   1.797   3.069
  182WAT    HW1  545   3.240   1.802   3.097
  182WAT    HW2  546   3.381   1.793   3.150
  183WAT     OW  547   3.465   4.955   4.245
  183WAT    HW1  548   3.384   4.996   4.275
  183WAT    HW2  549   3.441   4.908   4.166
  184WAT     OW  550   5.706   1.658   3.448
  184WAT    HW1  551   5.671   1.745   3.466
  184WAT    HW2  552   5.663   1.601   3.512
  185WAT     OW  553   0.226   4.870   6.032
  185WAT    HW1  554   0.293   4.910   5.976
  185WAT    HW2  555   0.231   4.920   6.113
  186WAT     OW  556   1.918   5.808   2.968
  186WAT    HW1  557   1.901   5.725   2.924
  186WAT    HW2  558   1.841   5.824   3.021
  187WAT     OW  559   0.471   1.569   4.279
  187WAT    HW1  560   0.532   1.630   4.321
  187WAT    HW2  561   0.384   1.598   4.305
  188WAT     OW  562   2.480   6.345   6.681
  188WAT    HW1  563   2.531   6.264   6.693
  188WAT    HW2  564   2.490   6.391   6.764
  189WAT     OW  565   4.237   0.122   3.338
  189WAT    HW1  566   4.161   0.174   3.363
  189WAT    HW2  567   4.252   0.144   3.246
  190WAT     OW  568   1.692   3.915   5.122
  190WAT    HW1  569   1.620   3.978   5.125
  190WAT    HW2  570   1.725   3.912   5.212
  191WAT     OW  571   0.433   0.141   6.007
  191WAT    HW1  572   0.509   0.153   6.065
  191WAT    HW2  573   0.363   0.114   6.066
  192WAT     OW  574   3.733   4.140   4.030
  192WAT    HW1  575   3.780   4.224   4.026
  192WAT    HW2  576   3.740   4.105   3.941
  193WAT     OW  577   5.896   3.173   1.644
  193WAT    HW1  578   5.828   3.107   1.631
  193WAT    HW2  579   5.854   3.256   1.618
  194WAT     OW  580   2.681   4.335   2.069
  194WAT    HW1  581   2.622   4.260   2.070
  194WAT    HW2  582   2.627   4.409   2.097
  195WAT     OW  583   5.122   3.634   3.049
  195WAT    HW1  584   5.108   3.572   2.978
  195WAT    HW2  585   5.036   3.646   3.088
  196WAT     OW  586   5.517   2.089   4.910
  196WAT    HW1  587   5.530   2.126   4.997
  196WAT    HW2  588   5.440   2.034   4.918
  197WAT     OW  589   5.736   0.181   1.909
  197WAT    HW1  590   5.782   0.097   1.909
  197WAT    HW2  591   5.723   0.202   2.001
  198WAT     OW  592   3.727   1.132   2.189
  198WAT    HW1  593   3.642   1.122   2.147
  198WAT    HW2  594   3.721   1.079   2.269
  199WAT     OW  595   0.278   2.292   1.402
  199WAT    HW1  596   0.220   2.252   1.337
  199WAT    HW2  597   0.231   2.370   1.431
  200WAT     OW  598   1.545   2.382   5.086
  200WAT    HW1  599   1.602   2.427   5.148
  200WAT    HW2  600   1.457   2.392   5.122
  201WAT     OW  601   1.990   0.405   1.299
  201WAT    HW1  602   2.016   0.362   1.217
  201WAT    HW2  603   2.051   0.370   1.364
  202WAT     OW  604   2.053   6.515   4.783
  202WAT    HW1  605   2.004   6.593   4.756
  202WAT    HW2  606   1.999   6.475   4.851
  203WAT     OW  607   4.087   2.686   5.579
  203WAT    HW1  608   4.015   2.708   5.521
  203WAT    HW2  609   4.047   2.674   5.665
  204WAT     OW  610   5.750   2.375   0.963
  204WAT    HW1  611   5.844   2.363   0.976
  204WAT    HW2  612   5.727   2.316   0.892
  205WAT     OW  613   4.563   4.895   4.734
  205WAT    HW1  614   4.561   4.967   4.671
  205WAT    HW2  615   4.475   4.857   4.730
  206WAT     OW  616   1.654   3.593   6.592
  206WAT    HW1  617   1.569   3.554   6.614
  206WAT    HW2  618   1.718   3.541   6.641
  207WAT     OW  619   3.109   3.406   6.068
  207WAT    HW1  620   3.162   3.342   6.116
  207WAT    HW2  621   3.018   3.383   6.088
  208WAT     OW  622   0.134   4.531   6.342
  208WAT    HW1  623   0.119   4.441   6.317
  208WAT    HW2  624   0.057   4.556   6.393
  209WAT     OW  625   1.283   4.581   4.078
  209WAT    HW1  626   1.210   4.585   4.140
  209WAT    HW2  627   1.361   4.598   4.131
  210WAT     OW  628   2.722   1.020   2.205
  210WAT    HW1  629   2.777   0.976   2.270
  210WAT    HW2  630   2.733   1.114   2.224
  211WAT     OW  631   1.102   5.235   6.301
  211WAT    HW1  632   1.127   5.152   6.261
  211WAT    HW2  633   1.153   5.301   6.254
  212WAT     OW  634   1.751   6.563   4.556
  212WAT    HW1  635   1.666   6.585   4.517
  212WAT    HW2  636   1.735   6.483   4.605
  213WAT     OW  637   1.618   3.244   1.039
  213WAT    HW1  638   1.575   3.323   1.071
  213WAT    HW2  639   1.704   3.273   1.009
  214WAT     OW  640   6.473   4.412   4.501
  214WAT    HW1  641   6.394   4.461   4.524
  214WAT    HW2  642   6.444   4.321   4.495
  215WAT     OW  643   0.610   4.725   3.148
  215WAT    HW1  644   0.690   4.706   3.098
  215WAT    HW2  645   0.642   4.750   3.235
  216WAT     OW  646   3.012   2.128   2.475
  216WAT    HW1  647   2.993   2.103   2.385
  216WAT    HW2  648   3.073   2.201   2.467
  217WAT     OW  649   2.598   2.645   1.195
  217WAT    HW1  650   2.633   2.582   1.132
  217WAT    HW2  651   2.515   2.673   1.158
  218WAT     OW  652   4.949   6.236   5.524
  218WAT    HW1  653   4.988   6.248   5.438
  218WAT    HW2  654   5.017   6.262   5.586
  219WAT     OW  655   6.416   5.611   1.404
  219WAT    HW1  656   6.349   5.643   1.344
  219WAT    HW2  657   6.459   5.540   1.357
  220WAT     OW  658   5.033   2.150   0.954
  220WAT    HW1  659   4.991   2.215   0.897
  220WAT    HW2  660   5.093   2.201   1.009
  221WAT     OW  661   1.211   0.905   0.317
  221WAT    HW1  662   1.118   0.898   0.336
  221WAT    HW2  663   1.215   0.916   0.222
  222WAT     OW  664   1.450   1.564   3.614
  222WAT    HW1  665   1.475   1.472   3.623
  222WAT    HW2  666   1.406   1.585   3.697
  223WAT     OW  667   6.300   4.508   3.195
  223WAT    HW1  668   6.226   4.447   3.183
  223WAT    HW2  669   6.262   4.582   3.243
  224WAT     OW  670   6.648   0.291   3.216
  224WAT    HW1  671   6.615   0.340   3.140
  224WAT    HW2  672   6.742   0.307   3.216
  225WAT     OW  673   2.751   3.823   1.419
  225WAT    HW1  674   2.812   3.751   1.409
  225WAT    HW2  675   2.794   3.883   1.480
  226WAT     OW  676   4.323   1.505   1.377
  226WAT    HW1  677   4.257   1.493   1.309
  226WAT    HW2  678   4.359   1.417   1.391
  227WAT     OW  679   3.602   5.596   0.891
  227WAT    HW1  680   3.536   5.665   0.899
  227WAT    HW2  681   3.662   5.612   0.963
  228WAT     OW  682   1.050   1.931   2.657
  228WAT    HW1  683   1.050   1.872   2.582
  228WAT    HW2  684   0.958   1.942   2.680
  229WAT     OW  685   4.550   4.183   5.842
  229WAT    HW1  686   4.541   4.270   5.803
  229WAT    HW2  687   4.479   4.132   5.803
  230WAT     OW  688   3.791   0.967   3.974
  230WAT    HW1  689   3.841   0.908   3.918
  230WAT    HW2  690   3.853   1.034   4.000
  231WAT     OW  691   0.159   6.038   4.388
  231WAT    HW1  692   0.248   6.042   4.353
  231WAT    HW2  693   0.139   6.129   4.412
  232WAT     OW  694   5.363   5.905   0.334
  232WAT    HW1  695   5.404   5.883   0.251
  232WAT    HW2  696   5.396   5.839   0.395
  233WAT     OW  697   1.583   6.652   3.010
  233WAT    HW1  698   1.585   6.640   3.105
  233WAT    HW2  699   1.545   6.738   2.997
  234WAT     OW  700   3.765   3.895   4.867
  234WAT    HW1  701   3.772   3.928   4.778
  234WAT    HW2  702   3.818   3.955   4.920
  235WAT     OW  703   5.970   0.710   2.040
  235WAT    HW1  704   5.914   0.636   2.062
  235WAT    HW2  705   5.951   0.776   2.107
  236WAT     OW  706   6.217   0.186   2.562
  236WAT    HW1  707   6.165   0.203   2.640
  236WAT    HW2  708   6.166   0.122   2.512
  237WAT     OW  709   4.452   6.607   6.553
  237WAT    HW1  710   4.494   6.522   6.542
  237WAT    HW2  711   4.359   6.587   6.566
  238WAT     OW  712   3.658   5.046   2.802
  238WAT    HW1  713   3.582   5.102   2.820
  238WAT    HW2  714   3.623   4.957   2.804
  239WAT     OW  715   6.378   3.346   2.106
  239WAT    HW1  716   6.375   3.260   2.147
  239WAT    HW2  717   6.316   3.340   2.033
  240WAT     OW  718   2.236   2.931   6.401
  240WAT    HW1  719   2.142   2.940   6.412
  240WAT    HW2  720   2.267   2.891   6.482
  241WAT     OW  721   4.626   3.854   2.457
  241WAT    HW1  722   4.659   3.829   2.371
  241WAT    HW2  723   4.615   3.949   2.453
  242WAT     OW  724   4.830   3.643   0.106
  242WAT    HW1  725   4.870   3.709   0.048
  242WAT    HW2  726   4.741   3.676   0.121
  243WAT     OW  727   0.421   0.737   6.297
  243WAT    HW1  728   0.426   0.692   6.212
  243WAT    HW2  729   0.498   0.793   6.299
  244WAT     OW  730   1.976   3.764   4.343
  244WAT    HW1  731   1.998   3.734   4.431
  244WAT    HW2  732   2.059   3.797   4.308
  245WAT     OW  733   3.852   5.231   2.887
  245WAT    HW1  734   3.930   5.178   2.906
  245WAT    HW2  735   3.785   5.167   2.863
  246WAT     OW  736   1.439   3.622   0.129
  246WAT    HW1  737   1.410   3.574   0.052
  246WAT    HW2  738   1.362   3.623   0.187
  247WAT     OW  739   0.720   5.063   3.099
  247WAT    HW1  740   0.770   5.107   3.169
  247WAT    HW2  741   0.784   5.005   3.057
  248WAT     OW  742   6.259   3.929   1.720
  248WAT    HW1  743   6.258   3.988   1.795
  248WAT    HW2  744   6.249   3.842   1.759
  249WAT     OW  745   2.873   2.480   6.384
  249WAT    HW1  746   2.873   2.573   6.406
  249WAT    HW2  747   2.869   2.478   6.288
  250WAT     OW  748   5.132   5.189   2.958
  250WAT    HW1  749   5.122   5.280   2.933
  250WAT    HW2  750   5.201   5.189   3.024
  251WAT     OW  751   5.528   0.579   0.153
  251WAT    HW1  752   5.496   0.520   0.222
  251WAT    HW2  753   5.612   0.541   0.127
  252WAT     OW  754   1.692   2.246   0.839
  252WAT    HW1  755   1.759   2.313   0.846
  252WAT    HW2  756   1.639   2.273   0.763
  253WAT     OW  757   6.306   1.772   5.234
  253WAT    HW1  758   6.317   1.854   5.186
  253WAT    HW2  759   6.367   1.711   5.192
  254WAT     OW  760   4.429   0.785   1.241
  254WAT    HW1  761   4.436   0.739   1.325
  254WAT    HW2  762   4.378   0.863   1.261
  255WAT     OW  763   2.072   3.095   6.636
  255WAT    HW1  764   2.035   3.032   6.574
  255WAT    HW2  765   2.117   3.041   6.701
  256WAT     OW  766   1.633   2.003   3.912
  256WAT    HW1  767   1.620   1.974   3.822
  256WAT    HW2  768   1.679   1.931   3.954
  257WAT     OW  769   2.600   2.819   5.842
  257WAT    HW1  770   2.654   2.764   5.898
  257WAT    HW2  771   2.656   2.838   5.766
  258WAT     OW  772   3.358   1.122   3.485
  258WAT    HW1  773   3.440   1.149   3.443
  258WAT    HW2  774   3.329   1.046   3.433
  259WAT     OW  775   3.476   1.268   5.699
  259WAT    HW1  776   3.425   1.226   5.769
  259WAT    HW2  777   3.523   1.338   5.743
  260WAT     OW  778   6.088   0.879   0.603
  260WAT    HW1  779   5.995   0.856   0.612
  260WAT    HW2  780   6.100   0.895   0.509
  261WAT     OW  781   4.557   1.657   1.592
  261WAT    HW1  782   4.533   1.613   1.511
  261WAT    HW2  783   4.611   1.732   1.564
  262WAT     OW  784   4.710   4.585   6.371
  262WAT    HW1  785   4.800   4.563   6.398
  262WAT    HW2  786   4.660   4.505   6.387
  263WAT     OW  787   1.398   5.631   0.938
  263WAT    HW1  788   1.341   5.666   0.869
  263WAT    HW2  789   1.486   5.658   0.911
  264WAT     OW  790   4.974   0.704   4.578
  264WAT    HW1  791   4.994   0.790   4.542
  264WAT    HW2  792   4.891   0.679   4.537
  265WAT     OW  793   4.960   1.737   4.383
  265WAT    HW1  794   4.976   1.655   4.337
  265WAT    HW2  795   4.921   1.710   4.466
  266WAT     OW  796   1.177   4.683   0.662
  266WAT    HW1  797   1.207   4.632   0.737
  266WAT    HW2  798   1.256   4.729   0.632
  267WAT     OW  799   6.008   2.428   1.515
  267WAT    HW1  800   5.976   2.398   1.600
  267WAT    HW2  801   5.980   2.360   1.454
  268WAT     OW  802   1.680   3.736   4.756
  268WAT    HW1  803   1.631   3.666   4.713
  268WAT    HW2  804   1.744   3.690   4.811
  269WAT     OW  805   4.900   4.048   0.279
  269WAT    HW1  806   4.960   4.092   0.338
  269WAT    HW2  807   4.859   4.119   0.229
  270WAT     OW  808   1.317   6.295   4.048
  270WAT    HW1  809   1.355   6.319   3.964
  270WAT    HW2  810   1.331   6.372   4.103
  271WAT     OW  811   1.879   1.540   6.277
  271WAT    HW1  812   1.970   1.513   6.277
  271WAT    HW2  813   1.831   1.463   6.307
  272WAT     OW  814   0.296   6.039   5.199
  272WAT    HW1  815   0.250   6.051   5.282
  272WAT    HW2  816   0.284   5.946   5.178
  273WAT     OW  817   5.458   4.839   4.095
  273WAT    HW1  818   5.479   4.911   4.156
  273WAT    HW2  819   5.370   4.861   4.062
  274WAT     OW  820   1.181   1.293   0.289
  274WAT    HW1  821   1.130   1.249   0.357
  274WAT    HW2  822   1.272   1.279   0.315
  275WAT     OW  823   4.999   5.607   4.021
  275WAT    HW1  824   4.929   5.604   3.955
  275WAT    HW2  825   4.956   5.642   4.099
  276WAT     OW  826   5.398   5.181   5.887
  276WAT    HW1  827   5.338   5.136   5.947
  276WAT    HW2  828   5.466   5.116   5.868
  277WAT     OW  829   3.819   5.877   5.392
  277WAT    HW1  830   3.830   5.844   5.481
  277WAT    HW2  831   3.898   5.850   5.346
  278WAT     OW  832   4.372   1.385   5.703
  278WAT    HW1  833   4.279   1.407   5.708
  278WAT    HW2  834   4.379   1.327   5.628
  279WAT     OW  835   0.188   0.331   3.218
  279WAT    HW1  836   0.208   0.379   3.137
  279WAT    HW2  837   0.259   0.267   3.225
  280WAT     OW  838   4.444   5.431   0.550
  280WAT    HW1  839   4.454   5.431   0.645
  280WAT    HW2  840   4.367   5.486   0.534
  281WAT     OW  841   5.139   0.615   1.435
  281WAT    HW1  842   5.063   0.634   1.491
  281WAT    HW2  843   5.134   0.681   1.365
  282WAT     OW  844   4.702   0.203   4.095
  282WAT    HW1  845   4.766   0.134   4.114
  282WAT    HW2  846   4.744   0.284   4.122
  283WAT     OW  847   6.112   1.419   1.418
  283WAT    HW1  848   6.171   1.351   1.386
  283WAT    HW2  849   6.123   1.418   1.513
  284WAT     OW  850   1.051   1.489   6.356
  284WAT    HW1  851   0.959   1.497   6.331
  284WAT    HW2  852   1.090   1.572   6.330
  285WAT     OW  853   3.408   3.613   0.611
  285WAT    HW1  854   3.497   3.588   0.586
  285WAT    HW2  855   3.417   3.701   0.648
  286WAT     OW  856   6.140   5.592   0.697
  286WAT    HW1  857   6.196   5.564   0.624
  286WAT    HW2  858   6.137   5.516   0.755
  287WAT     OW  859   0.694   4.787   3.410
  287WAT    HW1  860   0.684   4.692   3.418
  287WAT    HW2  861   0.776   4.806   3.456
  288WAT     OW  862   4.624   5.623   3.183
  288WAT    HW1  863   4.676   5.700   3.206
  288WAT    HW2  864   4.612   5.577   3.266
  289WAT     OW  865   1.561   1.752   4.411
  289WAT    HW1  866   1.532   1.683   4.470
  289WAT    HW2  867   1.609   1.706   4.342
  290WAT     OW  868   2.060   3.665   4.589
  290WAT    HW1  869   2.068   3.722   4.666
  290WAT    HW2  870   2.126   3.598   4.602
  291WAT     OW  871   4.120   2.589   6.550
  291WAT    HW1  872   4.182   2.586   6.622
  291WAT    HW2  873   4.156   2.530   6.484
  292WAT     OW  874   0.513   6.606   0.107
  292WAT    HW1  875   0.608   6.594   0.107
  292WAT    HW2  876   0.486   6.580   0.195
  293WAT     OW  877   3.820   3.082   4.869
  293WAT    HW1  878   3.856   3.081   4.780
  293WAT    HW2  879   3.782   2.995   4.881
  294WAT     OW  880   3.422   5.638   3.334
  294WAT    HW1  881   3.511   5.604   3.343
  294WAT    HW2  882   3.367   5.560   3.325
  295WAT     OW  883   3.785   3.705   4.010
  295WAT    HW1  884   3.880   3.717   4.008
  295WAT    HW2  885   3.772   3.615   3.980
  296WAT     OW  886   2.657   5.740   2.516
  296WAT    HW1  887   2.699   5.686   2.449
  296WAT    HW2  888   2.725   5.801   2.544
  297WAT     OW  889   3.651   5.206   4.413
  297WAT    HW1  890   3.582   5.179   4.474
  297WAT    HW2  891   3.694   5.124   4.389
  298WAT     OW  892   3.888   5.439   0.603
  298WAT    HW1  893   3.810   5.492   0.617
  298WAT    HW2  894   3.931   5.436   0.689
  299WAT     OW  895   6.494   3.567   5.424
  299WAT    HW1  896   6.469   3.530   5.509
  299WAT    HW2  897   6.589   3.576   5.430
  300WAT     OW  898   2.056   2.109   3.706
  300WAT    HW1  899   2.051   2.103   3.802
  300WAT    HW2  900   2.042   2.201   3.687
  301WAT     OW  901   2.540   0.145   1.998
  301WAT    HW1  902   2.462   0.094   2.021
  301WAT    HW2  903   2.613   0.091   2.028
  302WAT     OW  904   1.024   1.946   1.252
  302WAT    HW1  905   1.118   1.961   1.244
  302WAT    HW2  906   1.013   1.905   1.338
  303WAT     OW  907   2.205   2.499   2.018
  303WAT    HW1  908   2.110   2.487   2.025
  303WAT    HW2  909   2.230   2.446   1.942
  304WAT     OW  910   6.337   6.694   4.054
  304WAT    HW1  911   6.249   6.719   4.025
  304WAT    HW2  912   6.349   6.605   4.021
  305WAT     OW  913   2.544   4.002   5.427
  305WAT    HW1  914   2.588   4.033   5.506
  305WAT    HW2  915   2.521   3.911   5.447
  306WAT     OW  916   6.200   2.994   3.928
  306WAT    HW1  917   6.149   3.073   3.911
  306WAT    HW2  918   6.269   2.995   3.861
  307WAT     OW  919   1.265   0.439   3.102
  307WAT    HW1  920   1.191   0.380   3.090
  307WAT    HW2  921   1.225   0.525   3.117
  308WAT     OW  922   6.235   6.394   4.364
  308WAT    HW1  923   6.246   6.430   4.452
  308WAT    HW2  924   6.141   6.382   4.354
  309WAT     OW  925   3.434   4.843   5.754
  309WAT    HW1  926   3.456   4.936   5.742
  309WAT    HW2  927   3.508   4.807   5.802
  310WAT     OW  928   6.143   3.401   4.300
  310WAT    HW1  929   6.069   3.461   4.307
  310WAT    HW2  930   6.190   3.412   4.383
  311WAT     OW  931   4.203   5.295   3.355
  311WAT    HW1  932   4.193   5.304   3.261
  311WAT    HW2  933   4.222   5.383   3.386
  312WAT     OW  934   3.094   1.805   3.207
  312WAT    HW1  935   3.111   1.744   3.278
  312WAT    HW2  936   3.011   1.776   3.170
  313WAT     OW  937   4.613   0.242   2.754
  313WAT    HW1  938   4.589   0.151   2.770
  313WAT    HW2  939   4.695   0.237   2.705
  314WAT     OW  940   0.547   1.492   0.079
  314WAT    HW1  941   0.632   1.449   0.077
  314WAT    HW2  942   0.559   1.566   0.139
  315WAT     OW  943   3.395   6.079   2.276
  315WAT    HW1  944   3.340   6.043   2.206
  315WAT    HW2  945   3.336   6.089   2.351
  316WAT     OW  946   2.501   5.325   1.150
  316WAT    HW1  947   2.589   5.294   1.127
  316WAT    HW2  948   2.454   5.326   1.067
  317WAT     OW  949   2.525   3.101   0.004
  317WAT    HW1  950   2.512   3.164   0.074
  317WAT    HW2  951   2.491   3.018   0.038
  318WAT     OW  952   0.367   0.353   6.481
  318WAT    HW1  953   0.370   0.447   6.501
  318WAT    HW2  954   0.275   0.335   6.463
  319WAT     OW  955   1.423   3.677   2.479
  319WAT    HW1  956   1.470   3.627   2.545
  319WAT    HW2  957   1.331   3.649   2.489
  320WAT     OW  958   1.522   2.371   6.524
  320WAT    HW1  959   1.569   2.349   6.604
  320WAT    HW2  960   1.459   2.437   6.549
  321WAT     OW  961   4.732   0.652   6.144
  321WAT    HW1  962   4.804   0.698   6.187
  321WAT    HW2  963   4.723   0.696   6.060
  322WAT     OW  964   0.705   1.262   6.269
  322WAT    HW1  965   0.733   1.353   6.281
  322WAT    HW2  966   0.782   1.218   6.233
  323WAT     OW  967   5.394   3.058   4.347
  323WAT    HW1  968   5.424   2.992   4.410
  323WAT    HW2  969   5.441   3.036   4.266
  324WAT     OW  970   4.712   2.897   0.186
  324WAT    HW1  971   4.726   2.804   0.167
  324WAT    HW2  972   4.792   2.940   0.158
  325WAT     OW  973   3.830   0.659   2.595
  325WAT    HW1  974   3.812   0.679   2.503
  325WAT    HW2  975   3.756   0.697   2.643
  326WAT     OW  976   3.625   3.115   2.975
  326WAT    HW1  977   3.572   3.190   3.003
  326WAT    HW2  978   3.561   3.047   2.954
  327WAT     OW  979   3.626   1.507   2.741
  327WAT    HW1  980   3.595   1.557   2.816
  327WAT    HW2  981   3.574   1.538   2.667
  328WAT     OW  982   4.448   6.390   3.959
  328WAT    HW1  983   4.461   6.461   4.021
  328WAT    HW2  984   4.388   6.425   3.893
  329WAT     OW  985   5.730   6.126   4.323
  329WAT    HW1  986   5.703   6.210   4.361
  329WAT    HW2  987   5.752   6.146   4.232
  330WAT     OW  988   1.063   4.561   4.250
  330WAT    HW1  989   1.011   4.613   4.189
  330WAT    HW2  990   1.013   4.564   4.332
  331WAT     OW  991   3.628   4.468   1.527
  331WAT    HW1  992   3.674   4.435   1.450
  331WAT    HW2  993   3.568   4.397   1.551
  332WAT     OW  994   2.306   0.974   5.192
  332WAT    HW1  995   2.233   0.981   5.254
  332WAT    HW2  996   2.345   1.061   5.190
  333WAT     OW  997   2.844   3.082   0.812
  333WAT    HW1  998   2.777   3.125   0.865
  333WAT    HW2  999   2.831   2.988   0.826
  334WAT     OW 1000   2.581   5.895   3.474
  334WAT    HW1 1001   2.501   5.891   3.527
  334WAT    HW2 1002   2.574   5.821   3.415
  335WAT     OW 1003   5.733   0.875   4.478
  335WAT    HW1 1004   5.717   0.927   4.557
  335WAT    HW2 1005   5.821   0.900   4.450
  336WAT     OW 1006   1.048   2.136   6.478
  336WAT    HW1 1007   1.032   2.042   6.478
  336WAT    HW2 1008   0.963   2.175   6.454
  337WAT     OW 1009   2.421   5.522   1.458
  337WAT    HW1 1010   2.399   5.433   1.429
  337WAT    HW2 1011   2.351   5.545   1.519
  338WAT     OW 1012   0.339   3.291   2.655
  338WAT    HW1 1013   0.268   3.234   2.626
  338WAT    HW2 1014   0.297   3.358   2.708
  339WAT     OW 1015   3.505   4.563   5.115
  339WAT    HW1 1016   3.496   4.550   5.209
  339WAT    HW2 1017   3.591   4.604   5.104
  340WAT     OW 1018   4.010   5.115   5.613
  340WAT    HW1 1019   4.073   5.119   5.685
  340WAT    HW2 1020   4.064   5.130   5.535
  341WAT     OW 1021   1.722   2.084   4.860
  341WAT    HW1 1022   1.691   2.145   4.793
  341WAT    HW2 1023   1.659   2.012   4.858
  342WAT     OW 1024   5.986   5.154   4.418
  342WAT    HW1 1025   6.058   5.129   4.476
  342WAT    HW2 1026   5.927   5.206   4.473
  343WAT     OW 1027   0.563   6.281   4.597
  343WAT    HW1 1028   0.474   6.281   4.633
  343WAT    HW2 1029   0.598   6.195   4.621
  344WAT     OW 1030   0.078   1.550   4.815
  344WAT    HW1 1031   0.115   1.476   4.862
  344WAT    HW2 1032   0.146   1.576   4.754
  345WAT     OW 1033   0.603   5.590   2.787
  345WAT    HW1 1034   0.572   5.622   2.871
  345WAT    HW2 1035   0.691   5.627   2.778
  346WAT     OW 1036   1.513   3.718   6.042
  346WAT    HW1 1037   1.572   3.680   6.107
  346WAT    HW2 1038   1.471   3.642   6.000
  347WAT     OW 1039   3.349   0.115   4.448
  347WAT    HW1 1040   3.410   0.104   4.375
  347WAT    HW2 1041   3.362   0.206   4.476
  348WAT     OW 1042   3.572   3.416   3.528
  348WAT    HW1 1043   3.487   3.438   3.490
  348WAT    HW2 1044   3.554   3.406   3.622
  349WAT     OW 1045   3.313   1.878   4.134
  349WAT    HW1 1046   3.376   1.856   4.065
  349WAT    HW2 1047   3.248   1.807   4.131
  350WAT     OW 1048   1.711   4.581   2.781
  350WAT    HW1 1049   1.689   4.615   2.867
  350WAT    HW2 1050   1.658   4.633   2.720
  351WAT     OW 1051   2.403   1.458   1.470
  351WAT    HW1 1052   2.329   1.427   1.522
  351WAT    HW2 1053   2.451   1.379   1.447
  352WAT     OW 1054   0.624   2.346   3.405
  352WAT    HW1 1055   0.546   2.400   3.421
  352WAT    HW2 1056   0.589   2.262   3.376
  353WAT     OW 1057   4.697   0.732   1.478
  353WAT    HW1 1058   4.615   0.683   1.470
  353WAT    HW2 1059   4.675   0.807   1.532
  354WAT     OW 1060   3.792   1.343   4.204
  354WAT    HW1 1061   3.863   1.380   4.257
  354WAT    HW2 1062   3.836   1.288   4.140
  355WAT     OW 1063   4.355   6.029   3.456
  355WAT    HW1 1064   4.425   6.089   3.429
  355WAT    HW2 1065   4.300   6.020   3.378
  356WAT     OW 1066   5.162   0.757   3.683
  356WAT    HW1 1067   5.213   0.826   3.725
  356WAT    HW2 1068   5.133   0.796   3.600
  357WAT     OW 1069   2.105   6.155   4.919
  357WAT    HW1 1070   2.105   6.077   4.974
  357WAT    HW2 1071   2.134   6.226   4.976
  358WAT     OW 1072   5.790   5.587   1.796
  358WAT    HW1 1073   5.699   5.601   1.819
  358WAT    HW2 1074   5.834   5.577   1.881
  359WAT     OW 1075   2.209   3.470   4.956
  359WAT    HW1 1076   2.167   3.535   5.012
  359WAT    HW2 1077   2.267   3.422   5.015
  360WAT     OW 1078   6.309   6.268   1.316
  360WAT    HW1 1079   6.308   6.225   1.402
  360WAT    HW2 1080   6.335   6.358   1.335
  361WAT     OW 1081   4.445   4.201   2.730
  361WAT    HW1 1082   4.511   4.208   2.799
  361WAT    HW2 1083   4.394   4.123   2.754
  362WAT     OW 1084   6.023   0.586   2.995
  362WAT    HW1 1085   6.037   0.545   3.080
  362WAT    HW2 1086   5.982   0.670   3.016
  363WAT     OW 1087   5.312   2.988   4.996
  363WAT    HW1 1088   5.370   3.024   5.063
  363WAT    HW2 1089   5.271   2.912   5.036
  364WAT     OW 1090   5.692   6.360   1.386
  364WAT    HW1 1091   5.726   6.427   1.327
  364WAT    HW2 1092   5.714   6.392   1.473
  365WAT     OW 1093   4.212   2.526   4.216
  365WAT    HW1 1094   4.164   2.472   4.278
  365WAT    HW2 1095   4.155   2.601   4.199
  366WAT     OW 1096   5.944   5.391   1.240
  366WAT    HW1 1097   5.960   5.386   1.146
  366WAT    HW2 1098   6.018   5.344   1.279
  367WAT     OW 1099   5.658   0.434   3.799
  367WAT    HW1 1100   5.612   0.451   3.717
  367WAT    HW2 1101   5.624   0.349   3.829
  368WAT     OW 1102   6.322   5.327   5.589
  368WAT    HW1 1103   6.303   5.281   5.507
  368WAT    HW2 1104   6.331   5.418   5.563
  369WAT     OW 1105   0.299   1.899   1.894
  369WAT    HW1 1106   0.287   1.857   1.979
  369WAT    HW2 1107   0.362   1.844   1.848
  370WAT     OW 1108   5.466   5.719   0.513
  370WAT    HW1 1109   5.477   5.751   0.603
  370WAT    HW2 1110   5.555   5.696   0.485
  371WAT     OW 1111   1.167   5.406   4.085
  371WAT    HW1 1112   1.218   5.331   4.056
  371WAT    HW2 1113   1.214   5.482   4.050
  372WAT     OW 1114   3.911   4.967   0.094
  372WAT    HW1 1115   3.905   4.877   0.127
  372WAT    HW2 1116   3.951   4.958   0.008
  373WAT     OW 1117   3.166   4.455   4.509
  373WAT    HW1 1118   3.076   4.486   4.496
  373WAT    HW2 1119   3.156   4.361   4.528
  374WAT     OW 1120   0.068   5.057   1.823
  374WAT    HW1 1121   0.134   5.005   1.778
  374WAT    HW2 1122  -0.015   5.031   1.783
  375WAT     OW 1123   0.477   6.600   4.583
  375WAT    HW1 1124   0.567   6.634   4.584
  375WAT    HW2 1125   0.468   6.556   4.668
  376WAT     OW 1126   0.600   4.809   5.925
  376WAT    HW1 1127   0.554   4.727   5.908
  376WAT    HW2 1128   0.535   4.877   5.909
  377WAT     OW 1129   0.001   2.520   2.339
  377WAT    HW1 1130   0.081   2.492   2.296
  377WAT    HW2 1131  -0.033   2.590   2.284
  378WAT     OW 1132   2.325   0.656   1.841
  378WAT    HW1 1133   2.250   0.596   1.834
  378WAT    HW2 1134   2.307   0.707   1.920
  379WAT     OW 1135   4.197   2.391   1.716
  379WAT    HW1 1136   4.102   2.382   1.709
  379WAT    HW2 1137   4.225   2.312   1.763
  380WAT     OW 1138   1.799   2.914   0.309
  380WAT    HW1 1139   1.803   3.010   0.300
  380WAT    HW2 1140   1.887   2.884   0.286
  381WAT     OW 1141   3.620   6.200   1.244
  381WAT    HW1 1142   3.711   6.179   1.222
  381WAT    HW2 1143   3.596   6.270   1.182
  382WAT     OW 1144   0.843   2.474   4.237
  382WAT    HW1 1145   0.818   2.485   4.328
  382WAT    HW2 1146   0.880   2.386   4.232
  383WAT     OW 1147   5.473   4.250   0.505
  383WAT    HW1 1148   5.549   4.242   0.564
  383WAT    HW2 1149   5.512   4.250   0.417
  384WAT     OW 1150   0.481   1.753   1.719
  384WAT    HW1 1151   0.540   1.828   1.725
  384WAT    HW2 1152   0.429   1.770   1.640
  385WAT     OW 1153   3.904   3.272   2.691
  385WAT    HW1 1154   3.848   3.349   2.684
  385WAT    HW2 1155   3.933   3.256   2.601
  386WAT     OW 1156   0.372   6.379   1.320
  386WAT    HW1 1157   0.460   6.369   1.356
  386WAT    HW2 1158   0.385   6.407   1.230
  387WAT     OW 1159   4.310   5.555   2.185
  387WAT    HW1 1160   4.327   5.599   2.102
  387WAT    HW2 1161   4.274   5.469   2.160
  388WAT     OW 1162   6.356   3.213   6.605
  388WAT    HW1 1163   6.442   3.193   6.639
  388WAT    HW2 1164   6.370   3.288   6.547
  389WAT     OW 1165   2.263   5.298   2.811
  389WAT    HW1 1166   2.288   5.351   2.735
  389WAT    HW2 1167   2.340   5.298   2.867
  390WAT     OW 1168   4.485   6.242   3.311
  390WAT    HW1 1169   4.477   6.295   3.390
  390WAT    HW2 1170   4.423   6.280   3.250
  391WAT     OW 1171   6.159   6.389   5.205
  391WAT    HW1 1172   6.201   6.459   5.156
  391WAT    HW2 1173   6.089   6.357   5.148
  392WAT     OW 1174   0.245   5.666   2.206
  392WAT    HW1 1175   0.286   5.616   2.276
  392WAT    HW2 1176   0.173   5.611   2.176
  393WAT     OW 1177   0.243   4.027   0.139
  393WAT    HW1 1178   0.158   4.006   0.178
  393WAT    HW2 1179   0.223   4.099   0.078
  394WAT     OW 1180   4.523   5.368   5.346
  394WAT    HW1 1181   4.530   5.274   5.328
  394WAT    HW2 1182   4.477   5.373   5.430
  395WAT     OW 1183   4.451   2.094   5.522
  395WAT    HW1 1184   4.439   2.023   5.584
  395WAT    HW2 1185   4.412   2.061   5.440
  396WAT     OW 1186   6.414   0.890   1.197
  396WAT    HW1 1187   6.469   0.848   1.263
  396WAT    HW2 1188   6.340   0.924   1.245
  397WAT     OW 1189   0.561   3.965   1.508
  397WAT    HW1 1190   0.502   3.918   1.448
  397WAT    HW2 1191   0.544   3.926   1.594
  398WAT     OW 1192   2.354   5.248   5.350
  398WAT    HW1 1193   2.427   5.202   5.391
  398WAT    HW2 1194   2.395   5.320   5.302
  399WAT     OW 1195   3.400   1.254   1.656
  399WAT    HW1 1196   3.463   1.228   1.724
  399WAT    HW2 1197   3.441   1.330   1.614
  400WAT     OW 1198   1.854   0.862   0.357
  400WAT    HW1 1199   1.905   0.869   0.277
  400WAT    HW2 1200   1.764   0.875   0.330
  401WAT     OW 1201   0.619   1.750   3.177
  401WAT    HW1 1202   0.658   1.738   3.264
  401WAT    HW2 1203   0.668   1.822   3.138
  402WAT     OW 1204   4.205   5.136   5.802
  402WAT    HW1 1205   4.224   5.229   5.815
  402WAT    HW2 1206   4.218   5.097   5.889
  403WAT     OW 1207   2.190   4.123   3.412
  403WAT    HW1 1208   2.245   4.049   3.438
  403WAT    HW2 1209   2.191   4.181   3.488
  404WAT     OW 1210   4.248   2.094   3.469
  404WAT    HW1 1211   4.168   2.043   3.483
  404WAT    HW2 1212   4.232   2.141   3.387
  405WAT     OW 1213   3.479   6.097   0.023
  405WAT    HW1 1214   3.517   6.048  -0.049
  405WAT    HW2 1215   3.405   6.144  -0.015
  406WAT     OW 1216   2.793   0.595   5.587
  406WAT    HW1 1217   2.705   0.596   5.549
  406WAT    HW2 1218   2.798   0.512   5.635
  407WAT     OW 1219   2.328   2.288   3.932
  407WAT    HW1 1220   2.358   2.351   3.865
  407WAT    HW2 1221   2.240   2.316   3.954
  408WAT     OW 1222   6.697   3.132   1.155
  408WAT    HW1 1223   6.694   3.093   1.242
  408WAT    HW2 1224   6.630   3.085   1.105
  409WAT     OW 1225   4.948   2.514   0.290
  409WAT    HW1 1226   4.911   2.530   0.377
  409WAT    HW2 1227   4.886   2.555   0.230
  410WAT     OW 1228   5.266   3.941   1.652
  410WAT    HW1 1229   5.187   3.886   1.652
  410WAT    HW2 1230   5.248   4.008   1.718
  411WAT     OW 1231   1.632   0.862   3.633
  411WAT    HW1 1232   1.667   0.779   3.668
  411WAT    HW2 1233   1.710   0.910   3.605
  412WAT     OW 1234   6.061   3.617   0.053
  412WAT    HW1 1235   6.096   3.581  -0.029
  412WAT    HW2 1236   6.018   3.699   0.026
  413WAT     OW 1237   5.690   5.509   0.810
  413WAT    HW1 1238   5.763   5.477   0.864
  413WAT    HW2 1239   5.729   5.579   0.757
  414WAT     OW 1240   3.326   3.603   6.710
  414WAT    HW1 1241   3.309   3.696   6.693
  414WAT    HW2 1242   3.246   3.559   6.681
  415WAT     OW 1243   4.205   5.514   6.674
  415WAT    HW1 1244   4.261   5.549   6.605
  415WAT    HW2 1245   4.254   5.441   6.712
  416WAT     OW 1246   0.016   2.838   3.040
  416WAT    HW1 1247  -0.053   2.884   2.992
  416WAT    HW2 1248   0.055   2.779   2.974
  417WAT     OW 1249   1.540   3.765   5.465
  417WAT    HW1 1250   1.493   3.731   5.541
  417WAT    HW2 1251   1.473   3.811   5.414
  418WAT     OW 1252   1.824   0.996   4.590
  418WAT    HW1 1253   1.743   0.989   4.541
  418WAT    HW2 1254   1.841   1.091   4.595
  419WAT     OW 1255   0.820   4.660   1.512
  419WAT    HW1 1256   0.843   4.600   1.582
  419WAT    HW2 1257   0.741   4.622   1.473
  420WAT     OW 1258   3.575   2.382   4.567
  420WAT    HW1 1259   3.502   2.344   4.519
  420WAT    HW2 1260   3.642   2.314   4.568
  421WAT     OW 1261   6.186   0.198   3.294
  421WAT    HW1 1262   6.153   0.281   3.259
  421WAT    HW2 1263   6.125   0.176   3.365
  422WAT     OW 1264   0.925   5.708   5.510
  422WAT    HW1 1265   0.829   5.700   5.511
  422WAT    HW2 1266   0.952   5.688   5.600
  423WAT     OW 1267   0.071   2.811   0.495
  423WAT    HW1 1268   0.117   2.879   0.446
  423WAT    HW2 1269  -0.022   2.834   0.487
  424WAT     OW 1270   0.179   0.232   0.694
  424WAT    HW1 1271   0.187   0.239   0.599
  424WAT    HW2 1272   0.084   0.225   0.710
  425WAT     OW 1273   4.790   6.465   4.942
  425WAT    HW1 1274   4.711   6.448   4.891
  425WAT    HW2 1275   4.762   6.526   5.011
  426WAT     OW 1276   0.384   5.090   4.515
  426WAT    HW1 1277   0.377   5.098   4.419
  426WAT    HW2 1278   0.293   5.094   4.545
  427WAT     OW 1279   2.588   2.018   5.928
  427WAT    HW1 1280   2.605   2.047   5.838
  427WAT    HW2 1281   2.531   1.942   5.918
  428WAT     OW 1282   5.491   4.143   3.139
  428WAT    HW1 1283   5.419   4.081   3.149
  428WAT    HW2 1284   5.554   4.117   3.206
  429WAT     OW 1285   1.465   0.371   3.277
  429WAT    HW1 1286   1.415   0.392   3.355
  429WAT    HW2 1287   1.404   0.387   3.205
  430WAT     OW 1288   5.740   2.748   4.545
  430WAT    HW1 1289   5.718   2.666   4.499
  430WAT    HW2 1290   5.786   2.719   4.624
  431WAT     OW 1291   6.183   3.238   5.506
  431WAT    HW1 1292   6.250   3.264   5.443
  431WAT    HW2 1293   6.100   3.257   5.462
  432WAT     OW 1294   2.766   5.082   1.300
  432WAT    HW1 1295   2.805   4.995   1.295
  432WAT    HW2 1296   2.824   5.131   1.357
  433WAT     OW 1297   0.856   4.899   6.307
  433WAT    HW1 1298   0.860   4.899   6.211
  433WAT    HW2 1299   0.780   4.844   6.327
  434WAT     OW 1300   1.126   3.516   2.006
  434WAT    HW1 1301   1.069   3.468   1.946
  434WAT    HW2 1302   1.178   3.574   1.950
  435WAT     OW 1303   5.379   1.260   4.545
  435WAT    HW1 1304   5.442   1.263   4.617
  435WAT    HW2 1305   5.385   1.347   4.504
  436WAT     OW 1306   4.410   5.058   0.822
  436WAT    HW1 1307   4.317   5.043   0.808
  436WAT    HW2 1308   4.415   5.110   0.902
  437WAT     OW 1309   6.065   5.964   5.736
  437WAT    HW1 1310   5.995   6.010   5.782
  437WAT    HW2 1311   6.034   5.955   5.646
  438WAT     OW 1312   4.367   5.670   3.088
  438WAT    HW1 1313   4.362   5.596   3.027
  438WAT    HW2 1314   4.455   5.665   3.124
  439WAT     OW 1315   3.791   3.493   4.632
  439WAT    HW1 1316   3.862   3.480   4.695
  439WAT    HW2 1317   3.739   3.564   4.669
  440WAT     OW 1318   1.027   3.455   6.139
  440WAT    HW1 1319   1.076   3.403   6.076
  440WAT    HW2 1320   1.093   3.507   6.184
  441WAT     OW 1321   5.988   5.284   2.837
  441WAT    HW1 1322   5.953   5.196   2.826
  441WAT    HW2 1323   6.006   5.314   2.748
  442WAT     OW 1324   2.311   5.038   4.449
  442WAT    HW1 1325   2.284   5.034   4.541
  442WAT    HW2 1326   2.405   5.055   4.452
  443WAT     OW 1327   5.127   2.095   5.277
  443WAT    HW1 1328   5.158   2.011   5.310
  443WAT    HW2 1329   5.123   2.084   5.182
  444WAT     OW 1330   5.253   5.225   4.362
  444WAT    HW1 1331   5.279   5.175   4.440
  444WAT    HW2 1332   5.158   5.215   4.357
  445WAT     OW 1333   2.783   5.260   6.706
  445WAT    HW1 1334   2.775   5.353   6.686
  445WAT    HW2 1335   2.867   5.234   6.669
  446WAT     OW 1336   4.472   0.077   1.223
  446WAT    HW1 1337   4.538   0.139   1.251
  446WAT    HW2 1338   4.445   0.106   1.136
  447WAT     OW 1339   1.009   6.529   3.078
  447WAT    HW1 1340   1.096   6.492   3.064
  447WAT    HW2 1341   1.002   6.538   3.173
  448WAT     OW 1342   2.250   0.220   4.929
  448WAT    HW1 1343   2.200   0.205   4.849
  448WAT    HW2 1344   2.340   0.235   4.899
  449WAT     OW 1345   3.680   5.487   6.236
  449WAT    HW1 1346   3.724   5.493   6.321
  449WAT    HW2 1347   3.647   5.397   6.234
  450WAT     OW 1348   3.790   6.149   0.893
  450WAT    HW1 1349   3.708   6.105   0.914
  450WAT    HW2 1350   3.764   6.221   0.835
  451WAT     OW 1351   2.328   4.083   3.879
  451WAT    HW1 1352   2.349   4.029   3.955
  451WAT    HW2 1353   2.233   4.074   3.869
  452WAT     OW 1354   5.783   5.944   0.415
  452WAT    HW1 1355   5.747   5.856   0.403
  452WAT    HW2 1356   5.707   6.002   0.408
  453WAT     OW 1357   1.574   1.689   5.740
  453WAT    HW1 1358   1.577   1.599   5.773
  453WAT    HW2 1359   1.664   1.708   5.714
  454WAT     OW 1360   0.867   2.739   2.880
  454WAT    HW1 1361   0.959   2.742   2.855
  454WAT    HW2 1362   0.867   2.693   2.964
  455WAT     OW 1363   5.128   3.814   6.451
  455WAT    HW1 1364   5.207   3.868   6.458
  455WAT    HW2 1365   5.158   3.733   6.411
  456WAT     OW 1366   4.144   6.717   0.750
  456WAT    HW1 1367   4.180   6.658   0.816
  456WAT    HW2 1368   4.197   6.796   0.756
  457WAT     OW 1369   3.696   4.747   5.417
  457WAT    HW1 1370   3.758   4.820   5.424
  457WAT    HW2 1371   3.751   4.670   5.405
  458WAT     OW 1372   0.394   2.216   0.926
  458WAT    HW1 1373   0.406   2.227   1.020
  458WAT    HW2 1374   0.310   2.171   0.917
  459WAT     OW 1375   2.837   2.545   4.901
  459WAT    HW1 1376   2.870   2.549   4.811
  459WAT    HW2 1377   2.905   2.586   4.953
  460WAT     OW 1378   5.707   6.303   4.897
  460WAT    HW1 1379   5.684   6.215   4.867
  460WAT    HW2 1380   5.633   6.330   4.952
  461WAT     OW 1381   0.008   0.787   4.601
  461WAT    HW1 1382   0.029   0.798   4.508
  461WAT    HW2 1383  -0.088   0.794   4.604
  462WAT     OW 1384   1.536   2.249   2.324
  462WAT    HW1 1385   1.474   2.322   2.322
  462WAT    HW2 1386   1.596   2.271   2.396
  463WAT     OW 1387   3.784   5.196   2.000
  463WAT    HW1 1388   3.840   5.273   2.011
  463WAT    HW2 1389   3.709   5.229   1.949
  464WAT     OW 1390   4.871   3.696   4.043
  464WAT    HW1 1391   4.793   3.655   4.081
  464WAT    HW2 1392   4.858   3.690   3.948
  465WAT     OW 1393   0.306   0.732   3.882
  465WAT    HW1 1394   0.219   0.765   3.861
  465WAT    HW2 1395   0.290   0.651   3.930
  466WAT     OW 1396   3.779   5.886   6.719
  466WAT    HW1 1397   3.737   5.800   6.712
  466WAT    HW2 1398   3.872   5.869   6.704
  467WAT     OW 1399   1.785   4.515   6.510
  467WAT    HW1 1400   1.777   4.502   6.415
  467WAT    HW2 1401   1.742   4.438   6.547
  468WAT     OW 1402   5.883   4.163   5.246
  468WAT    HW1 1403   5.923   4.242   5.210
  468WAT    HW2 1404   5.957   4.104   5.262
  469WAT     OW 1405   1.648   0.570   3.985
  469WAT    HW1 1406   1.681   0.480   3.987
  469WAT    HW2 1407   1.726   0.624   3.993
  470WAT     OW 1408   3.435   3.266   4.114
  470WAT    HW1 1409   3.514   3.246   4.065
  470WAT    HW2 1410   3.428   3.197   4.180
  471WAT     OW 1411   1.825   0.797   4.776
  471WAT    HW1 1412   1.818   0.717   4.724
  471WAT    HW2 1413   1.822   0.867   4.711
  472WAT     OW 1414   1.586   1.436   5.849
  472WAT    HW1 1415   1.674   1.401   5.864
  472WAT    HW2 1416   1.548   1.444   5.937
  473WAT     OW 1417   2.305   0.302   5.704
  473WAT    HW1 1418   2.354   0.325   5.625
  473WAT    HW2 1419   2.310   0.206   5.708
  474WAT     OW 1420   4.059   2.249   3.953
  474WAT    HW1 1421   4.038   2.236   4.046
  474WAT    HW2 1422   4.103   2.168   3.928
  475WAT     OW 1423   2.488   3.181   5.515
  475WAT    HW1 1424   2.449   3.126   5.583
  475WAT    HW2 1425   2.540   3.245   5.563
  476WAT     OW 1426   3.030   5.568   3.338
  476WAT    HW1 1427   2.999   5.511   3.408
  476WAT    HW2 1428   3.043   5.653   3.380
  477WAT     OW 1429   1.786   4.308   3.516
  477WAT    HW1 1430   1.696   4.341   3.517
  477WAT    HW2 1431   1.802   4.286   3.424
  478WAT     OW 1432   1.427   2.030   2.454
  478WAT    HW1 1433   1.472   2.099   2.405
  478WAT    HW2 1434   1.339   2.064   2.467
  479WAT     OW 1435   3.328   3.427   2.789
  479WAT    HW1 1436   3.273   3.451   2.863
  479WAT    HW2 1437   3.390   3.500   2.781
  480WAT     OW 1438   3.101   1.694   4.158
  480WAT    HW1 1439   3.054   1.722   4.236
  480WAT    HW2 1440   3.096   1.599   4.159
  481WAT     OW 1441   5.183   3.519   2.267
  481WAT    HW1 1442   5.136   3.505   2.349
  481WAT    HW2 1443   5.127   3.480   2.200
  482WAT     OW 1444   5.161   1.025   2.326
  482WAT    HW1 1445   5.174   1.115   2.298
  482WAT    HW2 1446   5.164   1.029   2.422
  483WAT     OW 1447   5.682   6.582   0.338
  483WAT    HW1 1448   5.636   6.586   0.255
  483WAT    HW2 1449   5.765   6.538   0.318
  484WAT     OW 1450   3.002   4.480   5.515
  484WAT    HW1 1451   2.993   4.559   5.568
  484WAT    HW2 1452   3.088   4.445   5.539
  485WAT     OW 1453   2.668   0.054   1.261
  485WAT    HW1 1454   2.585   0.013   1.236
  485WAT    HW2 1455   2.714  -0.013   1.311
  486WAT     OW 1456   3.631   6.426   1.083
  486WAT    HW1 1457   3.575   6.497   1.052
  486WAT    HW2 1458   3.716   6.442   1.041
  487WAT     OW 1459   3.007   0.925   0.550
  487WAT    HW1 1460   2.916   0.953   0.535
  487WAT    HW2 1461   3.001   0.856   0.615
  488WAT     OW 1462   6.221   4.661   6.327
  488WAT    HW1 1463   6.258   4.690   6.243
  488WAT    HW2 1464   6.189   4.741   6.368
  489WAT     OW 1465   5.219   4.189   6.563
  489WAT    HW1 1466   5.234   4.176   6.657
  489WAT    HW2 1467   5.273   4.265   6.541
  490WAT     OW 1468   5.992   5.168   5.212
  490WAT    HW1 1469   5.993   5.255   5.173
  490WAT    HW2 1470   6.067   5.167   5.271
  491WAT     OW 1471   2.188   2.721   6.226
  491WAT    HW1 1472   2.094   2.733   6.212
  491WAT    HW2 1473   2.213   2.796   6.281
  492WAT     OW 1474   4.830   1.602   2.625
  492WAT    HW1 1475   4.762   1.643   2.571
  492WAT    HW2 1476   4.846   1.517   2.584
  493WAT     OW 1477   1.978   6.573   0.281
  493WAT    HW1 1478   2.006   6.483   0.262
  493WAT    HW2 1479   1.913   6.564   0.350
  494WAT     OW 1480   3.707   6.663   5.284
  494WAT    HW1 1481   3.793   6.626   5.299
  494WAT    HW2 1482   3.708   6.746   5.332
  495WAT     OW 1483   4.136   1.087   1.644
  495WAT    HW1 1484   4.150   1.038   1.725
  495WAT    HW2 1485   4.104   1.022   1.582
  496WAT     OW 1486   0.432   2.727   4.068
  496WAT    HW1 1487   0.511   2.679   4.044
  496WAT    HW2 1488   0.448   2.816   4.038
  497WAT     OW 1489   5.213   1.514   1.191
  497WAT    HW1 1490   5.286   1.568   1.222
  497WAT    HW2 1491   5.246   1.474   1.110
  498WAT     OW 1492   6.205   5.175   3.964
  498WAT    HW1 1493   6.232   5.094   3.921
  498WAT    HW2 1494   6.221   5.243   3.898
  499WAT     OW 1495   4.853   1.644   4.624
  499WAT    HW1 1496   4.770   1.596   4.632
  499WAT    HW2 1497   4.910   1.604   4.689
  500WAT     OW 1498   0.626   0.284   2.404
  500WAT    HW1 1499   0.542   0.297   2.447
  500WAT    HW2 1500   0.690   0.284   2.476
  501WAT     OW 1501   0.703   2.241   1.472
  501WAT    HW1 1502   0.778   2.229   1.414
  501WAT    HW2 1503   0.742   2.257   1.558
  502WAT     OW 1504   4.719   2.230   4.233
  502WAT    HW1 1505   4.664   2.155   4.253
  502WAT    HW2 1506   4.670   2.305   4.269
  503WAT     OW 1507   4.296   3.658   4.354
  503WAT    HW1 1508   4.326   3.748   4.344
  503WAT    HW2 1509   4.258   3.654   4.441
  504WAT     OW 1510   5.887   1.736   1.174
  504WAT    HW1 1511   5.957   1.797   1.150
  504WAT    HW2 1512   5.813   1.793   1.198
  505WAT     OW 1513   5.849   3.089   4.015
  505WAT    HW1 1514   5.783   3.155   4.035
  505WAT    HW2 1515   5.922   3.110   4.074
  506WAT     OW 1516   1.192   3.635   0.255
  506WAT    HW1 1517   1.162   3.725   0.250
  506WAT    HW2 1518   1.147   3.591   0.183
  507WAT     OW 1519   2.015   2.336   5.219
  507WAT    HW1 1520   1.971   2.273   5.161
  507WAT    HW2 1521   1.967   2.330   5.302
  508WAT     OW 1522   4.180   3.079   5.133
  508WAT    HW1 1523   4.267   3.103   5.163
  508WAT    HW2 1524   4.151   3.012   5.195
  509WAT     OW 1525   6.711   3.686   3.109
  509WAT    HW1 1526   6.726   3.592   3.114
  509WAT    HW2 1527   6.730   3.719   3.196
  510WAT     OW 1528   6.383   0.380   6.228
  510WAT    HW1 1529   6.291   0.393   6.207
  510WAT    HW2 1530   6.426   0.462   6.205
  511WAT     OW 1531   1.619   6.292   4.394
  511WAT    HW1 1532   1.698   6.281   4.447
  511WAT    HW2 1533   1.591   6.203   4.375
  512WAT     OW 1534   4.720   5.342   0.544
  512WAT    HW1 1535   4.773   5.413   0.578
  512WAT    HW2 1536   4.630   5.377   0.544
  513WAT     OW 1537   2.937   0.132   2.010
  513WAT    HW1 1538   2.871   0.068   2.038
  513WAT    HW2 1539   2.962   0.177   2.091
  514WAT     OW 1540   2.852   0.327   3.901
  514WAT    HW1 1541   2.847   0.380   3.822
  514WAT    HW2 1542   2.892   0.245   3.872
  515WAT     OW 1543   3.715   5.806   3.748
  515WAT    HW1 1544   3.798   5.831   3.707
  515WAT    HW2 1545   3.715   5.710   3.744
  516WAT     OW 1546   1.381   5.065   2.891
  516WAT    HW1 1547   1.333   4.989   2.859
  516WAT    HW2 1548   1.328   5.099   2.963
  517WAT     OW 1549   6.708   1.567   1.879
  517WAT    HW1 1550   6.715   1.651   1.925
  517WAT    HW2 1551   6.623   1.533   1.906
  518WAT     OW 1552   2.330   0.874   6.564
  518WAT    HW1 1553   2.334   0.784   6.533
  518WAT    HW2 1554   2.266   0.916   6.507
  519WAT     OW 1555   2.856   6.681   4.035
  519WAT    HW1 1556   2.926   6.665   3.972
  519WAT    HW2 1557   2.865   6.610   4.099
  520WAT     OW 1558   3.958   2.197   5.403
  520WAT    HW1 1559   4.016   2.145   5.459
  520WAT    HW2 1560   3.900   2.243   5.463
  521WAT     OW 1561   4.216   4.126   4.345
  521WAT    HW1 1562   4.184   4.176   4.271
  521WAT    HW2 1563   4.140   4.117   4.403
  522WAT     OW 1564   1.506   3.824   4.182
  522WAT    HW1 1565   1.468   3.884   4.118
  522WAT    HW2 1566   1.462   3.847   4.264
  523WAT     OW 1567   1.740   4.906   3.761
  523WAT    HW1 1568   1.683   4.848   3.810
  523WAT    HW2 1569   1.796   4.848   3.710
  524WAT     OW 1570   5.791   4.185   4.891
  524WAT    HW1 1571   5.873   4.136   4.901
  524WAT    HW2 1572   5.730   4.143   4.952
  525WAT     OW 1573   0.625   5.233   4.506
  525WAT    HW1 1574   0.679   5.178   4.561
  525WAT    HW2 1575   0.541   5.187   4.501
  526WAT     OW 1576   4.691   6.295   1.405
  526WAT    HW1 1577   4.627   6.345   1.456
  526WAT    HW2 1578   4.767   6.288   1.463
  527WAT     OW 1579   4.220   0.332   3.603
  527WAT    HW1 1580   4.269   0.302   3.679
  527WAT    HW2 1581   4.286   0.342   3.534
  528WAT     OW 1582   6.419   1.065   4.495
  528WAT    HW1 1583   6.435   1.066   4.401
  528WAT    HW2 1584   6.426   0.973   4.520
  529WAT     OW 1585   0.115   5.984   2.642
  529WAT    HW1 1586   0.042   5.951   2.591
  529WAT    HW2 1587   0.182   6.006   2.577
  530WAT     OW 1588   5.915   3.657   4.101
  530WAT    HW1 1589   5.896   3.619   4.187
  530WAT    HW2 1590   5.982   3.723   4.119
  531WAT     OW 1591   3.432   1.069   4.789
  531WAT    HW1 1592   3.388   1.073   4.704
  531WAT    HW2 1593   3.523   1.093   4.770
  532WAT     OW 1594   3.397   3.865   1.904
  532WAT    HW1 1595   3.456   3.790   1.896
  532WAT    HW2 1596   3.310   3.827   1.903
  533WAT     OW 1597   5.302   0.085   6.077
  533WAT    HW1 1598   5.268   0.172   6.097
  533WAT    HW2 1599   5.229   0.026   6.093
  534WAT     OW 1600   1.915   5.085   1.618
  534WAT    HW1 1601   1.854   5.156   1.637
  534WAT    HW2 1602   1.991   5.129   1.580
  535WAT     OW 1603   6.692   1.810   2.025
  535WAT    HW1 1604   6.702   1.905   2.037
  535WAT    HW2 1605   6.690   1.774   2.113
  536WAT     OW 1606   3.201   5.959   2.807
  536WAT    HW1 1607   3.210   6.051   2.830
  536WAT    HW2 1608   3.107   5.941   2.816
  537WAT     OW 1609   2.173   2.094   6.673
  537WAT    HW1 1610   2.201   2.029   6.737
  537WAT    HW2 1611   2.197   2.178   6.712
  538WAT     OW 1612   2.398   1.242   5.888
  538WAT    HW1 1613   2.467   1.211   5.947
  538WAT    HW2 1614   2.444   1.300   5.826
  539WAT     OW 1615   0.328   4.761   4.156
  539WAT    HW1 1616   0.282   4.822   4.214
  539WAT    HW2 1617   0.260   4.728   4.098
  540WAT     OW 1618   0.665   5.147   0.197
  540WAT    HW1 1619   0.738   5.121   0.140
  540WAT    HW2 1620   0.697   5.131   0.286
  541WAT     OW 1621   0.865   0.613   1.087
  541WAT    HW1 1622   0.883   0.528   1.127
  541WAT    HW2 1623   0.949   0.642   1.053
  542WAT     OW 1624   6.531   2.755   4.829
  542WAT    HW1 1625   6.487   2.670   4.828
  542WAT    HW2 1626   6.587   2.751   4.907
  543WAT     OW 1627   3.518   1.050   0.476
  543WAT    HW1 1628   3.522   0.986   0.405
  543WAT    HW2 1629   3.610   1.077   0.488
  544WAT     OW 1630   5.595   3.627   2.264
  544WAT    HW1 1631   5.664   3.665   2.209
  544WAT    HW2 1632   5.629   3.636   2.353
  545WAT     OW 1633   1.742   0.671   1.273
  545WAT    HW1 1634   1.726   0.739   1.339
  545WAT    HW2 1635   1.832   0.687   1.245
  546WAT     OW 1636   6.697   5.269   2.375
  546WAT    HW1 1637   6.635   5.331   2.414
  546WAT    HW2 1638   6.644   5.218   2.314
  547WAT     OW 1639   2.126   6.394   4.317
  547WAT    HW1 1640   2.208   6.408   4.366
  547WAT    HW2 1641   2.070   6.467   4.342
  548WAT     OW 1642   3.418   4.558   4.050
  548WAT    HW1 1643   3.360   4.548   4.125
  548WAT    HW2 1644   3.379   4.503   3.982
  549WAT     OW 1645   0.216   3.406   1.179
  549WAT    HW1 1646   0.179   3.361   1.255
  549WAT    HW2 1647   0.225   3.338   1.113
  550WAT     OW 1648   3.646   2.949   5.869
  550WAT    HW1 1649   3.734   2.972   5.840
  550WAT    HW2 1650   3.592   2.959   5.791
  551WAT     OW 1651   5.680   6.554   5.649
  551WAT    HW1 1652   5.672   6.579   5.741
  551WAT    HW2 1653   5.662   6.460   5.648
  552WAT     OW 1654   1.245   0.468   6.515
  552WAT    HW1 1655   1.249   0.400   6.449
  552WAT    HW2 1656   1.333   0.470   6.553
  553WAT     OW 1657   0.725   6.433   4.898
  553WAT    HW1 1658   0.635   6.464   4.886
  553WAT    HW2 1659   0.752   6.469   4.982
  554WAT     OW 1660   2.032   2.092   6.444
  554WAT    HW1 1661   2.091   2.093   6.520
  554WAT    HW2 1662   2.060   2.016   6.392
  555WAT     OW 1663   4.715   2.722   5.099
  555WAT    HW1 1664   4.737   2.674   5.019
  555WAT    HW2 1665   4.647   2.669   5.141
  556WAT     OW 1666   6.621   3.203   4.076
  556WAT    HW1 1667   6.544   3.150   4.096
  556WAT    HW2 1668   6.588   3.292   4.067
  557WAT     OW 1669   6.235   5.048   3.397
  557WAT    HW1 1670   6.231   5.014   3.308
  557WAT    HW2 1671   6.322   5.023   3.429
  558WAT     OW 1672   6.029   4.448   6.407
  558WAT    HW1 1673   5.999   4.447   6.316
  558WAT    HW2 1674   6.086   4.524   6.413
  559WAT     OW 1675   5.808   0.580   0.635
  559WAT    HW1 1676   5.806   0.672   0.609
  559WAT    HW2 1677   5.718   0.560   0.660
  560WAT     OW 1678   0.233   2.073   2.783
  560WAT    HW1 1679   0.197   1.984   2.777
  560WAT    HW2 1680   0.328   2.060   2.789
  561WAT     OW 1681   2.468   4.704   5.619
  561WAT    HW1 1682   2.553   4.683   5.657
  561WAT    HW2 1683   2.414   4.627   5.636
  562WAT     OW 1684   1.905   6.369   5.923
  562WAT    HW1 1685   1.906   6.354   6.017
  562WAT    HW2 1686   1.996   6.384   5.899
  563WAT     OW 1687   4.362   5.639   3.714
  563WAT    HW1 1688   4.422   5.596   3.776
  563WAT    HW2 1689   4.405   5.723   3.695
  564WAT     OW 1690   3.292   3.246   6.204
  564WAT    HW1 1691   3.338   3.184   6.147
  564WAT    HW2 1692   3.360   3.305   6.235
  565WAT     OW 1693   4.013   5.324   4.299
  565WAT    HW1 1694   3.955   5.361   4.365
  565WAT    HW2 1695   3.955   5.295   4.229
  566WAT     OW 1696   4.042   6.448   2.145
  566WAT    HW1 1697   3.959   6.469   2.187
  566WAT    HW2 1698   4.103   6.432   2.217
  567WAT     OW 1699   5.219   4.810   4.595
  567WAT    HW1 1700   5.158   4.847   4.531
  567WAT    HW2 1701   5.171   4.816   4.678
  568WAT     OW 1702   3.551   2.085   5.886
  568WAT    HW1 1703   3.639   2.112   5.858
  568WAT    HW2 1704   3.495   2.158   5.861
  569WAT     OW 1705   0.932   6.554   1.258
  569WAT    HW1 1706   0.907   6.621   1.195
  569WAT    HW2 1707   0.912   6.593   1.343
  570WAT     OW 1708   2.171   4.847   4.313
  570WAT    HW1 1709   2.114   4.813   4.382
  570WAT    HW2 1710   2.221   4.916   4.357
  571WAT     OW 1711   2.501   2.699   6.448
  571WAT    HW1 1712   2.498   2.704   6.352
  571WAT    HW2 1713   2.544   2.780   6.475
  572WAT     OW 1714   4.262   3.843   4.766
  572WAT    HW1 1715   4.210   3.923   4.759
  572WAT    HW2 1716   4.352   3.873   4.775
  573WAT     OW 1717   4.848   3.998   1.304
  573WAT    HW1 1718   4.826   4.057   1.232
  573WAT    HW2 1719   4.786   4.018   1.373
  574WAT     OW 1720   4.299   6.589   6.072
  574WAT    HW1 1721   4.274   6.635   6.151
  574WAT    HW2 1722   4.336   6.656   6.015
  575WAT     OW 1723   1.161   4.922   6.715
  575WAT    HW1 1724   1.242   4.958   6.677
  575WAT    HW2 1725   1.167   4.945   6.808
  576WAT     OW 1726   2.422   1.413   3.696
  576WAT    HW1 1727   2.419   1.497   3.742
  576WAT    HW2 1728   2.449   1.350   3.762
  577WAT     OW 1729   6.097   3.029   6.000
  577WAT    HW1 1730   6.178   3.024   6.052
  577WAT    HW2 1731   6.089   3.121   5.976
  578WAT     OW 1732   4.288   0.360   1.176
  578WAT    HW1 1733   4.315   0.295   1.112
  578WAT    HW2 1734   4.192   0.353   1.178
  579WAT     OW 1735   5.310   2.048   2.343
  579WAT    HW1 1736   5.307   1.954   2.360
  579WAT    HW2 1737   5.362   2.057   2.264
  580WAT     OW 1738   0.547   2.172   2.067
  580WAT    HW1 1739   0.504   2.219   2.139
  580WAT    HW2 1740   0.628   2.138   2.106
  581WAT     OW 1741   1.966   2.053   0.986
  581WAT    HW1 1742   2.002   2.135   0.954
  581WAT    HW2 1743   2.042   1.998   1.004
  582WAT     OW 1744   0.454   4.974   0.118
  582WAT    HW1 1745   0.505   5.046   0.154
  582WAT    HW2 1746   0.518   4.922   0.068
  583WAT     OW 1747   1.639   2.769   3.210
  583WAT    HW1 1748   1.712   2.831   3.216
  583WAT    HW2 1749   1.621   2.762   3.117
  584WAT     OW 1750   6.394   1.509   4.471
  584WAT    HW1 1751   6.478   1.472   4.446
  584WAT    HW2 1752   6.350   1.528   4.387
  585WAT     OW 1753   4.855   2.793   2.407
  585WAT    HW1 1754   4.879   2.701   2.399
  585WAT    HW2 1755   4.838   2.821   2.318
  586WAT     OW 1756   1.626   4.335   2.699
  586WAT    HW1 1757   1.662   4.414   2.740
  586WAT    HW2 1758   1.681   4.320   2.622
  587WAT     OW 1759   5.237   3.776   4.368
  587WAT    HW1 1760   5.205   3.810   4.452
  587WAT    HW2 1761   5.167   3.719   4.337
  588WAT     OW 1762   2.259   5.491   4.054
  588WAT    HW1 1763   2.177   5.446   4.075
  588WAT    HW2 1764   2.281   5.539   4.134
  589WAT     OW 1765   6.716   4.065   3.271
  589WAT    HW1 1766   6.795   4.115   3.293
  589WAT    HW2 1767   6.744   3.974   3.273
  590WAT     OW 1768   3.202   1.384   4.655
  590WAT    HW1 1769   3.191   1.313   4.718
  590WAT    HW2 1770   3.270   1.439   4.694
  591WAT     OW 1771   0.155   1.266   4.349
  591WAT    HW1 1772   0.234   1.281   4.296
  591WAT    HW2 1773   0.115   1.188   4.310
  592WAT     OW 1774   5.699   2.347   1.540
  592WAT    HW1 1775   5.756   2.323   1.613
  592WAT    HW2 1776   5.753   2.335   1.462
  593WAT     OW 1777   6.473   0.627   6.129
  593WAT    HW1 1778   6.393   0.631   6.076
  593WAT    HW2 1779   6.528   0.697   6.094
  594WAT     OW 1780   5.420   0.636   4.580
  594WAT    HW1 1781   5.510   0.617   4.552
  594WAT    HW2 1782   5.379   0.676   4.503
  595WAT     OW 1783   4.388   3.654   6.499
  595WAT    HW1 1784   4.403   3.723   6.564
  595WAT    HW2 1785   4.371   3.576   6.551
  596WAT     OW 1786   4.278   3.864   0.921
  596WAT    HW1 1787   4.361   3.910   0.938
  596WAT    HW2 1788   4.300   3.772   0.933
  597WAT     OW 1789   2.604   4.459   0.713
  597WAT    HW1 1790   2.617   4.547   0.677
  597WAT    HW2 1791   2.522   4.429   0.674
  598WAT     OW 1792   0.158   1.757   3.922
  598WAT    HW1 1793   0.163   1.703   4.000
  598WAT    HW2 1794   0.227   1.724   3.865
  599WAT     OW 1795   1.735   5.067   1.898
  599WAT    HW1 1796   1.655   5.117   1.882
  599WAT    HW2 1797   1.742   5.008   1.823
  600WAT     OW 1798   2.705   3.086   1.558
  600WAT    HW1 1799   2.631   3.032   1.528
  600WAT    HW2 1800   2.668   3.173   1.570
  601WAT     OW 1801   6.714   4.390   4.143
  601WAT    HW1 1802   6.639   4.431   4.099
  601WAT    HW2 1803   6.785   4.395   4.080
  602WAT     OW 1804   6.221   4.793   4.953
  602WAT    HW1 1805   6.314   4.798   4.975
  602WAT    HW2 1806   6.186   4.880   4.975
  603WAT     OW 1807   6.157   4.782   4.278
  603WAT    HW1 1808   6.112   4.829   4.207
  603WAT    HW2 1809   6.104   4.704   4.293
  604WAT     OW 1810   1.719   2.274   2.540
  604WAT    HW1 1811   1.763   2.355   2.567
  604WAT    HW2 1812   1.784   2.226   2.489
  605WAT     OW 1813   1.289   6.361   3.365
  605WAT    HW1 1814   1.229   6.313   3.307
  605WAT    HW2 1815   1.235   6.387   3.439
  606WAT     OW 1816   0.353   3.561   3.677
  606WAT    HW1 1817   0.419   3.498   3.705
  606WAT    HW2 1818   0.369   3.638   3.731
  607WAT     OW 1819   2.725   4.208   4.814
  607WAT    HW1 1820   2.714   4.228   4.721
  607WAT    HW2 1821   2.657   4.144   4.834
  608WAT     OW 1822   3.211   2.568   4.693
  608WAT    HW1 1823   3.238   2.516   4.768
  608WAT    HW2 1824   3.215   2.659   4.724
  609WAT     OW 1825   2.593   4.832   6.455
  609WAT    HW1 1826   2.523   4.833   6.390
  609WAT    HW2 1827   2.662   4.779   6.416
  610WAT     OW 1828   2.981   0.937   5.541
  610WAT    HW1 1829   2.931   0.920   5.621
  610WAT    HW2 1830   2.998   0.850   5.504
  611WAT     OW 1831   3.523   0.608   3.365
  611WAT    HW1 1832   3.463   0.569   3.429
  611WAT    HW2 1833   3.593   0.647   3.417
  612WAT     OW 1834   0.814   0.549   0.551
  612WAT    HW1 1835   0.875   0.559   0.478
  612WAT    HW2 1836   0.815   0.633   0.596
  613WAT     OW 1837   5.106   1.099   5.048
  613WAT    HW1 1838   5.094   1.194   5.043
  613WAT    HW2 1839   5.114   1.071   4.957
  614WAT     OW 1840   5.221   1.285   2.270
  614WAT    HW1 1841   5.303   1.312   2.311
  614WAT    HW2 1842   5.159   1.354   2.294
  615WAT     OW 1843   1.195   5.229   4.775
  615WAT    HW1 1844   1.282   5.266   4.765
  615WAT    HW2 1845   1.178   5.183   4.693
  616WAT     OW 1846   6.278   0.449   4.580
  616WAT    HW1 1847   6.284   0.386   4.652
  616WAT    HW2 1848   6.357   0.433   4.527
  617WAT     OW 1849   2.364   1.372   3.415
  617WAT    HW1 1850   2.334   1.461   3.397
  617WAT    HW2 1851   2.381   1.372   3.510
  618WAT     OW 1852   1.099   2.896   1.617
  618WAT    HW1 1853   1.021   2.899   1.672
  618WAT    HW2 1854   1.067   2.919   1.529
  619WAT     OW 1855   5.163   4.819   3.368
  619WAT    HW1 1856   5.117   4.813   3.284
  619WAT    HW2 1857   5.099   4.861   3.426
  620WAT     OW 1858   3.374   4.017   4.959
  620WAT    HW1 1859   3.377   3.922   4.969
  620WAT    HW2 1860   3.435   4.035   4.887
  621WAT     OW 1861   4.285   1.691   4.942
  621WAT    HW1 1862   4.380   1.689   4.958
  621WAT    HW2 1863   4.260   1.599   4.934
  622WAT     OW 1864   5.614   4.039   6.421
  622WAT    HW1 1865   5.667   3.963   6.448
  622WAT    HW2 1866   5.678   4.102   6.389
  623WAT     OW 1867   0.081   4.503   5.264
  623WAT    HW1 1868   0.121   4.446   5.198
  623WAT    HW2 1869   0.113   4.591   5.242
  624WAT     OW 1870   5.125   5.446   1.037
  624WAT    HW1 1871   5.191   5.406   1.093
  624WAT    HW2 1872   5.174   5.505   0.980
  625WAT     OW 1873   5.068   0.827   5.073
  625WAT    HW1 1874   5.074   0.922   5.087
  625WAT    HW2 1875   5.006   0.817   5.001
  626WAT     OW 1876   2.919   1.200   4.740
  626WAT    HW1 1877   3.008   1.188   4.773
  626WAT    HW2 1878   2.920   1.161   4.653
  627WAT     OW 1879   0.104   5.639   2.553
  627WAT    HW1 1880   0.061   5.644   2.468
  627WAT    HW2 1881   0.032   5.646   2.616
  628WAT     OW 1882   1.757   2.998   2.975
  628WAT    HW1 1883   1.717   2.914   2.951
  628WAT    HW2 1884   1.820   2.976   3.043
  629WAT     OW 1885   1.263   0.578   0.403
  629WAT    HW1 1886   1.291   0.493   0.438
  629WAT    HW2 1887   1.309   0.642   0.457
  630WAT     OW 1888   2.686   4.983   5.025
  630WAT    HW1 1889   2.650   5.071   5.039
  630WAT    HW2 1890   2.670   4.937   5.107
  631WAT     OW 1891   4.041   0.514   4.809
  631WAT    HW1 1892   4.064   0.586   4.867
  631WAT    HW2 1893   3.946   0.506   4.816
  632WAT     OW 1894   4.681   4.540   5.946
  632WAT    HW1 1895   4.688   4.573   5.856
  632WAT    HW2 1896   4.755   4.481   5.955
  633WAT     OW 1897   2.119   2.344   1.192
  633WAT    HW1 1898   2.121   2.255   1.228
  633WAT    HW2 1899   2.092   2.332   1.101
  634WAT     OW 1900   5.748   4.575   4.098
  634WAT    HW1 1901   5.743   4.663   4.062
  634WAT    HW2 1902   5.737   4.588   4.192
  635WAT     OW 1903   2.467   6.535   2.239
  635WAT    HW1 1904   2.423   6.480   2.303
  635WAT    HW2 1905   2.485   6.617   2.286
  636WAT     OW 1906   1.263   1.119   3.947
  636WAT    HW1 1907   1.306   1.074   3.875
  636WAT    HW2 1908   1.186   1.160   3.908
  637WAT     OW 1909   6.396   2.005   2.754
  637WAT    HW1 1910   6.408   2.081   2.697
  637WAT    HW2 1911   6.434   2.031   2.838
  638WAT     OW 1912   4.704   5.762   3.502
  638WAT    HW1 1913   4.633   5.788   3.561
  638WAT    HW2 1914   4.769   5.722   3.560
  639WAT     OW 1915   2.488   6.032   3.859
  639WAT    HW1 1916   2.431   6.109   3.863
  639WAT    HW2 1917   2.577   6.067   3.870
  640WAT     OW 1918   0.881   4.701   1.247
  640WAT    HW1 1919   0.881   4.691   1.342
  640WAT    HW2 1920   0.804   4.754   1.228
  641WAT     OW 1921   1.608   2.804   5.002
  641WAT    HW1 1922   1.578   2.727   4.954
  641WAT    HW2 1923   1.697   2.781   5.030
  642WAT     OW 1924   0.786   0.603   6.064
  642WAT    HW1 1925   0.750   0.651   5.989
  642WAT    HW2 1926   0.875   0.635   6.073
  643WAT     OW 1927   0.067   6.400   3.427
  643WAT    HW1 1928   0.145   6.455   3.427
  643WAT    HW2 1929  -0.002   6.456   3.464
  644WAT     OW 1930   2.983   0.787   6.537
  644WAT    HW1 1931   3.024   0.704   6.512
  644WAT    HW2 1932   2.911   0.762   6.595
  645WAT     OW 1933   6.096   2.109   5.168
  645WAT    HW1 1934   6.077   2.045   5.100
  645WAT    HW2 1935   6.162   2.166   5.129
  646WAT     OW 1936   0.969   0.124   4.652
  646WAT    HW1 1937   1.046   0.067   4.654
  646WAT    HW2 1938   0.985   0.187   4.722
  647WAT     OW 1939   0.186   0.032   0.229
  647WAT    HW1 1940   0.256   0.062   0.171
  647WAT    HW2 1941   0.208  -0.059   0.249
  648WAT     OW 1942   4.094   4.951   4.212
  648WAT    HW1 1943   4.012   4.906   4.232
  648WAT    HW2 1944   4.076   5.000   4.132
  649WAT     OW 1945   5.809   1.581   4.285
  649WAT    HW1 1946   5.797   1.664   4.332
  649WAT    HW2 1947   5.811   1.515   4.354
  650WAT     OW 1948   4.034   4.008   3.182
  650WAT    HW1 1949   4.006   3.941   3.243
  650WAT    HW2 1950   4.034   4.089   3.233
  651WAT     OW 1951   5.885   6.545   4.020
  651WAT    HW1 1952   5.840   6.503   3.946
  651WAT    HW2 1953   5.816   6.560   4.084
  652WAT     OW 1954   4.424   5.170   6.595
  652WAT    HW1 1955   4.474   5.247   6.567
  652WAT    HW2 1956   4.373   5.201   6.670
  653WAT     OW 1957   0.360   1.821   5.007
  653WAT    HW1 1958   0.324   1.831   4.919
  653WAT    HW2 1959   0.423   1.892   5.016
  654WAT     OW 1960   5.346   0.314   3.135
  654WAT    HW1 1961   5.313   0.243   3.190
  654WAT    HW2 1962   5.320   0.290   3.046
  655WAT     OW 1963   1.361   4.271   0.469
  655WAT    HW1 1964   1.313   4.196   0.433
  655WAT    HW2 1965   1.297   4.341   0.474
  656WAT     OW 1966   5.678   4.754   6.488
  656WAT    HW1 1967   5.646   4.808   6.561
  656WAT    HW2 1968   5.682   4.815   6.414
  657WAT     OW 1969   1.344   4.091   2.545
  657WAT    HW1 1970   1.312   4.123   2.629
  657WAT    HW2 1971   1.269   4.043   2.508
  658WAT     OW 1972   2.664   6.227   3.048
  658WAT    HW1 1973   2.689   6.314   3.080
  658WAT    HW2 1974   2.627   6.183   3.125
  659WAT     OW 1975   0.360   3.241   0.264
  659WAT    HW1 1976   0.432   3.186   0.231
  659WAT    HW2 1977   0.403   3.314   0.308
  660WAT     OW 1978   3.920   0.010   4.719
  660WAT    HW1 1979   3.954   0.099   4.715
  660WAT    HW2 1980   3.944  -0.021   4.807
  661WAT     OW 1981   2.857   4.953   1.770
  661WAT    HW1 1982   2.792   5.012   1.731
  661WAT    HW2 1983   2.810   4.870   1.780
  662WAT     OW 1984   4.526   4.880   3.577
  662WAT    HW1 1985   4.543   4.807   3.517
  662WAT    HW2 1986   4.584   4.950   3.546
  663WAT     OW 1987   5.835   6.342   4.651
  663WAT    HW1 1988   5.894   6.266   4.653
  663WAT    HW2 1989   5.790   6.339   4.735
  664WAT     OW 1990   5.302   2.336   3.798
  664WAT    HW1 1991   5.208   2.342   3.812
  664WAT    HW2 1992   5.341   2.388   3.868
  665WAT     OW 1993   1.247   4.508   4.561
  665WAT    HW1 1994   1.183   4.556   4.614
  665WAT    HW2 1995   1.290   4.575   4.507
  666WAT     OW 1996   3.160   5.145   5.090
  666WAT    HW1 1997   3.158   5.222   5.034
  666WAT    HW2 1998   3.088   5.090   5.060
  667WAT     OW 1999   5.090   5.825   1.271
  667WAT    HW1 2000   5.139   5.854   1.195
  667WAT    HW2 2001   5.043   5.747   1.242
  668WAT     OW 2002   1.913   6.416   5.586
  668WAT    HW1 2003   1.873   6.336   5.621
  668WAT    HW2 2004   1.872   6.487   5.635
  669WAT     OW 2005   3.363   1.782   0.216
  669WAT    HW1 2006   3.423   1.752   0.285
  669WAT    HW2 2007   3.417   1.836   0.159
  670WAT     OW 2008   4.479   3.090   6.506
  670WAT    HW1 2009   4.491   3.042   6.588
  670WAT    HW2 2010   4.541   3.051   6.446
  671WAT     OW 2011   4.053   1.344   1.639
  671WAT    HW1 2012   4.088   1.255   1.634
  671WAT    HW2 2013   4.130   1.400   1.634
  672WAT     OW 2014   0.866   3.799   0.325
  672WAT    HW1 2015   0.883   3.719   0.375
  672WAT    HW2 2016   0.803   3.848   0.378
  673WAT     OW 2017   4.403   0.380   3.396
  673WAT    HW1 2018   4.453   0.323   3.337
  673WAT    HW2 2019   4.464   0.402   3.466
  674WAT     OW 2020   1.618   6.019   4.350
  674WAT    HW1 2021   1.645   5.982   4.434
  674WAT    HW2 2022   1.589   5.943   4.299
  675WAT     OW 2023   3.322   1.354   2.094
  675WAT    HW1 2024   3.373   1.273   2.092
  675WAT    HW2 2025   3.387   1.423   2.107
  676WAT     OW 2026   1.059   5.167   0.990
  676WAT    HW1 2027   0.983   5.109   0.997
  676WAT    HW2 2028   1.082   5.164   0.897
  677WAT     OW 2029   1.850   1.708   5.688
  677WAT    HW1 2030   1.921   1.756   5.645
  677WAT    HW2 2031   1.894   1.659   5.758
  678WAT     OW 2032   1.702   5.893   0.616
  678WAT    HW1 2033   1.676   5.978   0.651
  678WAT    HW2 2034   1.796   5.888   0.631
  679WAT     OW 2035   3.069   4.473   3.893
  679WAT    HW1 2036   3.160   4.459   3.868
  679WAT    HW2 2037   3.057   4.416   3.970
  680WAT     OW 2038   1.737   2.170   3.351
  680WAT    HW1 2039   1.700   2.085   3.327
  680WAT    HW2 2040   1.696   2.191   3.435
  681WAT     OW 2041   1.643   2.947   5.630
  681WAT    HW1 2042   1.738   2.962   5.627
  681WAT    HW2 2043   1.611   2.979   5.546
  682WAT     OW 2044   1.408   4.014   1.078
  682WAT    HW1 2045   1.345   3.942   1.081
  682WAT    HW2 2046   1.427   4.026   0.985
  683WAT     OW 2047   5.338   5.593   0.116
  683WAT    HW1 2048   5.417   5.646   0.112
  683WAT    HW2 2049   5.266   5.657   0.113
  684WAT     OW 2050   3.919   5.437   1.992
  684WAT    HW1 2051   3.918   5.497   2.067
  684WAT    HW2 2052   3.991   5.468   1.937
  685WAT     OW 2053   5.192   2.892   5.844
  685WAT    HW1 2054   5.228   2.880   5.932
  685WAT    HW2 2055   5.229   2.975   5.814
  686WAT     OW 2056   5.978   2.956   0.071
  686WAT    HW1 2057   6.028   3.036   0.051
  686WAT    HW2 2058   5.950   2.966   0.162
  687WAT     OW 2059   2.414   4.665   3.896
  687WAT    HW1 2060   2.380   4.682   3.984
  687WAT    HW2 2061   2.355   4.712   3.838
  688WAT     OW 2062   5.430   5.812   4.263
  688WAT    HW1 2063   5.335   5.814   4.259
  688WAT    HW2 2064   5.454   5.894   4.308
  689WAT     OW 2065   2.145   2.695   3.498
  689WAT    HW1 2066   2.171   2.647   3.419
  689WAT    HW2 2067   2.061   2.656   3.523
  690WAT     OW 2068   0.887   2.545   1.625
  690WAT    HW1 2069   0.953   2.541   1.556
  690WAT    HW2 2070   0.864   2.454   1.643
  691WAT     OW 2071   3.951   0.922   1.929
  691WAT    HW1 2072   4.044   0.923   1.908
  691WAT    HW2 2073   3.943   0.863   2.003
  692WAT     OW 2074   3.730   3.364   1.232
  692WAT    HW1 2075   3.761   3.343   1.144
  692WAT    HW2 2076   3.635   3.351   1.227
  693WAT     OW 2077   0.448   4.427   3.859
  693WAT    HW1 2078   0.523   4.435   3.918
  693WAT    HW2 2079   0.436   4.515   3.824
  694WAT     OW 2080   3.105   4.003   5.025
  694WAT    HW1 2081   3.083   4.061   5.097
  694WAT    HW2 2082   3.200   4.011   5.016
  695WAT     OW 2083   3.477   3.241   2.478
  695WAT    HW1 2084   3.555   3.199   2.439
  695WAT    HW2 2085   3.499   3.334   2.481
  696WAT     OW 2086   0.143   3.908   5.952
  696WAT    HW1 2087   0.197   3.937   5.879
  696WAT    HW2 2088   0.132   3.986   6.006
  697WAT     OW 2089   5.294   4.616   6.624
  697WAT    HW1 2090   5.207   4.581   6.643
  697WAT    HW2 2091   5.319   4.663   6.703
  698WAT     OW 2092   1.196   5.438   3.252
  698WAT    HW1 2093   1.270   5.475   3.301
  698WAT    HW2 2094   1.118   5.474   3.296
  699WAT     OW 2095   4.987   3.572   1.089
  699WAT    HW1 2096   5.081   3.590   1.081
  699WAT    HW2 2097   4.959   3.627   1.162
  700WAT     OW 2098   1.634   5.131   6.703
  700WAT    HW1 2099   1.685   5.165   6.630
  700WAT    HW2 2100   1.698   5.083   6.756
  701WAT     OW 2101   6.494   2.423   4.534
  701WAT    HW1 2102   6.439   2.501   4.519
  701WAT    HW2 2103   6.542   2.443   4.614
  702WAT     OW 2104   6.304   6.724   6.158
  702WAT    HW1 2105   6.376   6.772   6.200
  702WAT    HW2 2106   6.347   6.676   6.087
  703WAT     OW 2107   6.320   3.194   2.462
  703WAT    HW1 2108   6.339   3.172   2.370
  703WAT    HW2 2109   6.247   3.137   2.485
  704WAT     OW 2110   3.577   5.168   4.089
  704WAT    HW1 2111   3.535   5.234   4.143
  704WAT    HW2 2112   3.553   5.084   4.130
  705WAT     OW 2113   5.376   2.685   2.305
  705WAT    HW1 2114   5.375   2.633   2.385
  705WAT    HW2 2115   5.368   2.776   2.335
  706WAT     OW 2116   5.769   6.466   1.630
  706WAT    HW1 2117   5.801   6.384   1.668
  706WAT    HW2 2118   5.849   6.514   1.607
  707WAT     OW 2119   5.897   5.699   3.032
  707WAT    HW1 2120   5.914   5.606   3.046
  707WAT    HW2 2121   5.895   5.736   3.121
  708WAT     OW 2122   0.753   5.819   6.258
  708WAT    HW1 2123   0.835   5.868   6.264
  708WAT    HW2 2124   0.712   5.850   6.178
  709WAT     OW 2125   3.603   3.769   1.515
  709WAT    HW1 2126   3.637   3.723   1.438
  709WAT    HW2 2127   3.665   3.841   1.529
  710WAT     OW 2128   6.328   2.630   4.193
  710WAT    HW1 2129   6.264   2.678   4.140
  710WAT    HW2 2130   6.315   2.539   4.169
  711WAT     OW 2131   1.842   6.131   0.235
  711WAT    HW1 2132   1.753   6.158   0.258
  711WAT    HW2 2133   1.868   6.075   0.308
  712WAT     OW 2134   0.118   4.061   2.779
  712WAT    HW1 2135   0.176   4.031   2.710
  712WAT    HW2 2136   0.131   3.998   2.851
  713WAT     OW 2137   4.815   2.113   2.302
  713WAT    HW1 2138   4.731   2.125   2.258
  713WAT    HW2 2139   4.875   2.084   2.233
  714WAT     OW 2140   1.403   0.587   5.096
  714WAT    HW1 2141   1.334   0.523   5.114
  714WAT    HW2 2142   1.483   0.534   5.087
  715WAT     OW 2143   5.565   0.881   6.194
  715WAT    HW1 2144   5.611   0.809   6.151
  715WAT    HW2 2145   5.627   0.912   6.260
  716WAT     OW 2146   1.904   0.698   5.741
  716WAT    HW1 2147   1.976   0.634   5.740
  716WAT    HW2 2148   1.942   0.777   5.779
  717WAT     OW 2149   0.112   3.254   0.538
  717WAT    HW1 2150   0.140   3.345   0.552
  717WAT    HW2 2151   0.187   3.201   0.565
  718WAT     OW 2152   5.384   4.857   5.249
  718WAT    HW1 2153   5.375   4.819   5.161
  718WAT    HW2 2154   5.461   4.814   5.286
  719WAT     OW 2155   5.823   5.331   3.938
  719WAT    HW1 2156   5.838   5.276   3.861
  719WAT    HW2 2157   5.881   5.295   4.006
  720WAT     OW 2158   0.920   1.055   1.082
  720WAT    HW1 2159   0.882   0.981   1.128
  720WAT    HW2 2160   0.855   1.078   1.016
  721WAT     OW 2161   6.037   2.159   6.007
  721WAT    HW1 2162   6.014   2.240   5.961
  721WAT    HW2 2163   5.965   2.099   5.988
  722WAT     OW 2164   0.790   1.590   5.032
  722WAT    HW1 2165   0.835   1.647   5.095
  722WAT    HW2 2166   0.698   1.598   5.055
  723WAT     OW 2167   5.346   2.590   2.559
  723WAT    HW1 2168   5.375   2.664   2.613
  723WAT    HW2 2169   5.258   2.571   2.590
  724WAT     OW 2170   1.266   6.594   3.731
  724WAT    HW1 2171   1.283   6.655   3.659
  724WAT    HW2 2172   1.285   6.646   3.810
  725WAT     OW 2173   0.068   2.547   2.600
  725WAT    HW1 2174   0.035   2.538   2.511
  725WAT    HW2 2175   0.083   2.457   2.630
  726WAT     OW 2176   1.123   5.868   3.599
  726WAT    HW1 2177   1.107   5.776   3.618
  726WAT    HW2 2178   1.113   5.912   3.684
  727WAT     OW 2179   0.250   4.606   6.094
  727WAT    HW1 2180   0.238   4.698   6.071
  727WAT    HW2 2181   0.207   4.597   6.179
  728WAT     OW 2182   5.010   3.930   4.074
  728WAT    HW1 2183   4.962   3.851   4.051
  728WAT    HW2 2184   4.981   3.995   4.010
  729WAT     OW 2185   0.844   5.719   2.741
  729WAT    HW1 2186   0.910   5.671   2.690
  729WAT    HW2 2187   0.892   5.750   2.818
  730WAT     OW 2188   4.184   3.024   2.907
  730WAT    HW1 2189   4.225   2.979   2.981
  730WAT    HW2 2190   4.131   2.956   2.865
  731WAT     OW 2191   4.844   4.133   0.854
  731WAT    HW1 2192   4.820   4.152   0.945
  731WAT    HW2 2193   4.939   4.146   0.852
  732WAT     OW 2194   5.932   1.273   1.113
  732WAT    HW1 2195   5.879   1.198   1.140
  732WAT    HW2 2196   5.917   1.339   1.181
  733WAT     OW 2197   4.866   4.653   2.978
  733WAT    HW1 2198   4.827   4.738   2.958
  733WAT    HW2 2199   4.833   4.594   2.910
  734WAT     OW 2200   0.074   0.035   5.428
  734WAT    HW1 2201   0.022  -0.006   5.497
  734WAT    HW2 2202   0.075   0.128   5.451
  735WAT     OW 2203   2.526   4.674   5.012
  735WAT    HW1 2204   2.534   4.738   4.941
  735WAT    HW2 2205   2.556   4.592   4.974
  736WAT     OW 2206   3.209   3.496   5.822
  736WAT    HW1 2207   3.155   3.492   5.743
  736WAT    HW2 2208   3.156   3.455   5.890
  737WAT     OW 2209   0.970   2.280   4.524
  737WAT    HW1 2210   0.984   2.368   4.559
  737WAT    HW2 2211   0.875   2.267   4.530
  738WAT     OW 2212   2.870   3.908   0.384
  738WAT    HW1 2213   2.913   3.825   0.363
  738WAT    HW2 2214   2.777   3.891   0.368
  739WAT     OW 2215   2.585   1.468   6.013
  739WAT    HW1 2216   2.573   1.476   5.918
  739WAT    HW2 2217   2.617   1.379   6.026
  740WAT     OW 2218   5.656   4.889   5.582
  740WAT    HW1 2219   5.727   4.952   5.565
  740WAT    HW2 2220   5.636   4.853   5.496
  741WAT     OW 2221   0.385   4.703   3.822
  741WAT    HW1 2222   0.450   4.753   3.871
  741WAT    HW2 2223   0.311   4.694   3.883
  742WAT     OW 2224   3.120   1.894   6.481
  742WAT    HW1 2225   3.150   1.917   6.569
  742WAT    HW2 2226   3.025   1.906   6.484
  743WAT     OW 2227   0.113   1.837   5.146
  743WAT    HW1 2228   0.075   1.753   5.171
  743WAT    HW2 2229   0.197   1.815   5.107
  744WAT     OW 2230   2.815   2.481   0.111
  744WAT    HW1 2231   2.810   2.552   0.174
  744WAT    HW2 2232   2.876   2.512   0.043
  745WAT     OW 2233   1.717   0.177   4.866
  745WAT    HW1 2234   1.690   0.263   4.833
  745WAT    HW2 2235   1.758   0.196   4.950
  746WAT     OW 2236   1.142   0.451   5.812
  746WAT    HW1 2237   1.081   0.521   5.788
  746WAT    HW2 2238   1.229   0.490   5.800
  747WAT     OW 2239   2.822   3.947   2.322
  747WAT    HW1 2240   2.774   4.015   2.370
  747WAT    HW2 2241   2.908   3.945   2.363
  748WAT     OW 2242   1.116   5.423   1.075
  748WAT    HW1 2243   1.087   5.334   1.056
  748WAT    HW2 2244   1.118   5.466   0.990
  749WAT     OW 2245   5.264   2.832   6.112
  749WAT    HW1 2246   5.268   2.831   6.207
  749WAT    HW2 2247   5.214   2.754   6.090
  750WAT     OW 2248   4.976   0.211   3.005
  750WAT    HW1 2249   5.014   0.139   3.056
  750WAT    HW2 2250   5.018   0.290   3.039
  751WAT     OW 2251   0.896   4.260   2.081
  751WAT    HW1 2252   0.804   4.245   2.062
  751WAT    HW2 2253   0.898   4.278   2.175
  752WAT     OW 2254   2.001   1.994   5.176
  752WAT    HW1 2255   2.002   1.913   5.126
  752WAT    HW2 2256   1.990   2.063   5.111
  753WAT     OW 2257   0.528   4.201   1.026
  753WAT    HW1 2258   0.493   4.112   1.028
  753WAT    HW2 2259   0.553   4.215   0.935
  754WAT     OW 2260   0.623   3.111   5.765
  754WAT    HW1 2261   0.560   3.046   5.795
  754WAT    HW2 2262   0.594   3.193   5.804
  755WAT     OW 2263   0.345   0.210   0.051
  755WAT    HW1 2264   0.389   0.156  -0.014
  755WAT    HW2 2265   0.408   0.280   0.070
  756WAT     OW 2266   4.371   1.607   5.418
  756WAT    HW1 2267   4.363   1.532   5.359
  756WAT    HW2 2268   4.457   1.596   5.459
  757WAT     OW 2269   0.138   1.396   3.942
  757WAT    HW1 2270   0.161   1.461   4.009
  757WAT    HW2 2271   0.042   1.391   3.946
  758WAT     OW 2272   1.022   0.354   6.626
  758WAT    HW1 2273   1.101   0.394   6.589
  758WAT    HW2 2274   0.967   0.336   6.550
  759WAT     OW 2275   3.777   1.919   1.542
  759WAT    HW1 2276   3.801   1.831   1.571
  759WAT    HW2 2277   3.753   1.965   1.622
  760WAT     OW 2278   5.517   5.119   2.714
  760WAT    HW1 2279   5.515   5.086   2.804
  760WAT    HW2 2280   5.496   5.212   2.721
  761WAT     OW 2281   0.988   0.425   5.402
  761WAT    HW1 2282   0.932   0.366   5.452
  761WAT    HW2 2283   1.077   0.402   5.428
  762WAT     OW 2284   1.857   5.833   2.372
  762WAT    HW1 2285   1.825   5.785   2.295
  762WAT    HW2 2286   1.952   5.828   2.365
  763WAT     OW 2287   2.557   2.692   2.605
  763WAT    HW1 2288   2.473   2.672   2.564
  763WAT    HW2 2289   2.566   2.626   2.674
  764WAT     OW 2290   4.813   5.929   5.445
  764WAT    HW1 2291   4.751   5.873   5.400
  764WAT    HW2 2292   4.759   5.986   5.499
  765WAT     OW 2293   0.876   3.866   0.065
  765WAT    HW1 2294   0.870   3.850   0.159
  765WAT    HW2 2295   0.821   3.797   0.026
  766WAT     OW 2296   0.344   1.466   3.240
  766WAT    HW1 2297   0.389   1.389   3.206
  766WAT    HW2 2298   0.295   1.500   3.165
  767WAT     OW 2299   0.605   1.051   2.989
  767WAT    HW1 2300   0.666   1.096   2.932
  767WAT    HW2 2301   0.526   1.039   2.936
  768WAT     OW 2302   1.918   0.436   4.255
  768WAT    HW1 2303   1.931   0.346   4.224
  768WAT    HW2 2304   1.976   0.444   4.330
  769WAT     OW 2305   2.288   6.100   2.985
  769WAT    HW1 2306   2.213   6.062   3.030
  769WAT    HW2 2307   2.263   6.104   2.893
  770WAT     OW 2308   3.143   0.943   3.835
  770WAT    HW1 2309   3.208   1.008   3.811
  770WAT    HW2 2310   3.108   0.974   3.918
  771WAT     OW 2311   4.430   2.114   3.137
  771WAT    HW1 2312   4.347   2.151   3.167
  771WAT    HW2 2313   4.497   2.156   3.190
  772WAT     OW 2314   2.812   5.786   3.601
  772WAT    HW1 2315   2.733   5.818   3.558
  772WAT    HW2 2316   2.786   5.702   3.639
  773WAT     OW 2317   5.339   1.132   4.304
  773WAT    HW1 2318   5.413   1.073   4.293
  773WAT    HW2 2319   5.354   1.172   4.390
  774WAT     OW 2320   3.531   1.684   0.405
  774WAT    HW1 2321   3.592   1.653   0.337
  774WAT    HW2 2322   3.550   1.629   0.481
  775WAT     OW 2323   5.828   1.453   6.716
  775WAT    HW1 2324   5.865   1.374   6.677
  775WAT    HW2 2325   5.842   1.521   6.650
  776WAT     OW 2326   0.784   2.677   0.550
  776WAT    HW1 2327   0.717   2.639   0.493
  776WAT    HW2 2328   0.748   2.668   0.638
  777WAT     OW 2329   6.023   4.876   5.470
  777WAT    HW1 2330   6.111   4.912   5.456
  777WAT    HW2 2331   5.974   4.949   5.508
  778WAT     OW 2332   5.249   4.405   0.133
  778WAT    HW1 2333   5.254   4.309   0.133
  778WAT    HW2 2334   5.178   4.425   0.072
  779WAT     OW 2335   4.567   3.495   2.194
  779WAT    HW1 2336   4.512   3.462   2.123
  779WAT    HW2 2337   4.505   3.518   2.264
  780WAT     OW 2338   1.231   3.697   5.174
  780WAT    HW1 2339   1.287   3.764   5.214
  780WAT    HW2 2340   1.286   3.658   5.106
  781WAT     OW 2341   6.011   1.854   4.620
  781WAT    HW1 2342   6.049   1.858   4.532
  781WAT    HW2 2343   6.054   1.924   4.669
  782WAT     OW 2344   1.840   6.622   0.039
  782WAT    HW1 2345   1.889   6.614   0.121
  782WAT    HW2 2346   1.751   6.641   0.066
  783WAT     OW 2347   3.001   6.448   1.999
  783WAT    HW1 2348   3.067   6.496   2.049
  783WAT    HW2 2349   3.051   6.390   1.942
  784WAT     OW 2350   0.328   1.832   1.499
  784WAT    HW1 2351   0.338   1.925   1.518
  784WAT    HW2 2352   0.236   1.823   1.474
  785WAT     OW 2353   4.854   0.648   3.965
  785WAT    HW1 2354   4.821   0.722   4.016
  785WAT    HW2 2355   4.824   0.571   4.014
  786WAT     OW 2356   5.985   3.332   6.550
  786WAT    HW1 2357   5.988   3.303   6.459
  786WAT    HW2 2358   6.043   3.408   6.553
  787WAT     OW 2359   0.467   1.136   1.602
  787WAT    HW1 2360   0.484   1.229   1.589
  787WAT    HW2 2361   0.542   1.105   1.654
  788WAT     OW 2362   5.155   2.658   3.268
  788WAT    HW1 2363   5.164   2.672   3.174
  788WAT    HW2 2364   5.076   2.708   3.292
  789WAT     OW 2365   4.702   6.167   4.700
  789WAT    HW1 2366   4.730   6.114   4.774
  789WAT    HW2 2367   4.757   6.136   4.627
  790WAT     OW 2368   3.686   4.491   3.407
  790WAT    HW1 2369   3.772   4.511   3.443
  790WAT    HW2 2370   3.694   4.506   3.313
  791WAT     OW 2371   2.014   4.334   5.434
  791WAT    HW1 2372   1.932   4.325   5.385
  791WAT    HW2 2373   2.049   4.418   5.406
  792WAT     OW 2374   4.369   4.864   3.144
  792WAT    HW1 2375   4.363   4.840   3.237
  792WAT    HW2 2376   4.292   4.824   3.105
  793WAT     OW 2377   0.242   2.227   5.547
  793WAT    HW1 2378   0.258   2.145   5.499
  793WAT    HW2 2379   0.301   2.290   5.506
  794WAT     OW 2380   2.330   4.769   2.733
  794WAT    HW1 2381   2.300   4.860   2.723
  794WAT    HW2 2382   2.387   4.771   2.810
  795WAT     OW 2383   2.886   1.672   3.040
  795WAT    HW1 2384   2.953   1.604   3.042
  795WAT    HW2 2385   2.902   1.718   2.957
  796WAT     OW 2386   5.223   1.822   4.691
  796WAT    HW1 2387   5.284   1.860   4.628
  796WAT    HW2 2388   5.200   1.737   4.653
  797WAT     OW 2389   2.919   2.136   3.706
  797WAT    HW1 2390   2.921   2.104   3.616
  797WAT    HW2 2391   3.007   2.120   3.739
  798WAT     OW 2392   5.239   1.359   5.941
  798WAT    HW1 2393   5.240   1.373   6.036
  798WAT    HW2 2394   5.305   1.419   5.907
  799WAT     OW 2395   1.554   0.326   1.569
  799WAT    HW1 2396   1.489   0.280   1.516
  799WAT    HW2 2397   1.615   0.363   1.504
  800WAT     OW 2398   2.303   0.176   3.239
  800WAT    HW1 2399   2.267   0.219   3.162
  800WAT    HW2 2400   2.283   0.083   3.227
  801WAT     OW 2401   6.336   3.595   0.438
  801WAT    HW1 2402   6.249   3.597   0.476
  801WAT    HW2 2403   6.324   3.627   0.349
  802WAT     OW 2404   4.883   3.862   5.239
  802WAT    HW1 2405   4.811   3.898   5.291
  802WAT    HW2 2406   4.927   3.801   5.299
  803WAT     OW 2407   6.031   1.638   4.137
  803WAT    HW1 2408   6.004   1.601   4.054
  803WAT    HW2 2409   5.959   1.617   4.197
  804WAT     OW 2410   5.964   2.745   4.244
  804WAT    HW1 2411   5.882   2.782   4.211
  804WAT    HW2 2412   6.024   2.750   4.170
  805WAT     OW 2413   3.562   3.871   0.011
  805WAT    HW1 2414   3.608   3.820  -0.057
  805WAT    HW2 2415   3.473   3.879  -0.022
  806WAT     OW 2416   3.245   1.487   6.184
  806WAT    HW1 2417   3.158   1.470   6.149
  806WAT    HW2 2418   3.239   1.575   6.222
  807WAT     OW 2419   0.366   6.593   4.330
  807WAT    HW1 2420   0.399   6.590   4.420
  807WAT    HW2 2421   0.336   6.683   4.318
  808WAT     OW 2422   1.741   5.739   2.612
  808WAT    HW1 2423   1.711   5.817   2.658
  808WAT    HW2 2424   1.778   5.772   2.530
  809WAT     OW 2425   6.001   3.172   4.243
  809WAT    HW1 2426   5.914   3.194   4.276
  809WAT    HW2 2427   6.050   3.254   4.248
  810WAT     OW 2428   1.214   4.625   6.472
  810WAT    HW1 2429   1.189   4.717   6.466
  810WAT    HW2 2430   1.298   4.620   6.427
  811WAT     OW 2431   5.273   1.236   2.004
  811WAT    HW1 2432   5.267   1.253   2.099
  811WAT    HW2 2433   5.280   1.141   1.997
  812WAT     OW 2434   5.133   0.018   1.682
  812WAT    HW1 2435   5.087  -0.066   1.678
  812WAT    HW2 2436   5.211  -0.000   1.735
  813WAT     OW 2437   5.174   0.634   5.222
  813WAT    HW1 2438   5.145   0.708   5.169
  813WAT    HW2 2439   5.114   0.634   5.297
  814WAT     OW 2440   1.254   0.419   3.826
  814WAT    HW1 2441   1.204   0.407   3.746
  814WAT    HW2 2442   1.187   0.436   3.893
  815WAT     OW 2443   2.681   4.906   3.703
  815WAT    HW1 2444   2.599   4.952   3.721
  815WAT    HW2 2445   2.730   4.911   3.785
  816WAT     OW 2446   1.379   2.526   3.610
  816WAT    HW1 2447   1.419   2.594   3.556
  816WAT    HW2 2448   1.347   2.462   3.547
  817WAT     OW 2449   0.023   6.290   0.774
  817WAT    HW1 2450   0.081   6.226   0.814
  817WAT    HW2 2451  -0.035   6.239   0.717
  818WAT     OW 2452   1.973   5.867   0.664
  818WAT    HW1 2453   2.029   5.898   0.735
  818WAT    HW2 2454   1.996   5.774   0.655
  819WAT     OW 2455   4.676   1.108   4.736
  819WAT    HW1 2456   4.688   1.019   4.703
  819WAT    HW2 2457   4.615   1.099   4.809
  820WAT     OW 2458   5.781   1.723   2.826
  820WAT    HW1 2459   5.825   1.702   2.908
  820WAT    HW2 2460   5.734   1.644   2.803
  821WAT     OW 2461   3.580   6.537   2.844
  821WAT    HW1 2462   3.509   6.579   2.797
  821WAT    HW2 2463   3.659   6.581   2.814
  822WAT     OW 2464   1.314   5.654   6.317
  822WAT    HW1 2465   1.293   5.632   6.407
  822WAT    HW2 2466   1.273   5.585   6.265
  823WAT     OW 2467   5.397   2.508   5.723
  823WAT    HW1 2468   5.424   2.437   5.665
  823WAT    HW2 2469   5.477   2.556   5.741
  824WAT     OW 2470   6.648   1.411   4.413
  824WAT    HW1 2471   6.642   1.399   4.508
  824WAT    HW2 2472   6.726   1.362   4.387
  825WAT     OW 2473   3.718   2.379   5.993
  825WAT    HW1 2474   3.659   2.358   6.066
  825WAT    HW2 2475   3.670   2.444   5.942
  826WAT     OW 2476   2.401   5.624   4.282
  826WAT    HW1 2477   2.453   5.704   4.273
  826WAT    HW2 2478   2.323   5.652   4.331
  827WAT     OW 2479   6.605   4.175   1.541
  827WAT    HW1 2480   6.559   4.091   1.550
  827WAT    HW2 2481   6.650   4.169   1.457
  828WAT     OW 2482   1.665   3.303   4.691
  828WAT    HW1 2483   1.751   3.339   4.668
  828WAT    HW2 2484   1.672   3.282   4.784
  829WAT     OW 2485   2.319   2.910   2.337
  829WAT    HW1 2486   2.301   2.951   2.253
  829WAT    HW2 2487   2.387   2.845   2.318
  830WAT     OW 2488   3.586   1.772   2.226
  830WAT    HW1 2489   3.566   1.684   2.196
  830WAT    HW2 2490   3.628   1.760   2.311
  831WAT     OW 2491   0.108   1.230   6.257
  831WAT    HW1 2492   0.155   1.270   6.330
  831WAT    HW2 2493   0.091   1.302   6.197
  832WAT     OW 2494   4.115   0.131   4.411
  832WAT    HW1 2495   4.046   0.197   4.404
  832WAT    HW2 2496   4.069   0.051   4.436
  833WAT     OW 2497   0.899   2.061   1.694
  833WAT    HW1 2498   0.822   2.007   1.710
  833WAT    HW2 2499   0.869   2.151   1.709
  834WAT     OW 2500   6.686   2.759   3.626
  834WAT    HW1 2501   6.691   2.710   3.708
  834WAT    HW2 2502   6.693   2.692   3.558
  835WAT     OW 2503   3.441   1.237   3.131
  835WAT    HW1 2504   3.420   1.306   3.069
  835WAT    HW2 2505   3.355   1.202   3.158
  836WAT     OW 2506   3.708   3.312   5.486
  836WAT    HW1 2507   3.803   3.312   5.478
  836WAT    HW2 2508   3.691   3.288   5.577
  837WAT     OW 2509   5.500   3.878   3.684
  837WAT    HW1 2510   5.422   3.929   3.659
  837WAT    HW2 2511   5.475   3.836   3.766
  838WAT     OW 2512   6.599   5.680   5.588
  838WAT    HW1 2513   6.582   5.773   5.598
  838WAT    HW2 2514   6.516   5.643   5.557
  839WAT     OW 2515   6.291   2.882   5.177
  839WAT    HW1 2516   6.346   2.944   5.224
  839WAT    HW2 2517   6.304   2.902   5.084
  840WAT     OW 2518   5.169   4.100   5.426
  840WAT    HW1 2519   5.131   4.083   5.340
  840WAT    HW2 2520   5.254   4.140   5.408
  841WAT     OW 2521   3.764   0.497   1.503
  841WAT    HW1 2522   3.726   0.511   1.417
  841WAT    HW2 2523   3.689   0.479   1.560
  842WAT     OW 2524   0.645   2.091   0.554
  842WAT    HW1 2525   0.675   2.117   0.642
  842WAT    HW2 2526   0.724   2.058   0.511
  843WAT     OW 2527   6.508   5.095   3.152
  843WAT    HW1 2528   6.576   5.086   3.220
  843WAT    HW2 2529   6.494   5.006   3.120
  844WAT     OW 2530   3.254   0.890   3.342
  844WAT    HW1 2531   3.160   0.881   3.356
  844WAT    HW2 2532   3.291   0.810   3.378
  845WAT     OW 2533   0.200   1.082   5.887
  845WAT    HW1 2534   0.174   1.050   5.800
  845WAT    HW2 2535   0.282   1.037   5.905
  846WAT     OW 2536   4.406   3.855   2.126
  846WAT    HW1 2537   4.380   3.840   2.035
  846WAT    HW2 2538   4.339   3.811   2.177
  847WAT     OW 2539   0.549   6.077   1.261
  847WAT    HW1 2540   0.634   6.042   1.286
  847WAT    HW2 2541   0.546   6.164   1.301
  848WAT     OW 2542   2.930   6.157   3.018
  848WAT    HW1 2543   2.836   6.175   3.010
  848WAT    HW2 2544   2.953   6.191   3.104
  849WAT     OW 2545   0.433   0.172   5.568
  849WAT    HW1 2546   0.348   0.201   5.602
  849WAT    HW2 2547   0.460   0.102   5.627
  850WAT     OW 2548   0.934   6.657   0.810
  850WAT    HW1 2549   0.985   6.577   0.799
  850WAT    HW2 2550   0.995   6.728   0.789
  851WAT     OW 2551   3.606   6.242   0.454
  851WAT    HW1 2552   3.544   6.218   0.386
  851WAT    HW2 2553   3.613   6.164   0.509
  852WAT     OW 2554   6.628   1.662   6.034
  852WAT    HW1 2555   6.566   1.677   6.106
  852WAT    HW2 2556   6.585   1.699   5.957
  853WAT     OW 2557   6.520   5.863   6.113
  853WAT    HW1 2558   6.425   5.856   6.107
  853WAT    HW2 2559   6.551   5.773   6.124
  854WAT     OW 2560   6.215   3.888   5.677
  854WAT    HW1 2561   6.253   3.919   5.595
  854WAT    HW2 2562   6.285   3.896   5.741
  855WAT     OW 2563   0.131   3.088   2.607
  855WAT    HW1 2564   0.042   3.110   2.580
  855WAT    HW2 2565   0.146   3.000   2.571
  856WAT     OW 2566   6.152   2.041   4.772
  856WAT    HW1 2567   6.117   2.004   4.853
  856WAT    HW2 2568   6.244   2.015   4.772
  857WAT     OW 2569   0.534   0.904   0.918
  857WAT    HW1 2570   0.590   0.826   0.907
  857WAT    HW2 2571   0.493   0.891   1.003
  858WAT     OW 2572   5.835   3.884   2.946
  858WAT    HW1 2573   5.837   3.794   2.979
  858WAT    HW2 2574   5.753   3.920   2.980
  859WAT     OW 2575   3.083   4.113   3.885
  859WAT    HW1 2576   3.171   4.089   3.858
  859WAT    HW2 2577   3.096   4.180   3.952
  860WAT     OW 2578   1.236   4.487   5.139
  860WAT    HW1 2579   1.202   4.399   5.125
  860WAT    HW2 2580   1.300   4.499   5.069
  861WAT     OW 2581   5.474   1.584   0.619
  861WAT    HW1 2582   5.549   1.533   0.650
  861WAT    HW2 2583   5.455   1.645   0.690
  862WAT     OW 2584   4.985   4.751   1.429
  862WAT    HW1 2585   5.041   4.689   1.382
  862WAT    HW2 2586   5.032   4.770   1.510
  863WAT     OW 2587   0.040   0.089   5.870
  863WAT    HW1 2588   0.019   0.035   5.946
  863WAT    HW2 2589  -0.019   0.163   5.876
  864WAT     OW 2590   5.765   2.440   2.805
  864WAT    HW1 2591   5.733   2.361   2.761
  864WAT    HW2 2592   5.818   2.408   2.878
  865WAT     OW 2593   1.798   1.941   0.583
  865WAT    HW1 2594   1.851   1.868   0.550
  865WAT    HW2 2595   1.783   1.919   0.675
  866WAT     OW 2596   3.563   0.830   3.708
  866WAT    HW1 2597   3.591   0.919   3.688
  866WAT    HW2 2598   3.614   0.774   3.648
  867WAT     OW 2599   1.075   2.527   6.467
  867WAT    HW1 2600   1.032   2.499   6.547
  867WAT    HW2 2601   1.008   2.577   6.420
  868WAT     OW 2602   2.325   6.353   3.111
  868WAT    HW1 2603   2.326   6.265   3.073
  868WAT    HW2 2604   2.305   6.339   3.203
  869WAT     OW 2605   4.716   6.419   0.247
  869WAT    HW1 2606   4.739   6.362   0.320
  869WAT    HW2 2607   4.741   6.507   0.277
  870WAT     OW 2608   3.066   2.968   4.535
  870WAT    HW1 2609   3.116   3.038   4.494
  870WAT    HW2 2610   3.057   2.902   4.467
  871WAT     OW 2611   3.153   2.293   3.209
  871WAT    HW1 2612   3.168   2.352   3.283
  871WAT    HW2 2613   3.186   2.208   3.239
  872WAT     OW 2614   4.903   5.146   3.394
  872WAT    HW1 2615   4.916   5.241   3.399
  872WAT    HW2 2616   4.924   5.123   3.303
  873WAT     OW 2617   2.530   5.080   1.898
  873WAT    HW1 2618   2.453   5.118   1.939
  873WAT    HW2 2619   2.539   4.994   1.939
  874WAT     OW 2620   2.729   3.577   2.992
  874WAT    HW1 2621   2.732   3.566   3.087
  874WAT    HW2 2622   2.650   3.530   2.965
  875WAT     OW 2623   0.276   0.748   5.854
  875WAT    HW1 2624   0.332   0.818   5.889
  875WAT    HW2 2625   0.334   0.699   5.796
  876WAT     OW 2626   2.387   3.953   2.389
  876WAT    HW1 2627   2.318   3.891   2.367
  876WAT    HW2 2628   2.460   3.930   2.331
  877WAT     OW 2629   3.399   1.531   6.472
  877WAT    HW1 2630   3.431   1.469   6.407
  877WAT    HW2 2631   3.365   1.604   6.421
  878WAT     OW 2632   1.025   5.407   2.216
  878WAT    HW1 2633   1.067   5.406   2.302
  878WAT    HW2 2634   1.068   5.336   2.168
  879WAT     OW 2635   2.671   5.496   2.947
  879WAT    HW1 2636   2.669   5.444   2.866
  879WAT    HW2 2637   2.635   5.438   3.013
  880WAT     OW 2638   3.708   1.738   2.473
  880WAT    HW1 2639   3.791   1.709   2.434
  880WAT    HW2 2640   3.735   1.788   2.551
  881WAT     OW 2641   0.584   5.002   6.473
  881WAT    HW1 2642   0.601   4.953   6.554
  881WAT    HW2 2643   0.583   5.094   6.501
  882WAT     OW 2644   2.682   4.092   3.031
  882WAT    HW1 2645   2.739   4.025   2.994
  882WAT    HW2 2646   2.596   4.050   3.035
  883WAT     OW 2647   5.423   2.365   5.969
  883WAT    HW1 2648   5.400   2.413   5.890
  883WAT    HW2 2649   5.486   2.422   6.014
  884WAT     OW 2650   6.157   4.995   5.831
  884WAT    HW1 2651   6.197   4.909   5.821
  884WAT    HW2 2652   6.096   4.985   5.904
  885WAT     OW 2653   6.610   2.095   1.787
  885WAT    HW1 2654   6.633   2.110   1.879
  885WAT    HW2 2655   6.693   2.068   1.746
  886WAT     OW 2656   0.629   5.280   3.413
  886WAT    HW1 2657   0.610   5.200   3.462
  886WAT    HW2 2658   0.543   5.320   3.399
  887WAT     OW 2659   1.771   3.452   3.671
  887WAT    HW1 2660   1.790   3.504   3.749
  887WAT    HW2 2661   1.781   3.513   3.598
  888WAT     OW 2662   6.282   0.367   4.015
  888WAT    HW1 2663   6.264   0.327   3.930
  888WAT    HW2 2664   6.226   0.320   4.077
  889WAT     OW 2665   4.357   1.124   5.140
  889WAT    HW1 2666   4.379   1.205   5.186
  889WAT    HW2 2667   4.279   1.091   5.186
  890WAT     OW 2668   1.501   6.527   3.476
  890WAT    HW1 2669   1.577   6.489   3.521
  890WAT    HW2 2670   1.450   6.451   3.446
  891WAT     OW 2671   4.204   6.603   5.613
  891WAT    HW1 2672   4.217   6.509   5.627
  891WAT    HW2 2673   4.211   6.615   5.519
  892WAT     OW 2674   0.928   6.188   0.535
  892WAT    HW1 2675   0.933   6.157   0.625
  892WAT    HW2 2676   1.011   6.234   0.520
  893WAT     OW 2677   0.795   0.800   0.666
  893WAT    HW1 2678   0.726   0.856   0.630
  893WAT    HW2 2679   0.759   0.767   0.748
  894WAT     OW 2680   5.547   3.040   3.647
  894WAT    HW1 2681   5.510   3.041   3.559
  894WAT    HW2 2682   5.501   3.109   3.694
  895WAT     OW 2683   4.856   0.923   0.951
  895WAT    HW1 2684   4.828   1.003   0.908
  895WAT    HW2 2685   4.777   0.887   0.991
  896WAT     OW 2686   4.106   4.072   4.740
  896WAT    HW1 2687   4.044   4.084   4.812
  896WAT    HW2 2688   4.060   4.103   4.663
  897WAT     OW 2689   2.228   0.356   3.042
  897WAT    HW1 2690   2.190   0.420   2.982
  897WAT    HW2 2691   2.315   0.391   3.062
  898WAT     OW 2692   0.920   0.913   4.535
  898WAT    HW1 2693   0.923   1.009   4.541
  898WAT    HW2 2694   0.845   0.888   4.588
  899WAT     OW 2695   4.673   3.353   1.550
  899WAT    HW1 2696   4.611   3.283   1.573
  899WAT    HW2 2697   4.754   3.328   1.595
  900WAT     OW 2698   5.529   6.128   1.717
  900WAT    HW1 2699   5.483   6.137   1.633
  900WAT    HW2 2700   5.527   6.034   1.734
  901WAT     OW 2701   4.199   4.183   5.953
  901WAT    HW1 2702   4.269   4.165   6.016
  901WAT    HW2 2703   4.223   4.131   5.876
  902WAT     OW 2704   3.443   0.484   5.450
  902WAT    HW1 2705   3.497   0.417   5.492
  902WAT    HW2 2706   3.485   0.566   5.474
  903WAT     OW 2707   4.162   1.651   6.178
  903WAT    HW1 2708   4.142   1.743   6.196
  903WAT    HW2 2709   4.145   1.641   6.084
  904WAT     OW 2710   1.247   5.940   0.250
  904WAT    HW1 2711   1.330   5.939   0.202
  904WAT    HW2 2712   1.232   5.848   0.273
  905WAT     OW 2713   4.696   1.030   6.399
  905WAT    HW1 2714   4.781   1.022   6.442
  905WAT    HW2 2715   4.663   1.115   6.426
  906WAT     OW 2716   3.972   4.687   6.264
  906WAT    HW1 2717   3.899   4.747   6.277
  906WAT    HW2 2718   4.048   4.733   6.300
  907WAT     OW 2719   3.544   0.226   2.133
  907WAT    HW1 2720   3.500   0.307   2.158
  907WAT    HW2 2721   3.520   0.212   2.041
  908WAT     OW 2722   0.331   3.106   0.621
  908WAT    HW1 2723   0.385   3.069   0.551
  908WAT    HW2 2724   0.391   3.117   0.694
  909WAT     OW 2725   2.479   5.326   5.975
  909WAT    HW1 2726   2.402   5.272   5.959
  909WAT    HW2 2727   2.519   5.289   6.054
  910WAT     OW 2728   5.888   2.253   1.332
  910WAT    HW1 2729   5.810   2.212   1.295
  910WAT    HW2 2730   5.942   2.276   1.257
  911WAT     OW 2731   0.936   3.751   4.094
  911WAT    HW1 2732   0.914   3.658   4.100
  911WAT    HW2 2733   0.892   3.791   4.169
  912WAT     OW 2734   0.550   6.592   5.384
  912WAT    HW1 2735   0.454   6.589   5.386
  912WAT    HW2 2736   0.570   6.638   5.302
  913WAT     OW 2737   3.924   2.466   4.806
  913WAT    HW1 2738   3.956   2.397   4.748
  913WAT    HW2 2739   3.986   2.537   4.795
  914WAT     OW 2740   4.977   0.659   4.249
  914WAT    HW1 2741   5.044   0.676   4.183
  914WAT    HW2 2742   4.918   0.734   4.242
  915WAT     OW 2743   3.933   6.584   2.985
  915WAT    HW1 2744   3.980   6.660   3.017
  915WAT    HW2 2745   3.871   6.619   2.921
  916WAT     OW 2746   6.019   4.965   2.183
  916WAT    HW1 2747   6.090   5.019   2.216
  916WAT    HW2 2748   5.948   4.979   2.246
  917WAT     OW 2749   4.977   5.490   4.484
  917WAT    HW1 2750   4.902   5.548   4.495
  917WAT    HW2 2751   5.021   5.490   4.569
  918WAT     OW 2752   3.341   5.939   5.918
  918WAT    HW1 2753   3.377   5.900   5.839
  918WAT    HW2 2754   3.330   6.031   5.897
  919WAT     OW 2755   6.486   4.820   3.089
  919WAT    HW1 2756   6.523   4.733   3.105
  919WAT    HW2 2757   6.520   4.845   3.003
  920WAT     OW 2758   4.580   4.449   1.815
  920WAT    HW1 2759   4.528   4.389   1.868
  920WAT    HW2 2760   4.541   4.535   1.831
  921WAT     OW 2761   1.522   3.363   0.449
  921WAT    HW1 2762   1.448   3.423   0.456
  921WAT    HW2 2763   1.597   3.419   0.429
  922WAT     OW 2764   1.202   5.992   0.723
  922WAT    HW1 2765   1.226   5.900   0.733
  922WAT    HW2 2766   1.111   5.997   0.753
  923WAT     OW 2767   0.512   3.095   0.835
  923WAT    HW1 2768   0.603   3.093   0.804
  923WAT    HW2 2769   0.490   3.004   0.850
  924WAT     OW 2770   5.290   6.547   0.009
  924WAT    HW1 2771   5.257   6.636  -0.002
  924WAT    HW2 2772   5.233   6.508   0.075
  925WAT     OW 2773   1.804   6.526   0.486
  925WAT    HW1 2774   1.814   6.445   0.537
  925WAT    HW2 2775   1.824   6.596   0.548
  926WAT     OW 2776   6.501   6.518   5.433
  926WAT    HW1 2777   6.547   6.571   5.498
  926WAT    HW2 2778   6.462   6.583   5.374
  927WAT     OW 2779   5.674   0.851   0.836
  927WAT    HW1 2780   5.598   0.907   0.818
  927WAT    HW2 2781   5.644   0.790   0.903
  928WAT     OW 2782   3.027   4.945   4.517
  928WAT    HW1 2783   3.032   4.885   4.592
  928WAT    HW2 2784   2.981   4.896   4.449
  929WAT     OW 2785   6.275   0.984   5.832
  929WAT    HW1 2786   6.318   1.054   5.880
  929WAT    HW2 2787   6.346   0.929   5.800
  930WAT     OW 2788   0.798   4.569   2.201
  930WAT    HW1 2789   0.780   4.550   2.109
  930WAT    HW2 2790   0.848   4.494   2.232
  931WAT     OW 2791   4.796   0.562   4.849
  931WAT    HW1 2792   4.711   0.605   4.845
  931WAT    HW2 2793   4.860   0.634   4.850
  932WAT     OW 2794   5.354   6.238   5.598
  932WAT    HW1 2795   5.275   6.254   5.649
  932WAT    HW2 2796   5.347   6.298   5.523
  933WAT     OW 2797   3.449   6.566   0.502
  933WAT    HW1 2798   3.436   6.494   0.563
  933WAT    HW2 2799   3.541   6.589   0.510
  934WAT     OW 2800   4.276   5.369   1.877
  934WAT    HW1 2801   4.212   5.436   1.855
  934WAT    HW2 2802   4.324   5.354   1.795
  935WAT     OW 2803   3.080   1.814   5.592
  935WAT    HW1 2804   3.120   1.901   5.581
  935WAT    HW2 2805   3.011   1.812   5.526
  936WAT     OW 2806   1.315   3.054   3.627
  936WAT    HW1 2807   1.316   3.143   3.660
  936WAT    HW2 2808   1.320   3.064   3.532
  937WAT     OW 2809   5.082   2.039   3.914
  937WAT    HW1 2810   5.043   2.075   3.834
  937WAT    HW2 2811   5.135   1.965   3.884
  938WAT     OW 2812   0.464   0.373   1.933
  938WAT    HW1 2813   0.471   0.468   1.925
  938WAT    HW2 2814   0.551   0.345   1.961
  939WAT     OW 2815   2.767   4.627   2.754
  939WAT    HW1 2816   2.703   4.579   2.807
  939WAT    HW2 2817   2.748   4.599   2.664
  940WAT     OW 2818   5.885   3.262   2.179
  940WAT    HW1 2819   5.907   3.355   2.184
  940WAT    HW2 2820   5.882   3.233   2.271
  941WAT     OW 2821   3.341   4.522   5.946
  941WAT    HW1 2822   3.371   4.480   5.865
  941WAT    HW2 2823   3.420   4.529   5.999
  942WAT     OW 2824   6.389   2.645   1.321
  942WAT    HW1 2825   6.332   2.637   1.397
  942WAT    HW2 2826   6.342   2.704   1.262
  943WAT     OW 2827   4.047   6.033   5.120
  943WAT    HW1 2828   4.033   6.082   5.201
  943WAT    HW2 2829   4.087   6.096   5.060
  944WAT     OW 2830   1.838   0.365   5.819
  944WAT    HW1 2831   1.862   0.360   5.727
  944WAT    HW2 2832   1.913   0.327   5.865
  945WAT     OW 2833   5.614   3.590   2.864
  945WAT    HW1 2834   5.696   3.601   2.913
  945WAT    HW2 2835   5.639   3.538   2.787
  946WAT     OW 2836   3.284   0.806   5.416
  946WAT    HW1 2837   3.202   0.758   5.404
  946WAT    HW2 2838   3.296   0.809   5.511
  947WAT     OW 2839   3.025   5.218   6.584
  947WAT    HW1 2840   3.080   5.166   6.525
  947WAT    HW2 2841   3.005   5.297   6.535
  948WAT     OW 2842   0.771   0.760   2.836
  948WAT    HW1 2843   0.729   0.675   2.822
  948WAT    HW2 2844   0.753   0.780   2.928
  949WAT     OW 2845   1.744   4.998   5.559
  949WAT    HW1 2846   1.748   4.903   5.544
  949WAT    HW2 2847   1.820   5.017   5.613
  950WAT     OW 2848   0.561   6.287   5.430
  950WAT    HW1 2849   0.651   6.315   5.411
  950WAT    HW2 2850   0.511   6.310   5.352
  951WAT     OW 2851   4.488   6.095   6.194
  951WAT    HW1 2852   4.422   6.146   6.147
  951WAT    HW2 2853   4.453   6.088   6.283
  952WAT     OW 2854   0.420   5.247   1.431
  952WAT    HW1 2855   0.450   5.330   1.394
  952WAT    HW2 2856   0.493   5.218   1.487
  953WAT     OW 2857   3.255   5.419   3.317
  953WAT    HW1 2858   3.229   5.341   3.267
  953WAT    HW2 2859   3.176   5.472   3.323
  954WAT     OW 2860   1.072   0.512   4.006
  954WAT    HW1 2861   1.066   0.596   3.961
  954WAT    HW2 2862   1.126   0.530   4.083
  955WAT     OW 2863   1.989   4.096   2.223
  955WAT    HW1 2864   1.995   4.037   2.298
  955WAT    HW2 2865   2.021   4.180   2.257
  956WAT     OW 2866   5.908   3.969   0.412
  956WAT    HW1 2867   5.891   4.048   0.361
  956WAT    HW2 2868   5.932   4.001   0.499
  957WAT     OW 2869   0.475   1.024   0.152
  957WAT    HW1 2870   0.399   1.025   0.211
  957WAT    HW2 2871   0.449   0.965   0.081
  958WAT     OW 2872   3.444   0.593   4.453
  958WAT    HW1 2873   3.362   0.598   4.404
  958WAT    HW2 2874   3.442   0.669   4.511
  959WAT     OW 2875   1.241   0.801   1.482
  959WAT    HW1 2876   1.326   0.776   1.516
  959WAT    HW2 2877   1.205   0.860   1.547
  960WAT     OW 2878   2.139   1.425   6.299
  960WAT    HW1 2879   2.228   1.414   6.264
  960WAT    HW2 2880   2.149   1.494   6.365
  961WAT     OW 2881   3.747   0.200   5.387
  961WAT    HW1 2882   3.820   0.178   5.446
  961WAT    HW2 2883   3.693   0.260   5.438
  962WAT     OW 2884   0.526   1.312   0.644
  962WAT    HW1 2885   0.515   1.345   0.733
  962WAT    HW2 2886   0.460   1.244   0.634
  963WAT     OW 2887   3.873   2.435   5.083
  963WAT    HW1 2888   3.809   2.497   5.116
  963WAT    HW2 2889   3.879   2.455   4.989
  964WAT     OW 2890   4.287   0.723   1.675
  964WAT    HW1 2891   4.212   0.677   1.710
  964WAT    HW2 2892   4.340   0.745   1.751
  965WAT     OW 2893   2.619   1.548   0.787
  965WAT    HW1 2894   2.683   1.486   0.752
  965WAT    HW2 2895   2.654   1.634   0.764
  966WAT     OW 2896   3.348   4.944   5.127
  966WAT    HW1 2897   3.284   4.873   5.121
  966WAT    HW2 2898   3.297   5.024   5.117
  967WAT     OW 2899   2.118   6.435   5.412
  967WAT    HW1 2900   2.051   6.428   5.480
  967WAT    HW2 2901   2.070   6.452   5.331
  968WAT     OW 2902   3.025   6.186   4.255
  968WAT    HW1 2903   2.949   6.231   4.293
  968WAT    HW2 2904   3.095   6.201   4.318
  969WAT     OW 2905   1.169   0.363   6.071
  969WAT    HW1 2906   1.246   0.306   6.073
  969WAT    HW2 2907   1.157   0.385   5.979
  970WAT     OW 2908   3.433   2.507   4.238
  970WAT    HW1 2909   3.504   2.553   4.283
  970WAT    HW2 2910   3.475   2.464   4.164
  971WAT     OW 2911   3.844   6.565   4.297
  971WAT    HW1 2912   3.775   6.599   4.353
  971WAT    HW2 2913   3.923   6.570   4.351
  972WAT     OW 2914   0.194   2.596   4.014
  972WAT    HW1 2915   0.272   2.649   4.031
  972WAT    HW2 2916   0.156   2.580   4.100
  973WAT     OW 2917   1.038   0.721   6.094
  973WAT    HW1 2918   1.055   0.799   6.040
  973WAT    HW2 2919   1.124   0.681   6.107
  974WAT     OW 2920   6.404   3.095   2.221
  974WAT    HW1 2921   6.497   3.107   2.204
  974WAT    HW2 2922   6.395   3.002   2.240
  975WAT     OW 2923   6.127   5.464   5.363
  975WAT    HW1 2924   6.160   5.374   5.363
  975WAT    HW2 2925   6.196   5.514   5.407
  976WAT     OW 2926   6.384   6.223   4.203
  976WAT    HW1 2927   6.323   6.274   4.256
  976WAT    HW2 2928   6.398   6.276   4.124
  977WAT     OW 2929   2.256   0.169   5.401
  977WAT    HW1 2930   2.314   0.239   5.434
  977WAT    HW2 2931   2.315   0.097   5.381
  978WAT     OW 2932   0.661   1.587   5.332
  978WAT    HW1 2933   0.727   1.655   5.319
  978WAT    HW2 2934   0.601   1.597   5.259
  979WAT     OW 2935   4.818   3.509   4.696
  979WAT    HW1 2936   4.754   3.522   4.766
  979WAT    HW2 2937   4.838   3.416   4.698
  980WAT     OW 2938   2.263   4.821   5.758
  980WAT    HW1 2939   2.333   4.786   5.703
  980WAT    HW2 2940   2.182   4.791   5.716
  981WAT     OW 2941   4.713   2.498   6.587
  981WAT    HW1 2942   4.645   2.432   6.569
  981WAT    HW2 2943   4.770   2.496   6.510
  982WAT     OW 2944   2.623   2.001   6.658
  982WAT    HW1 2945   2.577   2.062   6.600
  982WAT    HW2 2946   2.577   1.917   6.645
  983WAT     OW 2947   1.184   5.526   1.327
  983WAT    HW1 2948   1.153   5.501   1.240
  983WAT    HW2 2949   1.157   5.454   1.384
  984WAT     OW 2950   6.166   3.915   0.312
  984WAT    HW1 2951   6.205   3.929   0.399
  984WAT    HW2 2952   6.072   3.917   0.328
  985WAT     OW 2953   1.089   5.871   6.519
  985WAT    HW1 2954   1.017   5.849   6.577
  985WAT    HW2 2955   1.047   5.896   6.437
  986WAT     OW 2956   3.168   0.901   6.713
  986WAT    HW1 2957   3.165   0.997   6.714
  986WAT    HW2 2958   3.108   0.876   6.643
  987WAT     OW 2959   2.175   0.662   6.210
  987WAT    HW1 2960   2.105   0.726   6.195
  987WAT    HW2 2961   2.212   0.647   6.123
  988WAT     OW 2962   4.952   1.595   1.180
  988WAT    HW1 2963   4.903   1.513   1.181
  988WAT    HW2 2964   5.044   1.568   1.178
  989WAT     OW 2965   5.532   3.974   4.093
  989WAT    HW1 2966   5.440   3.963   4.116
  989WAT    HW2 2967   5.547   3.912   4.023
  990WAT     OW 2968   4.572   5.489   0.108
  990WAT    HW1 2969   4.522   5.427   0.163
  990WAT    HW2 2970   4.648   5.512   0.161
  991WAT     OW 2971   1.491   3.860   2.135
  991WAT    HW1 2972   1.511   3.897   2.221
  991WAT    HW2 2973   1.410   3.903   2.108
  992WAT     OW 2974   6.634   6.112   5.367
  992WAT    HW1 2975   6.719   6.070   5.378
  992WAT    HW2 2976   6.654   6.204   5.350
  993WAT     OW 2977   0.493   5.313   5.601
  993WAT    HW1 2978   0.564   5.268   5.555
  993WAT    HW2 2979   0.443   5.355   5.532
  994WAT     OW 2980   6.265   3.684   1.857
  994WAT    HW1 2981   6.184   3.636   1.877
  994WAT    HW2 2982   6.298   3.712   1.943
  995WAT     OW 2983   3.047   5.554   0.063
  995WAT    HW1 2984   3.003   5.511   0.135
  995WAT    HW2 2985   2.993   5.630   0.043
  996WAT     OW 2986   1.135   0.118   1.531
  996WAT    HW1 2987   1.145   0.209   1.559
  996WAT    HW2 2988   1.054   0.116   1.481
  997WAT     OW 2989   3.080   2.875   5.439
  997WAT    HW1 2990   3.016   2.843   5.376
  997WAT    HW2 2991   3.049   2.962   5.464
  998WAT     OW 2992   5.721   5.920   5.368
  998WAT    HW1 2993   5.766   5.968   5.299
  998WAT    HW2 2994   5.705   5.986   5.436
  999WAT     OW 2995   4.530   0.671   0.858
  999WAT    HW1 2996   4.569   0.605   0.800
  999WAT    HW2 2997   4.465   0.623   0.909
 1000WAT     OW 2998   2.046   5.357   2.385
 1000WAT    HW1 2999   1.952   5.351   2.371
 1000WAT    HW2 3000   2.055   5.416   2.459
 1001WAT     OW 3001   4.681   6.466   4.347
 1001WAT    HW1 3002   4.621   6.490   4.277
 1001WAT    HW2 3003   4.633   6.485   4.428
 1002WAT     OW 3004   0.466   6.641   0.627
 1002WAT    HW1 3005   0.446   6.697   0.702
 1002WAT    HW2 3006   0.386   6.592   0.611
 1003WAT     OW 3007   1.340   4.328   6.124
 1003WAT    HW1 3008   1.368   4.239   6.104
 1003WAT    HW2 3009   1.265   4.343   6.065
 1004WAT     OW 3010   3.183   1.405   2.333
 1004WAT    HW1 3011   3.219   1.379   2.248
 1004WAT    HW2 3012   3.212   1.336   2.394
 1005WAT     OW 3013   5.828   3.778   5.765
 1005WAT    HW1 3014   5.907   3.728   5.787
 1005WAT    HW2 3015   5.770   3.715   5.722
 1006WAT     OW 3016   4.424   1.364   5.266
 1006WAT    HW1 3017   4.432   1.400   5.178
 1006WAT    HW2 3018   4.514   1.338   5.289
 1007WAT     OW 3019   1.208   5.377   5.903
 1007WAT    HW1 3020   1.266   5.318   5.854
 1007WAT    HW2 3021   1.120   5.355   5.872
 1008WAT     OW 3022   1.373   3.117   1.359
 1008WAT    HW1 3023   1.356   3.115   1.453
 1008WAT    HW2 3024   1.324   3.193   1.327
 1009WAT     OW 3025   0.736   0.235   3.877
 1009WAT    HW1 3026   0.695   0.158   3.915
 1009WAT    HW2 3027   0.668   0.272   3.820
 1010WAT     OW 3028   2.029   3.404   5.722
 1010WAT    HW1 3029   2.076   3.487   5.716
 1010WAT    HW2 3030   1.953   3.415   5.665
 1011WAT     OW 3031   6.105   5.298   4.908
 1011WAT    HW1 3032   6.060   5.351   4.975
 1011WAT    HW2 3033   6.188   5.344   4.894
 1012WAT     OW 3034   0.712   4.588   5.581
 1012WAT    HW1 3035   0.770   4.624   5.648
 1012WAT    HW2 3036   0.757   4.606   5.499
 1013WAT     OW 3037   3.417   0.560   1.894
 1013WAT    HW1 3038   3.464   0.497   1.839
 1013WAT    HW2 3039   3.447   0.646   1.864
 1014WAT     OW 3040   2.668   0.911   0.151
 1014WAT    HW1 3041   2.623   0.950   0.076
 1014WAT    HW2 3042   2.726   0.980   0.183
 1015WAT     OW 3043   0.432   4.596   5.875
 1015WAT    HW1 3044   0.367   4.594   5.946
 1015WAT    HW2 3045   0.463   4.506   5.869
 1016WAT     OW 3046   5.189   5.414   6.686
 1016WAT    HW1 3047   5.237   5.472   6.745
 1016WAT    HW2 3048   5.140   5.356   6.744
 1017WAT     OW 3049   2.437   0.094   2.303
 1017WAT    HW1 3050   2.358   0.046   2.331
 1017WAT    HW2 3051   2.403   0.173   2.261
 1018WAT     OW 3052   5.755   3.109   0.528
 1018WAT    HW1 3053   5.798   3.168   0.590
 1018WAT    HW2 3054   5.746   3.026   0.575
 1019WAT     OW 3055   4.034   3.622   1.862
 1019WAT    HW1 3056   3.941   3.602   1.853
 1019WAT    HW2 3057   4.038   3.718   1.862
 1020WAT     OW 3058   5.764   6.671   3.686
 1020WAT    HW1 3059   5.682   6.666   3.735
 1020WAT    HW2 3060   5.739   6.698   3.598
 1021WAT     OW 3061   2.839   6.163   4.827
 1021WAT    HW1 3062   2.777   6.091   4.816
 1021WAT    HW2 3063   2.879   6.173   4.740
 1022WAT     OW 3064   3.274   1.728   6.324
 1022WAT    HW1 3065   3.283   1.785   6.247
 1022WAT    HW2 3066   3.219   1.779   6.384
 1023WAT     OW 3067   1.130   3.006   2.795
 1023WAT    HW1 3068   1.153   3.075   2.733
 1023WAT    HW2 3069   1.040   3.026   2.822
 1024WAT     OW 3070   1.374   3.267   5.158
 1024WAT    HW1 3071   1.393   3.195   5.099
 1024WAT    HW2 3072   1.453   3.278   5.210
 1025WAT     OW 3073   5.279   6.357   6.528
 1025WAT    HW1 3074   5.219   6.298   6.574
 1025WAT    HW2 3075   5.292   6.430   6.588
 1026WAT     OW 3076   6.203   6.395   2.236
 1026WAT    HW1 3077   6.278   6.366   2.183
 1026WAT    HW2 3078   6.223   6.365   2.324
 1027WAT     OW 3079   0.283   0.792   2.809
 1027WAT    HW1 3080   0.343   0.727   2.845
 1027WAT    HW2 3081   0.220   0.807   2.879
 1028WAT     OW 3082   2.026   1.205   4.338
 1028WAT    HW1 3083   2.085   1.244   4.274
 1028WAT    HW2 3084   2.057   1.115   4.348
 1029WAT     OW 3085   1.298   2.868   1.257
 1029WAT    HW1 3086   1.322   2.955   1.288
 1029WAT    HW2 3087   1.263   2.883   1.169
 1030WAT     OW 3088   2.386   5.362   4.605
 1030WAT    HW1 3089   2.391   5.348   4.510
 1030WAT    HW2 3090   2.435   5.443   4.619
 1031WAT     OW 3091   1.627   5.409   6.435
 1031WAT    HW1 3092   1.570   5.412   6.512
 1031WAT    HW2 3093   1.682   5.332   6.449
 1032WAT     OW 3094   5.986   5.148   0.055
 1032WAT    HW1 3095   6.035   5.221   0.018
 1032WAT    HW2 3096   6.051   5.080   0.071
 1033WAT     OW 3097   6.133   1.102   5.631
 1033WAT    HW1 3098   6.186   1.048   5.690
 1033WAT    HW2 3099   6.089   1.165   5.689
 1034WAT     OW 3100   5.782   5.805   0.078
 1034WAT    HW1 3101   5.766   5.724   0.030
 1034WAT    HW2 3102   5.825   5.862   0.014
 1035WAT     OW 3103   1.791   3.347   0.678
 1035WAT    HW1 3104   1.854   3.278   0.658
 1035WAT    HW2 3105   1.785   3.398   0.598
 1036WAT     OW 3106   5.110   4.662   2.106
 1036WAT    HW1 3107   5.021   4.698   2.112
 1036WAT    HW2 3108   5.144   4.696   2.023
 1037WAT     OW 3109   1.412   1.106   0.592
 1037WAT    HW1 3110   1.321   1.120   0.620
 1037WAT    HW2 3111   1.418   1.153   0.508
 1038WAT     OW 3112   0.808   6.695   2.466
 1038WAT    HW1 3113   0.778   6.610   2.497
 1038WAT    HW2 3114   0.813   6.749   2.545
 1039WAT     OW 3115   1.735   3.163   2.749
 1039WAT    HW1 3116   1.748   3.112   2.829
 1039WAT    HW2 3117   1.640   3.176   2.744
 1040WAT     OW 3118   2.918   2.894   2.315
 1040WAT    HW1 3119   2.999   2.936   2.343
 1040WAT    HW2 3120   2.945   2.809   2.281
 1041WAT     OW 3121   6.178   4.722   3.316
 1041WAT    HW1 3122   6.192   4.792   3.252
 1041WAT    HW2 3123   6.090   4.739   3.351
 1042WAT     OW 3124   5.764   0.048   3.157
 1042WAT    HW1 3125   5.815   0.127   3.136
 1042WAT    HW2 3126   5.737   0.014   3.071
 1043WAT     OW 3127   0.918   6.720   5.397
 1043WAT    HW1 3128   0.993   6.669   5.365
 1043WAT    HW2 3129   0.870   6.659   5.452
 1044WAT     OW 3130   3.748   2.707   1.210
 1044WAT    HW1 3131   3.703   2.764   1.273
 1044WAT    HW2 3132   3.683   2.641   1.186
 1045WAT     OW 3133   2.293   5.840   5.511
 1045WAT    HW1 3134   2.223   5.899   5.484
 1045WAT    HW2 3135   2.330   5.880   5.589
 1046WAT     OW 3136   2.434   3.869   1.766
 1046WAT    HW1 3137   2.375   3.819   1.710
 1046WAT    HW2 3138   2.487   3.804   1.812
 1047WAT     OW 3139   1.306   4.065   4.137
 1047WAT    HW1 3140   1.285   4.159   4.139
 1047WAT    HW2 3141   1.286   4.038   4.047
 1048WAT     OW 3142   3.354   3.738   4.995
 1048WAT    HW1 3143   3.403   3.657   5.010
 1048WAT    HW2 3144   3.287   3.738   5.062
 1049WAT     OW 3145   2.619   6.101   0.049
 1049WAT    HW1 3146   2.550   6.035   0.051
 1049WAT    HW2 3147   2.699   6.051   0.066
 1050WAT     OW 3148   0.534   1.157   3.405
 1050WAT    HW1 3149   0.628   1.171   3.417
 1050WAT    HW2 3150   0.515   1.194   3.318
 1051WAT     OW 3151   2.839   4.890   2.804
 1051WAT    HW1 3152   2.810   4.802   2.781
 1051WAT    HW2 3153   2.814   4.944   2.729
 1052WAT     OW 3154   0.219   3.652   2.388
 1052WAT    HW1 3155   0.214   3.563   2.352
 1052WAT    HW2 3156   0.313   3.670   2.394
 1053WAT     OW 3157   1.666   3.878   3.293
 1053WAT    HW1 3158   1.737   3.901   3.352
 1053WAT    HW2 3159   1.707   3.826   3.224
 1054WAT     OW 3160   0.091   4.012   3.763
 1054WAT    HW1 3161   0.050   3.955   3.698
 1054WAT    HW2 3162   0.185   4.003   3.748
 1055WAT     OW 3163   5.479   2.441   3.525
 1055WAT    HW1 3164   5.429   2.509   3.570
 1055WAT    HW2 3165   5.466   2.362   3.579
 1056WAT     OW 3166   4.837   3.508   4.414
 1056WAT    HW1 3167   4.823   3.513   4.508
 1056WAT    HW2 3168   4.867   3.419   4.399
 1057WAT     OW 3169   0.804   2.195   6.363
 1057WAT    HW1 3170   0.731   2.160   6.414
 1057WAT    HW2 3171   0.808   2.139   6.285
 1058WAT     OW 3172   0.644   2.803   6.225
 1058WAT    HW1 3173   0.612   2.890   6.248
 1058WAT    HW2 3174   0.567   2.746   6.232
 1059WAT     OW 3175   5.909   5.803   3.290
 1059WAT    HW1 3176   5.851   5.781   3.363
 1059WAT    HW2 3177   5.992   5.825   3.332
 1060WAT     OW 3178   4.038   2.388   4.382
 1060WAT    HW1 3179   4.044   2.352   4.471
 1060WAT    HW2 3180   4.017   2.313   4.327
 1061WAT     OW 3181   4.538   5.420   6.571
 1061WAT    HW1 3182   4.558   5.439   6.663
 1061WAT    HW2 3183   4.480   5.490   6.544
 1062WAT     OW 3184   3.695   5.475   0.356
 1062WAT    HW1 3185   3.671   5.517   0.438
 1062WAT    HW2 3186   3.780   5.512   0.334
 1063WAT     OW 3187   2.557   2.640   1.464
 1063WAT    HW1 3188   2.571   2.639   1.370
 1063WAT    HW2 3189   2.542   2.548   1.487
 1064WAT     OW 3190   3.746   3.536   6.256
 1064WAT    HW1 3191   3.817   3.586   6.216
 1064WAT    HW2 3192   3.773   3.524   6.347
 1065WAT     OW 3193   3.989   5.836   3.091
 1065WAT    HW1 3194   3.937   5.779   3.034
 1065WAT    HW2 3195   3.928   5.906   3.115
 1066WAT     OW 3196   5.848   0.192   4.858
 1066WAT    HW1 3197   5.770   0.142   4.881
 1066WAT    HW2 3198   5.835   0.277   4.899
 1067WAT     OW 3199   6.503   2.050   6.484
 1067WAT    HW1 3200   6.429   2.108   6.503
 1067WAT    HW2 3201   6.512   2.053   6.389
 1068WAT     OW 3202   5.230   4.048   4.806
 1068WAT    HW1 3203   5.249   3.999   4.886
 1068WAT    HW2 3204   5.235   4.140   4.832
 1069WAT     OW 3205   5.973   1.639   3.387
 1069WAT    HW1 3206   5.986   1.718   3.335
 1069WAT    HW2 3207   5.880   1.640   3.410
 1070WAT     OW 3208   2.046   4.744   5.606
 1070WAT    HW1 3209   2.083   4.686   5.540
 1070WAT    HW2 3210   1.952   4.734   5.597
 1071WAT     OW 3211   3.364   2.182   2.252
 1071WAT    HW1 3212   3.431   2.209   2.315
 1071WAT    HW2 3213   3.357   2.087   2.264
 1072WAT     OW 3214   2.876   1.934   5.757
 1072WAT    HW1 3215   2.950   1.889   5.716
 1072WAT    HW2 3216   2.909   2.021   5.776
 1073WAT     OW 3217   0.845   5.953   2.062
 1073WAT    HW1 3218   0.808   6.011   2.128
 1073WAT    HW2 3219   0.819   5.865   2.090
 1074WAT     OW 3220   4.739   3.217   0.525
 1074WAT    HW1 3221   4.772   3.226   0.436
 1074WAT    HW2 3222   4.728   3.307   0.556
 1075WAT     OW 3223   0.493   3.893   1.765
 1075WAT    HW1 3224   0.514   3.937   1.847
 1075WAT    HW2 3225   0.401   3.913   1.750
 1076WAT     OW 3226   0.523   6.017   5.450
 1076WAT    HW1 3227   0.504   6.015   5.544
 1076WAT    HW2 3228   0.537   6.110   5.430
 1077WAT     OW 3229   0.187   4.694   3.166
 1077WAT    HW1 3230   0.140   4.723   3.088
 1077WAT    HW2 3231   0.262   4.646   3.132
 1078WAT     OW 3232   1.736   5.328   3.237
 1078WAT    HW1 3233   1.778   5.413   3.252
 1078WAT    HW2 3234   1.800   5.278   3.186
 1079WAT     OW 3235   2.683   6.128   3.587
 1079WAT    HW1 3236   2.660   6.041   3.555
 1079WAT    HW2 3237   2.616   6.186   3.551
 1080WAT     OW 3238   1.788   4.745   6.653
 1080WAT    HW1 3239   1.789   4.659   6.611
 1080WAT    HW2 3240   1.698   4.756   6.683
 1081WAT     OW 3241   6.292   2.063   0.020
 1081WAT    HW1 3242   6.245   2.124   0.076
 1081WAT    HW2 3243   6.284   2.100  -0.068
 1082WAT     OW 3244   2.431   6.628   1.224
 1082WAT    HW1 3245   2.357   6.632   1.285
 1082WAT    HW2 3246   2.452   6.535   1.218
 1083WAT     OW 3247   4.367   0.954   5.469
 1083WAT    HW1 3248   4.318   0.947   5.387
 1083WAT    HW2 3249   4.355   1.044   5.497
 1084WAT     OW 3250   3.339   0.670   6.157
 1084WAT    HW1 3251   3.244   0.674   6.151
 1084WAT    HW2 3252   3.357   0.582   6.190
 1085WAT     OW 3253   4.448   4.274   1.981
 1085WAT    HW1 3254   4.451   4.214   2.055
 1085WAT    HW2 3255   4.386   4.234   1.920
 1086WAT     OW 3256   5.318   0.411   4.709
 1086WAT    HW1 3257   5.387   0.389   4.772
 1086WAT    HW2 3258   5.356   0.481   4.656
 1087WAT     OW 3259   1.248   1.123   6.160
 1087WAT    HW1 3260   1.287   1.037   6.148
 1087WAT    HW2 3261   1.154   1.109   6.145
 1088WAT     OW 3262   4.292   5.183   4.870
 1088WAT    HW1 3263   4.287   5.259   4.812
 1088WAT    HW2 3264   4.383   5.153   4.862
 1089WAT     OW 3265   6.571   2.661   6.650
 1089WAT    HW1 3266   6.606   2.572   6.647
 1089WAT    HW2 3267   6.591   2.692   6.738
 1090WAT     OW 3268   4.842   6.402   1.194
 1090WAT    HW1 3269   4.781   6.360   1.254
 1090WAT    HW2 3270   4.842   6.347   1.116
 1091WAT     OW 3271   2.058   4.926   3.563
 1091WAT    HW1 3272   2.002   5.002   3.549
 1091WAT    HW2 3273   2.102   4.913   3.479
 1092WAT     OW 3274   3.961   3.491   3.058
 1092WAT    HW1 3275   3.989   3.406   3.023
 1092WAT    HW2 3276   3.983   3.553   2.989
 1093WAT     OW 3277   3.248   0.345   0.947
 1093WAT    HW1 3278   3.182   0.366   0.881
 1093WAT    HW2 3279   3.199   0.325   1.026
 1094WAT     OW 3280   1.240   5.364   5.418
 1094WAT    HW1 3281   1.198   5.279   5.428
 1094WAT    HW2 3282   1.297   5.354   5.342
 1095WAT     OW 3283   2.093   0.206   6.319
 1095WAT    HW1 3284   2.165   0.198   6.256
 1095WAT    HW2 3285   2.044   0.282   6.290
 1096WAT     OW 3286   4.578   6.264   2.952
 1096WAT    HW1 3287   4.503   6.209   2.931
 1096WAT    HW2 3288   4.623   6.218   3.023
 1097WAT     OW 3289   1.555   6.549   2.761
 1097WAT    HW1 3290   1.553   6.585   2.850
 1097WAT    HW2 3291   1.645   6.520   2.749
 1098WAT     OW 3292   5.652   1.184   2.479
 1098WAT    HW1 3293   5.731   1.231   2.507
 1098WAT    HW2 3294   5.649   1.106   2.534
 1099WAT     OW 3295   3.651   3.164   3.974
 1099WAT    HW1 3296   3.737   3.157   3.933
 1099WAT    HW2 3297   3.590   3.140   3.904
 1100WAT     OW 3298   6.217   1.612   6.076
 1100WAT    HW1 3299   6.162   1.552   6.126
 1100WAT    HW2 3300   6.203   1.588   5.985
 1101WAT     OW 3301   3.655   3.789   2.349
 1101WAT    HW1 3302   3.599   3.811   2.275
 1101WAT    HW2 3303   3.600   3.803   2.426
 1102WAT     OW 3304   3.692   3.745   6.533
 1102WAT    HW1 3305   3.711   3.819   6.477
 1102WAT    HW2 3306   3.768   3.688   6.525
 1103WAT     OW 3307   0.469   5.736   3.403
 1103WAT    HW1 3308   0.413   5.742   3.481
 1103WAT    HW2 3309   0.415   5.771   3.332
 1104WAT     OW 3310   5.891   5.052   1.721
 1104WAT    HW1 3311   5.977   5.012   1.705
 1104WAT    HW2 3312   5.875   5.106   1.643
 1105WAT     OW 3313   5.275   0.101   4.222
 1105WAT    HW1 3314   5.192   0.124   4.265
 1105WAT    HW2 3315   5.340   0.156   4.266
 1106WAT     OW 3316   5.223   3.376   3.933
 1106WAT    HW1 3317   5.239   3.405   4.023
 1106WAT    HW2 3318   5.220   3.457   3.882
 1107WAT     OW 3319   2.215   5.575   1.010
 1107WAT    HW1 3320   2.127   5.579   0.973
 1107WAT    HW2 3321   2.222   5.655   1.063
 1108WAT     OW 3322   1.926   6.330   6.197
 1108WAT    HW1 3323   2.005   6.372   6.230
 1108WAT    HW2 3324   1.938   6.237   6.217
 1109WAT     OW 3325   4.685   4.147   5.150
 1109WAT    HW1 3326   4.608   4.157   5.094
 1109WAT    HW2 3327   4.755   4.193   5.103
 1110WAT     OW 3328   1.465   0.329   4.415
 1110WAT    HW1 3329   1.507   0.243   4.421
 1110WAT    HW2 3330   1.418   0.327   4.332
 1111WAT     OW 3331   2.432   4.826   6.230
 1111WAT    HW1 3332   2.372   4.797   6.161
 1111WAT    HW2 3333   2.501   4.873   6.183
 1112WAT     OW 3334   0.400   3.558   1.322
 1112WAT    HW1 3335   0.471   3.494   1.315
 1112WAT    HW2 3336   0.330   3.521   1.269
 1113WAT     OW 3337   2.780   1.620   1.047
 1113WAT    HW1 3338   2.718   1.641   0.977
 1113WAT    HW2 3339   2.783   1.524   1.047
 1114WAT     OW 3340   4.147   3.139   4.229
 1114WAT    HW1 3341   4.148   3.053   4.271
 1114WAT    HW2 3342   4.179   3.122   4.141
 1115WAT     OW 3343   0.893   2.930   6.433
 1115WAT    HW1 3344   0.986   2.907   6.433
 1115WAT    HW2 3345   0.883   2.990   6.359
 1116WAT     OW 3346   5.684   5.303   1.228
 1116WAT    HW1 3347   5.695   5.214   1.194
 1116WAT    HW2 3348   5.773   5.333   1.247
 1117WAT     OW 3349   3.366   3.430   1.839
 1117WAT    HW1 3350   3.296   3.439   1.774
 1117WAT    HW2 3351   3.439   3.481   1.803
 1118WAT     OW 3352   2.098   2.099   1.626
 1118WAT    HW1 3353   2.138   2.056   1.701
 1118WAT    HW2 3354   2.081   2.028   1.563
 1119WAT     OW 3355   6.262   0.585   2.859
 1119WAT    HW1 3356   6.284   0.492   2.869
 1119WAT    HW2 3357   6.172   0.591   2.891
 1120WAT     OW 3358   4.875   4.655   0.384
 1120WAT    HW1 3359   4.816   4.623   0.452
 1120WAT    HW2 3360   4.952   4.686   0.433
 1121WAT     OW 3361   1.534   3.072   4.024
 1121WAT    HW1 3362   1.542   3.039   3.934
 1121WAT    HW2 3363   1.566   3.001   4.079
 1122WAT     OW 3364   6.513   5.435   1.216
 1122WAT    HW1 3365   6.511   5.350   1.171
 1122WAT    HW2 3366   6.490   5.499   1.149
 1123WAT     OW 3367   4.160   1.437   1.160
 1123WAT    HW1 3368   4.221   1.393   1.101
 1123WAT    HW2 3369   4.086   1.377   1.167
 1124WAT     OW 3370   4.877   2.218   5.267
 1124WAT    HW1 3371   4.961   2.178   5.291
 1124WAT    HW2 3372   4.822   2.206   5.345
 1125WAT     OW 3373   0.555   2.070   4.693
 1125WAT    HW1 3374   0.502   2.040   4.618
 1125WAT    HW2 3375   0.626   2.006   4.699
 1126WAT     OW 3376   0.199   0.719   0.883
 1126WAT    HW1 3377   0.170   0.775   0.956
 1126WAT    HW2 3378   0.252   0.776   0.828
 1127WAT     OW 3379   2.540   0.946   4.879
 1127WAT    HW1 3380   2.594   1.008   4.928
 1127WAT    HW2 3381   2.600   0.906   4.816
 1128WAT     OW 3382   3.870   2.380   2.751
 1128WAT    HW1 3383   3.945   2.360   2.807
 1128WAT    HW2 3384   3.822   2.447   2.798
 1129WAT     OW 3385   1.792   4.311   5.276
 1129WAT    HW1 3386   1.856   4.320   5.205
 1129WAT    HW2 3387   1.709   4.337   5.236
 1130WAT     OW 3388   6.198   6.234   5.423
 1130WAT    HW1 3389   6.185   6.287   5.345
 1130WAT    HW2 3390   6.196   6.143   5.392
 1131WAT     OW 3391   6.489   0.637   0.151
 1131WAT    HW1 3392   6.516   0.545   0.154
 1131WAT    HW2 3393   6.482   0.663   0.243
 1132WAT     OW 3394   1.558   6.265   2.422
 1132WAT    HW1 3395   1.629   6.206   2.396
 1132WAT    HW2 3396   1.514   6.219   2.493
 1133WAT     OW 3397   6.305   4.770   6.081
 1133WAT    HW1 3398   6.327   4.863   6.086
 1133WAT    HW2 3399   6.289   4.754   5.988
 1134WAT     OW 3400   5.102   5.873   4.009
 1134WAT    HW1 3401   5.106   5.778   4.012
 1134WAT    HW2 3402   5.037   5.892   3.942
 1135WAT     OW 3403   1.354   1.673   3.257
 1135WAT    HW1 3404   1.357   1.719   3.174
 1135WAT    HW2 3405   1.416   1.600   3.247
 1136WAT     OW 3406   3.988   6.292   0.406
 1136WAT    HW1 3407   3.914   6.350   0.385
 1136WAT    HW2 3408   3.950   6.205   0.411
 1137WAT     OW 3409   0.808   1.960   4.451
 1137WAT    HW1 3410   0.819   1.942   4.544
 1137WAT    HW2 3411   0.787   2.053   4.446
 1138WAT     OW 3412   4.216   2.067   6.022
 1138WAT    HW1 3413   4.153   2.063   5.951
 1138WAT    HW2 3414   4.274   2.140   5.999
 1139WAT     OW 3415   4.367   0.552   3.976
 1139WAT    HW1 3416   4.309   0.592   3.911
 1139WAT    HW2 3417   4.372   0.460   3.951
 1140WAT     OW 3418   2.098   0.670   1.610
 1140WAT    HW1 3419   2.168   0.629   1.560
 1140WAT    HW2 3420   2.087   0.614   1.687
 1141WAT     OW 3421   0.685   5.872   4.219
 1141WAT    HW1 3422   0.759   5.833   4.265
 1141WAT    HW2 3423   0.673   5.817   4.142
 1142WAT     OW 3424   2.211   5.112   3.710
 1142WAT    HW1 3425   2.241   5.144   3.625
 1142WAT    HW2 3426   2.147   5.044   3.688
 1143WAT     OW 3427   0.152   1.595   4.137
 1143WAT    HW1 3428   0.189   1.621   4.222
 1143WAT    HW2 3429   0.059   1.580   4.154
 1144WAT     OW 3430   3.034   1.877   2.592
 1144WAT    HW1 3431   3.112   1.876   2.648
 1144WAT    HW2 3432   3.028   1.967   2.560
 1145WAT     OW 3433   5.057   4.746   5.476
 1145WAT    HW1 3434   4.987   4.761   5.413
 1145WAT    HW2 3435   5.042   4.811   5.545
 1146WAT     OW 3436   2.138   4.565   2.984
 1146WAT    HW1 3437   2.075   4.531   3.048
 1146WAT    HW2 3438   2.086   4.583   2.906
 1147WAT     OW 3439   1.822   6.471   2.811
 1147WAT    HW1 3440   1.879   6.409   2.855
 1147WAT    HW2 3441   1.840   6.555   2.853
 1148WAT     OW 3442   6.615   1.552   4.168
 1148WAT    HW1 3443   6.591   1.486   4.102
 1148WAT    HW2 3444   6.610   1.505   4.251
 1149WAT     OW 3445   4.065   4.352   2.014
 1149WAT    HW1 3446   4.046   4.375   1.923
 1149WAT    HW2 3447   4.071   4.437   2.059
 1150WAT     OW 3448   6.132   5.267   1.392
 1150WAT    HW1 3449   6.205   5.205   1.389
 1150WAT    HW2 3450   6.164   5.340   1.445
 1151WAT     OW 3451   1.680   2.525   5.281
 1151WAT    HW1 3452   1.629   2.606   5.286
 1151WAT    HW2 3453   1.770   2.553   5.302
 1152WAT     OW 3454   5.686   4.392   2.726
 1152WAT    HW1 3455   5.627   4.357   2.793
 1152WAT    HW2 3456   5.629   4.445   2.670
 1153WAT     OW 3457   3.663   0.013   5.628
 1153WAT    HW1 3458   3.668   0.071   5.704
 1153WAT    HW2 3459   3.572   0.019   5.599
 1154WAT     OW 3460   1.183   5.637   1.595
 1154WAT    HW1 3461   1.183   5.623   1.500
 1154WAT    HW2 3462   1.099   5.681   1.612
 1155WAT     OW 3463   2.794   1.219   3.110
 1155WAT    HW1 3464   2.716   1.219   3.166
 1155WAT    HW2 3465   2.864   1.253   3.167
 1156WAT     OW 3466   5.331   3.435   6.569
 1156WAT    HW1 3467   5.353   3.342   6.582
 1156WAT    HW2 3468   5.248   3.446   6.615
 1157WAT     OW 3469   3.663   3.850   5.663
 1157WAT    HW1 3470   3.671   3.931   5.613
 1157WAT    HW2 3471   3.595   3.800   5.618
 1158WAT     OW 3472   2.597   3.893   3.296
 1158WAT    HW1 3473   2.561   3.825   3.354
 1158WAT    HW2 3474   2.534   3.900   3.225
 1159WAT     OW 3475   1.900   1.251   0.576
 1159WAT    HW1 3476   1.816   1.272   0.616
 1159WAT    HW2 3477   1.965   1.296   0.630
 1160WAT     OW 3478   0.637   4.992   4.220
 1160WAT    HW1 3479   0.701   5.058   4.195
 1160WAT    HW2 3480   0.555   5.040   4.228
 1161WAT     OW 3481   0.691   3.655   5.453
 1161WAT    HW1 3482   0.645   3.627   5.532
 1161WAT    HW2 3483   0.742   3.578   5.427
 1162WAT     OW 3484   1.320   6.587   3.199
 1162WAT    HW1 3485   1.309   6.533   3.121
 1162WAT    HW2 3486   1.319   6.525   3.272
 1163WAT     OW 3487   1.663   2.779   1.911
 1163WAT    HW1 3488   1.700   2.828   1.837
 1163WAT    HW2 3489   1.568   2.790   1.902
 1164WAT     OW 3490   3.785   3.797   0.606
 1164WAT    HW1 3491   3.759   3.780   0.697
 1164WAT    HW2 3492   3.878   3.774   0.603
 1165WAT     OW 3493   2.445   1.213   4.603
 1165WAT    HW1 3494   2.470   1.122   4.587
 1165WAT    HW2 3495   2.495   1.238   4.680
 1166WAT     OW 3496   3.174   3.073   4.886
 1166WAT    HW1 3497   3.173   3.167   4.899
 1166WAT    HW2 3498   3.082   3.050   4.870
 1167WAT     OW 3499   5.052   3.394   0.884
 1167WAT    HW1 3500   5.103   3.326   0.928
 1167WAT    HW2 3501   5.017   3.448   0.956
 1168WAT     OW 3502   3.402   5.743   1.667
 1168WAT    HW1 3503   3.451   5.668   1.635
 1168WAT    HW2 3504   3.363   5.782   1.588
 1169WAT     OW 3505   1.302   4.908   5.018
 1169WAT    HW1 3506   1.256   4.853   5.082
 1169WAT    HW2 3507   1.271   4.997   5.036
 1170WAT     OW 3508   4.358   2.758   5.598
 1170WAT    HW1 3509   4.264   2.745   5.583
 1170WAT    HW2 3510   4.394   2.775   5.511
 1171WAT     OW 3511   0.913   4.690   5.746
 1171WAT    HW1 3512   0.924   4.785   5.748
 1171WAT    HW2 3513   0.997   4.656   5.717
 1172WAT     OW 3514   3.427   3.615   3.155
 1172WAT    HW1 3515   3.522   3.601   3.151
 1172WAT    HW2 3516   3.414   3.704   3.123
 1173WAT     OW 3517   6.721   6.275   6.267
 1173WAT    HW1 3518   6.671   6.195   6.282
 1173WAT    HW2 3519   6.668   6.327   6.207
 1174WAT     OW 3520   6.299   4.865   2.673
 1174WAT    HW1 3521   6.227   4.801   2.682
 1174WAT    HW2 3522   6.377   4.811   2.663
 1175WAT     OW 3523   4.428   2.293   2.087
 1175WAT    HW1 3524   4.508   2.241   2.094
 1175WAT    HW2 3525   4.456   2.382   2.104
 1176WAT     OW 3526   4.202   1.795   5.528
 1176WAT    HW1 3527   4.266   1.743   5.480
 1176WAT    HW2 3528   4.124   1.740   5.533
 1177WAT     OW 3529   3.230   1.093   4.263
 1177WAT    HW1 3530   3.302   1.041   4.227
 1177WAT    HW2 3531   3.162   1.090   4.196
 1178WAT     OW 3532   6.051   4.926   3.819
 1178WAT    HW1 3533   6.041   4.971   3.735
 1178WAT    HW2 3534   6.146   4.917   3.830
 1179WAT     OW 3535   3.461   1.104   2.095
 1179WAT    HW1 3536   3.422   1.094   2.181
 1179WAT    HW2 3537   3.409   1.047   2.038
 1180WAT     OW 3538   5.190   5.954   5.848
 1180WAT    HW1 3539   5.187   5.869   5.893
 1180WAT    HW2 3540   5.166   5.934   5.758
 1181WAT     OW 3541   5.660   3.274   4.103
 1181WAT    HW1 3542   5.590   3.339   4.107
 1181WAT    HW2 3543   5.686   3.260   4.194
 1182WAT     OW 3544   4.251   6.228   4.284
 1182WAT    HW1 3545   4.198   6.259   4.210
 1182WAT    HW2 3546   4.339   6.218   4.249
 1183WAT     OW 3547   5.982   1.060   3.460
 1183WAT    HW1 3548   5.904   1.005   3.453
 1183WAT    HW2 3549   5.969   1.110   3.541
 1184WAT     OW 3550   1.065   2.105   2.214
 1184WAT    HW1 3551   1.097   2.094   2.304
 1184WAT    HW2 3552   1.133   2.156   2.171
 1185WAT     OW 3553   6.606   6.393   3.798
 1185WAT    HW1 3554   6.590   6.315   3.744
 1185WAT    HW2 3555   6.623   6.463   3.734
 1186WAT     OW 3556   3.855   4.053   2.569
 1186WAT    HW1 3557   3.902   4.109   2.631
 1186WAT    HW2 3558   3.801   3.996   2.624
 1187WAT     OW 3559   2.454   4.645   4.657
 1187WAT    HW1 3560   2.501   4.715   4.702
 1187WAT    HW2 3561   2.363   4.674   4.656
 1188WAT     OW 3562   3.646   3.107   2.069
 1188WAT    HW1 3563   3.729   3.155   2.077
 1188WAT    HW2 3564   3.644   3.077   1.978
 1189WAT     OW 3565   2.189   0.769   2.403
 1189WAT    HW1 3566   2.175   0.801   2.493
 1189WAT    HW2 3567   2.208   0.848   2.353
 1190WAT     OW 3568   2.839   0.622   5.215
 1190WAT    HW1 3569   2.765   0.561   5.206
 1190WAT    HW2 3570   2.884   0.617   5.131
 1191WAT     OW 3571   6.170   3.731   6.342
 1191WAT    HW1 3572   6.136   3.727   6.253
 1191WAT    HW2 3573   6.129   3.809   6.379
 1192WAT     OW 3574   1.770   4.724   5.535
 1192WAT    HW1 3575   1.690   4.673   5.546
 1192WAT    HW2 3576   1.789   4.721   5.441
 1193WAT     OW 3577   6.618   1.785   4.006
 1193WAT    HW1 3578   6.705   1.779   3.968
 1193WAT    HW2 3579   6.613   1.710   4.066
 1194WAT     OW 3580   3.399   2.956   2.079
 1194WAT    HW1 3581   3.354   2.980   1.998
 1194WAT    HW2 3582   3.474   3.016   2.083
 1195WAT     OW 3583   1.847   5.590   2.812
 1195WAT    HW1 3584   1.768   5.561   2.856
 1195WAT    HW2 3585   1.815   5.641   2.738
 1196WAT     OW 3586   0.783   3.466   6.008
 1196WAT    HW1 3587   0.863   3.458   6.061
 1196WAT    HW2 3588   0.814   3.490   5.921
 1197WAT     OW 3589   0.757   2.755   5.980
 1197WAT    HW1 3590   0.721   2.775   6.066
 1197WAT    HW2 3591   0.729   2.665   5.963
 1198WAT     OW 3592   5.886   1.957   5.576
 1198WAT    HW1 3593   5.834   1.876   5.580
 1198WAT    HW2 3594   5.965   1.937   5.627
 1199WAT     OW 3595   4.653   3.968   3.123
 1199WAT    HW1 3596   4.575   3.924   3.156
 1199WAT    HW2 3597   4.684   3.913   3.051
 1200WAT     OW 3598   3.536   0.074   4.251
 1200WAT    HW1 3599   3.538  -0.010   4.205
 1200WAT    HW2 3600   3.554   0.139   4.183
 1201WAT     OW 3601   3.198   0.093   3.358
 1201WAT    HW1 3602   3.150   0.127   3.434
 1201WAT    HW2 3603   3.194  -0.002   3.367
 1202WAT     OW 3604   4.630   2.108   2.091
 1202WAT    HW1 3605   4.583   2.025   2.104
 1202WAT    HW2 3606   4.680   2.095   2.011
 1203WAT     OW 3607   6.271   2.313   1.276
 1203WAT    HW1 3608   6.234   2.399   1.258
 1203WAT    HW2 3609   6.364   2.330   1.294
 1204WAT     OW 3610   0.410   4.390   2.006
 1204WAT    HW1 3611   0.320   4.368   1.983
 1204WAT    HW2 3612   0.428   4.471   1.958
 1205WAT     OW 3613   4.554   5.096   5.325
 1205WAT    HW1 3614   4.486   5.044   5.367
 1205WAT    HW2 3615   4.629   5.089   5.384
 1206WAT     OW 3616   6.493   0.146   6.302
 1206WAT    HW1 3617   6.447   0.123   6.383
 1206WAT    HW2 3618   6.457   0.231   6.277
 1207WAT     OW 3619   6.481   3.539   1.757
 1207WAT    HW1 3620   6.406   3.586   1.794
 1207WAT    HW2 3621   6.503   3.589   1.678
 1208WAT     OW 3622   0.405   5.776   5.409
 1208WAT    HW1 3623   0.316   5.778   5.445
 1208WAT    HW2 3624   0.436   5.866   5.417
 1209WAT     OW 3625   1.421   4.792   2.217
 1209WAT    HW1 3626   1.492   4.759   2.272
 1209WAT    HW2 3627   1.395   4.717   2.164
 1210WAT     OW 3628   2.202   3.455   2.669
 1210WAT    HW1 3629   2.244   3.536   2.697
 1210WAT    HW2 3630   2.259   3.421   2.600
 1211WAT     OW 3631   3.901   6.399   5.104
 1211WAT    HW1 3632   3.925   6.450   5.182
 1211WAT    HW2 3633   3.834   6.339   5.136
 1212WAT     OW 3634   5.737   1.107   1.227
 1212WAT    HW1 3635   5.685   1.146   1.297
 1212WAT    HW2 3636   5.674   1.068   1.168
 1213WAT     OW 3637   1.158   2.818   4.735
 1213WAT    HW1 3638   1.191   2.816   4.645
 1213WAT    HW2 3639   1.202   2.746   4.779
 1214WAT     OW 3640   1.987   5.571   5.143
 1214WAT    HW1 3641   1.897   5.601   5.127
 1214WAT    HW2 3642   1.977   5.486   5.185
 1215WAT     OW 3643   2.152   0.191   2.483
 1215WAT    HW1 3644   2.185   0.107   2.452
 1215WAT    HW2 3645   2.061   0.194   2.453
 1216WAT     OW 3646   0.307   0.479   5.480
 1216WAT    HW1 3647   0.224   0.521   5.458
 1216WAT    HW2 3648   0.327   0.422   5.406
 1217WAT     OW 3649   1.439   5.326   4.706
 1217WAT    HW1 3650   1.523   5.328   4.753
 1217WAT    HW2 3651   1.463   5.339   4.614
 1218WAT     OW 3652   4.292   5.286   0.077
 1218WAT    HW1 3653   4.343   5.290   0.158
 1218WAT    HW2 3654   4.205   5.257   0.105
 1219WAT     OW 3655   3.164   4.037   3.343
 1219WAT    HW1 3656   3.094   4.000   3.396
 1219WAT    HW2 3657   3.131   4.032   3.253
 1220WAT     OW 3658   0.968   3.838   4.521
 1220WAT    HW1 3659   1.035   3.906   4.527
 1220WAT    HW2 3660   0.932   3.831   4.609
 1221WAT     OW 3661   1.076   5.760   3.190
 1221WAT    HW1 3662   1.146   5.798   3.244
 1221WAT    HW2 3663   1.034   5.697   3.248
 1222WAT     OW 3664   2.865   3.154   3.047
 1222WAT    HW1 3665   2.789   3.113   3.006
 1222WAT    HW2 3666   2.909   3.201   2.977
 1223WAT     OW 3667   3.361   1.420   2.939
 1223WAT    HW1 3668   3.328   1.439   2.851
 1223WAT    HW2 3669   3.422   1.491   2.958
 1224WAT     OW 3670   3.072   3.788   4.704
 1224WAT    HW1 3671   3.019   3.810   4.781
 1224WAT    HW2 3672   3.075   3.692   4.705
 1225WAT     OW 3673   1.364   1.805   3.019
 1225WAT    HW1 3674   1.341   1.805   2.926
 1225WAT    HW2 3675   1.380   1.897   3.040
 1226WAT     OW 3676   5.779   2.702   2.488
 1226WAT    HW1 3677   5.732   2.620   2.472
 1226WAT    HW2 3678   5.805   2.733   2.401
 1227WAT     OW 3679   1.118   4.541   0.239
 1227WAT    HW1 3680   1.050   4.473   0.238
 1227WAT    HW2 3681   1.159   4.535   0.153
 1228WAT     OW 3682   1.531   1.471   0.000
 1228WAT    HW1 3683   1.445   1.437   0.025
 1228WAT    HW2 3684   1.527   1.564   0.021
 1229WAT     OW 3685   1.580   2.783   6.588
 1229WAT    HW1 3686   1.588   2.739   6.673
 1229WAT    HW2 3687   1.487   2.806   6.582
 1230WAT     OW 3688   6.636   1.281   0.083
 1230WAT    HW1 3689   6.684   1.238   0.013
 1230WAT    HW2 3690   6.594   1.210   0.132
 1231WAT     OW 3691   3.648   0.807   0.848
 1231WAT    HW1 3692   3.657   0.785   0.755
 1231WAT    HW2 3693   3.569   0.761   0.876
 1232WAT     OW 3694   4.262   1.011   1.273
 1232WAT    HW1 3695   4.208   0.982   1.346
 1232WAT    HW2 3696   4.202   1.017   1.198
 1233WAT     OW 3697   0.935   2.118   3.089
 1233WAT    HW1 3698   0.998   2.058   3.129
 1233WAT    HW2 3699   0.974   2.141   3.004
 1234WAT     OW 3700   4.998   5.066   4.134
 1234WAT    HW1 3701   4.953   4.988   4.164
 1234WAT    HW2 3702   4.989   5.129   4.207
 1235WAT     OW 3703   2.169   1.290   3.674
 1235WAT    HW1 3704   2.253   1.335   3.683
 1235WAT    HW2 3705   2.192   1.202   3.645
 1236WAT     OW 3706   6.255   4.730   5.817
 1236WAT    HW1 3707   6.322   4.665   5.796
 1236WAT    HW2 3708   6.181   4.708   5.760
 1237WAT     OW 3709   0.270   3.293   4.229
 1237WAT    HW1 3710   0.196   3.349   4.252
 1237WAT    HW2 3711   0.335   3.311   4.297
 1238WAT     OW 3712   6.029   0.377   2.094
 1238WAT    HW1 3713   6.004   0.409   2.181
 1238WAT    HW2 3714   6.110   0.328   2.108
 1239WAT     OW 3715   1.442   4.826   5.939
 1239WAT    HW1 3716   1.526   4.797   5.905
 1239WAT    HW2 3717   1.392   4.745   5.951
 1240WAT     OW 3718   3.776   1.562   6.215
 1240WAT    HW1 3719   3.732   1.583   6.297
 1240WAT    HW2 3720   3.766   1.641   6.162
 1241WAT     OW 3721   1.380   4.499   5.379
 1241WAT    HW1 3722   1.315   4.501   5.308
 1241WAT    HW2 3723   1.367   4.413   5.420
 1242WAT     OW 3724   6.455   1.585   1.502
 1242WAT    HW1 3725   6.462   1.508   1.558
 1242WAT    HW2 3726   6.539   1.589   1.456
 1243WAT     OW 3727   1.243   6.478   5.679
 1243WAT    HW1 3728   1.301   6.487   5.755
 1243WAT    HW2 3729   1.272   6.397   5.637
 1244WAT     OW 3730   1.916   4.635   0.404
 1244WAT    HW1 3731   1.900   4.564   0.466
 1244WAT    HW2 3732   2.002   4.669   0.429
 1245WAT     OW 3733   1.364   2.515   0.728
 1245WAT    HW1 3734   1.393   2.552   0.812
 1245WAT    HW2 3735   1.318   2.587   0.685
 1246WAT     OW 3736   4.021   4.398   0.657
 1246WAT    HW1 3737   4.040   4.397   0.564
 1246WAT    HW2 3738   4.094   4.351   0.698
 1247WAT     OW 3739   2.927   0.643   0.967
 1247WAT    HW1 3740   2.924   0.660   0.873
 1247WAT    HW2 3741   3.019   0.652   0.990
 1248WAT     OW 3742   0.145   1.403   1.736
 1248WAT    HW1 3743   0.231   1.430   1.769
 1248WAT    HW2 3744   0.083   1.460   1.781
 1249WAT     OW 3745   4.050   4.839   4.717
 1249WAT    HW1 3746   3.973   4.857   4.664
 1249WAT    HW2 3747   4.033   4.753   4.755
 1250WAT     OW 3748   3.990   6.614   4.954
 1250WAT    HW1 3749   3.949   6.545   5.006
 1250WAT    HW2 3750   4.068   6.572   4.916
 1251WAT     OW 3751   1.592   2.807   0.620
 1251WAT    HW1 3752   1.551   2.806   0.707
 1251WAT    HW2 3753   1.623   2.897   0.609
 1252WAT     OW 3754   1.100   5.589   5.328
 1252WAT    HW1 3755   1.040   5.617   5.397
 1252WAT    HW2 3756   1.144   5.512   5.365
 1253WAT     OW 3757   2.869   3.651   6.540
 1253WAT    HW1 3758   2.849   3.744   6.528
 1253WAT    HW2 3759   2.879   3.641   6.635
 1254WAT     OW 3760   2.199   2.911   5.899
 1254WAT    HW1 3761   2.224   2.819   5.908
 1254WAT    HW2 3762   2.104   2.909   5.891
 1255WAT     OW 3763   1.843   3.304   2.038
 1255WAT    HW1 3764   1.764   3.271   1.996
 1255WAT    HW2 3765   1.811   3.360   2.109
 1256WAT     OW 3766   1.939   0.243   6.618
 1256WAT    HW1 3767   1.882   0.176   6.579
 1256WAT    HW2 3768   1.922   0.322   6.566
 1257WAT     OW 3769   1.563   1.243   4.171
 1257WAT    HW1 3770   1.643   1.283   4.205
 1257WAT    HW2 3771   1.593   1.177   4.109
 1258WAT     OW 3772   2.252   3.012   2.093
 1258WAT    HW1 3773   2.205   2.961   2.027
 1258WAT    HW2 3774   2.201   3.093   2.102
 1259WAT     OW 3775   2.143   0.967   6.385
 1259WAT    HW1 3776   2.067   0.910   6.396
 1259WAT    HW2 3777   2.109   1.055   6.400
 1260WAT     OW 3778   2.667   6.053   2.435
 1260WAT    HW1 3779   2.691   6.004   2.356
 1260WAT    HW2 3780   2.730   6.025   2.501
 1261WAT     OW 3781   5.725   5.943   6.191
 1261WAT    HW1 3782   5.696   5.887   6.119
 1261WAT    HW2 3783   5.652   6.003   6.206
 1262WAT     OW 3784   1.240   4.315   4.005
 1262WAT    HW1 3785   1.247   4.407   4.031
 1262WAT    HW2 3786   1.200   4.317   3.918
 1263WAT     OW 3787   5.130   6.287   2.448
 1263WAT    HW1 3788   5.099   6.200   2.472
 1263WAT    HW2 3789   5.052   6.342   2.453
 1264WAT     OW 3790   1.276   2.690   2.198
 1264WAT    HW1 3791   1.316   2.710   2.113
 1264WAT    HW2 3792   1.308   2.759   2.256
 1265WAT     OW 3793   2.682   3.851   0.831
 1265WAT    HW1 3794   2.768   3.830   0.867
 1265WAT    HW2 3795   2.701   3.909   0.757
 1266WAT     OW 3796   4.309   2.430   4.694
 1266WAT    HW1 3797   4.384   2.469   4.738
 1266WAT    HW2 3798   4.242   2.498   4.694
 1267WAT     OW 3799   3.900   3.105   6.550
 1267WAT    HW1 3800   3.965   3.036   6.533
 1267WAT    HW2 3801   3.840   3.065   6.613
 1268WAT     OW 3802   6.311   6.057   2.098
 1268WAT    HW1 3803   6.385   5.998   2.082
 1268WAT    HW2 3804   6.352   6.143   2.105
 1269WAT     OW 3805   5.529   3.038   2.311
 1269WAT    HW1 3806   5.589   2.969   2.281
 1269WAT    HW2 3807   5.465   2.992   2.365
 1270WAT     OW 3808   6.008   0.343   0.224
 1270WAT    HW1 3809   5.983   0.257   0.257
 1270WAT    HW2 3810   6.060   0.382   0.294
 1271WAT     OW 3811   5.621   1.684   1.553
 1271WAT    HW1 3812   5.635   1.604   1.502
 1271WAT    HW2 3813   5.677   1.671   1.631
 1272WAT     OW 3814   6.583   4.078   2.697
 1272WAT    HW1 3815   6.535   4.115   2.772
 1272WAT    HW2 3816   6.674   4.077   2.725
 1273WAT     OW 3817   0.866   3.928   1.258
 1273WAT    HW1 3818   0.920   3.925   1.179
 1273WAT    HW2 3819   0.793   3.869   1.240
 1274WAT     OW 3820   3.981   6.392   6.651
 1274WAT    HW1 3821   4.022   6.377   6.736
 1274WAT    HW2 3822   3.942   6.308   6.628
 1275WAT     OW 3823   3.525   5.749   4.609
 1275WAT    HW1 3824   3.436   5.744   4.644
 1275WAT    HW2 3825   3.545   5.843   4.609
 1276WAT     OW 3826   2.062   2.939   0.740
 1276WAT    HW1 3827   2.055   2.848   0.710
 1276WAT    HW2 3828   2.138   2.940   0.797
 1277WAT     OW 3829   5.116   2.200   5.773
 1277WAT    HW1 3830   5.147   2.137   5.838
 1277WAT    HW2 3831   5.140   2.161   5.689
 1278WAT     OW 3832   2.235   3.339   3.950
 1278WAT    HW1 3833   2.255   3.352   3.857
 1278WAT    HW2 3834   2.297   3.397   3.996
 1279WAT     OW 3835   4.214   2.260   0.947
 1279WAT    HW1 3836   4.276   2.247   1.018
 1279WAT    HW2 3837   4.180   2.348   0.960
 1280WAT     OW 3838   4.312   6.581   3.128
 1280WAT    HW1 3839   4.296   6.609   3.037
 1280WAT    HW2 3840   4.298   6.486   3.126
 1281WAT     OW 3841   4.947   5.632   1.137
 1281WAT    HW1 3842   4.999   5.559   1.105
 1281WAT    HW2 3843   4.862   5.594   1.157
 1282WAT     OW 3844   2.054   5.419   2.959
 1282WAT    HW1 3845   2.120   5.380   2.902
 1282WAT    HW2 3846   2.000   5.471   2.900
 1283WAT     OW 3847   3.632   3.625   4.227
 1283WAT    HW1 3848   3.682   3.667   4.156
 1283WAT    HW2 3849   3.668   3.537   4.233
 1284WAT     OW 3850   3.774   2.632   1.592
 1284WAT    HW1 3851   3.832   2.578   1.538
 1284WAT    HW2 3852   3.699   2.575   1.608
 1285WAT     OW 3853   1.439   3.392   2.854
 1285WAT    HW1 3854   1.343   3.399   2.859
 1285WAT    HW2 3855   1.471   3.436   2.933
 1286WAT     OW 3856   2.451   0.817   5.671
 1286WAT    HW1 3857   2.362   0.825   5.638
 1286WAT    HW2 3858   2.443   0.829   5.766
 1287WAT     OW 3859   3.803   3.241   3.542
 1287WAT    HW1 3860   3.721   3.286   3.523
 1287WAT    HW2 3861   3.843   3.293   3.612
 1288WAT     OW 3862   0.778   2.948   0.497
 1288WAT    HW1 3863   0.792   2.853   0.507
 1288WAT    HW2 3864   0.852   2.978   0.446
 1289WAT     OW 3865   3.384   4.163   0.124
 1289WAT    HW1 3866   3.350   4.248   0.150
 1289WAT    HW2 3867   3.384   4.165   0.028
 1290WAT     OW 3868   0.079   1.772   0.494
 1290WAT    HW1 3869   0.071   1.775   0.398
 1290WAT    HW2 3870   0.114   1.684   0.512
 1291WAT     OW 3871   5.912   3.912   1.752
 1291WAT    HW1 3872   5.844   3.860   1.795
 1291WAT    HW2 3873   5.946   3.856   1.683
 1292WAT     OW 3874   2.279   3.211   4.687
 1292WAT    HW1 3875   2.263   3.306   4.681
 1292WAT    HW2 3876   2.369   3.204   4.716
 1293WAT     OW 3877   5.107   2.196   1.987
 1293WAT    HW1 3878   5.057   2.268   1.947
 1293WAT    HW2 3879   5.148   2.236   2.063
 1294WAT     OW 3880   3.528   4.082   4.748
 1294WAT    HW1 3881   3.494   4.038   4.670
 1294WAT    HW2 3882   3.623   4.085   4.733
 1295WAT     OW 3883   6.562   1.881   1.073
 1295WAT    HW1 3884   6.544   1.789   1.093
 1295WAT    HW2 3885   6.639   1.878   1.017
 1296WAT     OW 3886   4.733   3.224   2.553
 1296WAT    HW1 3887   4.822   3.257   2.541
 1296WAT    HW2 3888   4.697   3.219   2.464
 1297WAT     OW 3889   2.733   0.858   4.701
 1297WAT    HW1 3890   2.742   0.764   4.717
 1297WAT    HW2 3891   2.822   0.890   4.694
 1298WAT     OW 3892   4.816   2.849   0.853
 1298WAT    HW1 3893   4.870   2.812   0.782
 1298WAT    HW2 3894   4.752   2.781   0.871
 1299WAT     OW 3895   0.023   2.721   1.858
 1299WAT    HW1 3896   0.080   2.720   1.935
 1299WAT    HW2 3897  -0.058   2.680   1.888
 1300WAT     OW 3898   3.256   4.408   5.570
 1300WAT    HW1 3899   3.274   4.502   5.572
 1300WAT    HW2 3900   3.318   4.370   5.632
 1301WAT     OW 3901   2.421   3.092   4.153
 1301WAT    HW1 3902   2.391   3.094   4.244
 1301WAT    HW2 3903   2.468   3.175   4.141
 1302WAT     OW 3904   1.750   0.353   2.004
 1302WAT    HW1 3905   1.735   0.318   1.917
 1302WAT    HW2 3906   1.669   0.400   2.025
 1303WAT     OW 3907   4.467   0.109   0.218
 1303WAT    HW1 3908   4.531   0.097   0.148
 1303WAT    HW2 3909   4.383   0.087   0.178
 1304WAT     OW 3910   6.682   6.098   5.032
 1304WAT    HW1 3911   6.731   6.180   5.027
 1304WAT    HW2 3912   6.597   6.124   5.069
 1305WAT     OW 3913   4.092   6.653   1.398
 1305WAT    HW1 3914   4.105   6.658   1.492
 1305WAT    HW2 3915   4.002   6.681   1.384
 1306WAT     OW 3916   3.511   5.507   1.553
 1306WAT    HW1 3917   3.520   5.456   1.473
 1306WAT    HW2 3918   3.451   5.456   1.608
 1307WAT     OW 3919   6.402   3.025   4.114
 1307WAT    HW1 3920   6.320   3.014   4.066
 1307WAT    HW2 3921   6.464   2.966   4.071
 1308WAT     OW 3922   4.885   4.834   4.244
 1308WAT    HW1 3923   4.820   4.794   4.302
 1308WAT    HW2 3924   4.917   4.761   4.190
 1309WAT     OW 3925   6.706   3.390   2.318
 1309WAT    HW1 3926   6.801   3.398   2.312
 1309WAT    HW2 3927   6.686   3.307   2.275
 1310WAT     OW 3928   0.645   1.326   4.858
 1310WAT    HW1 3929   0.636   1.233   4.878
 1310WAT    HW2 3930   0.576   1.369   4.909
 1311WAT     OW 3931   4.264   0.263   5.842
 1311WAT    HW1 3932   4.246   0.335   5.783
 1311WAT    HW2 3933   4.198   0.197   5.821
 1312WAT     OW 3934   6.352   0.756   6.347
 1312WAT    HW1 3935   6.391   0.727   6.264
 1312WAT    HW2 3936   6.379   0.691   6.411
 1313WAT     OW 3937   5.669   0.184   5.275
 1313WAT    HW1 3938   5.648   0.104   5.324
 1313WAT    HW2 3939   5.586   0.214   5.241
 1314WAT     OW 3940   5.028   6.093   1.933
 1314WAT    HW1 3941   4.962   6.069   1.999
 1314WAT    HW2 3942   4.999   6.179   1.902
 1315WAT     OW 3943   0.712   1.573   1.769
 1315WAT    HW1 3944   0.638   1.634   1.760
 1315WAT    HW2 3945   0.770   1.595   1.696
 1316WAT     OW 3946   3.828   0.527   3.871
 1316WAT    HW1 3947   3.911   0.497   3.909
 1316WAT    HW2 3948   3.796   0.452   3.821
 1317WAT     OW 3949   3.164   2.020   5.860
 1317WAT    HW1 3950   3.116   2.102   5.873
 1317WAT    HW2 3951   3.190   2.023   5.768
 1318WAT     OW 3952   0.096   5.033   4.618
 1318WAT    HW1 3953   0.005   5.048   4.594
 1318WAT    HW2 3954   0.114   4.944   4.586
 1319WAT     OW 3955   1.157   2.325   1.259
 1319WAT    HW1 3956   1.243   2.310   1.298
 1319WAT    HW2 3957   1.158   2.273   1.179
 1320WAT     OW 3958   5.876   4.972   0.772
 1320WAT    HW1 3959   5.930   4.903   0.809
 1320WAT    HW2 3960   5.907   4.981   0.682
 1321WAT     OW 3961   0.050   1.428   6.071
 1321WAT    HW1 3962   0.136   1.471   6.079
 1321WAT    HW2 3963  -0.011   1.500   6.060
 1322WAT     OW 3964   2.202   4.996   4.702
 1322WAT    HW1 3965   2.210   4.901   4.694
 1322WAT    HW2 3966   2.188   5.010   4.795
 1323WAT     OW 3967   2.005   0.749   2.090
 1323WAT    HW1 3968   1.976   0.823   2.036
 1323WAT    HW2 3969   2.100   0.754   2.090
 1324WAT     OW 3970   5.968   3.860   6.678
 1324WAT    HW1 3971   6.001   3.884   6.591
 1324WAT    HW2 3972   5.965   3.943   6.726
 1325WAT     OW 3973   5.629   0.544   4.047
 1325WAT    HW1 3974   5.643   0.505   3.960
 1325WAT    HW2 3975   5.537   0.569   4.047
 1326WAT     OW 3976   0.619   4.271   0.774
 1326WAT    HW1 3977   0.570   4.296   0.696
 1326WAT    HW2 3978   0.657   4.352   0.806
 1327WAT     OW 3979   0.847   0.307   6.420
 1327WAT    HW1 3980   0.766   0.262   6.441
 1327WAT    HW2 3981   0.820   0.393   6.388
 1328WAT     OW 3982   5.396   4.951   3.792
 1328WAT    HW1 3983   5.406   4.859   3.768
 1328WAT    HW2 3984   5.338   4.950   3.868
 1329WAT     OW 3985   1.187   4.060   0.368
 1329WAT    HW1 3986   1.105   4.097   0.400
 1329WAT    HW2 3987   1.161   3.999   0.299
 1330WAT     OW 3988   5.108   6.651   1.048
 1330WAT    HW1 3989   5.184   6.628   1.102
 1330WAT    HW2 3990   5.137   6.727   0.997
 1331WAT     OW 3991   1.617   2.879   4.191
 1331WAT    HW1 3992   1.598   2.785   4.193
 1331WAT    HW2 3993   1.660   2.897   4.274
 1332WAT     OW 3994   2.456   1.647   3.836
 1332WAT    HW1 3995   2.403   1.650   3.916
 1332WAT    HW2 3996   2.543   1.676   3.864
 1333WAT     OW 3997   2.271   6.207   5.417
 1333WAT    HW1 3998   2.217   6.286   5.415
 1333WAT    HW2 3999   2.210   6.136   5.434
 1334WAT     OW 4000   0.529   3.047   6.315
 1334WAT    HW1 4001   0.566   3.046   6.403
 1334WAT    HW2 4002   0.434   3.041   6.329
 1335WAT     OW 4003   1.083   1.589   4.499
 1335WAT    HW1 4004   1.108   1.504   4.464
 1335WAT    HW2 4005   0.989   1.593   4.486
 1336WAT     OW 4006   5.735   0.114   6.271
 1336WAT    HW1 4007   5.647   0.077   6.271
 1336WAT    HW2 4008   5.729   0.188   6.331
 1337WAT     OW 4009   5.807   4.822   3.748
 1337WAT    HW1 4010   5.830   4.744   3.697
 1337WAT    HW2 4011   5.891   4.856   3.778
 1338WAT     OW 4012   3.042   1.802   3.912
 1338WAT    HW1 4013   3.069   1.748   3.986
 1338WAT    HW2 4014   2.993   1.874   3.951
 1339WAT     OW 4015   2.503   2.907   1.483
 1339WAT    HW1 4016   2.467   2.933   1.568
 1339WAT    HW2 4017   2.521   2.814   1.492
 1340WAT     OW 4018   6.611   4.525   6.482
 1340WAT    HW1 4019   6.532   4.492   6.441
 1340WAT    HW2 4020   6.637   4.457   6.544
 1341WAT     OW 4021   4.886   3.468   3.414
 1341WAT    HW1 4022   4.813   3.465   3.352
 1341WAT    HW2 4023   4.844   3.464   3.500
 1342WAT     OW 4024   6.159   3.298   4.919
 1342WAT    HW1 4025   6.237   3.247   4.897
 1342WAT    HW2 4026   6.103   3.290   4.842
 1343WAT     OW 4027   3.801   6.215   5.722
 1343WAT    HW1 4028   3.717   6.171   5.709
 1343WAT    HW2 4029   3.783   6.285   5.786
 1344WAT     OW 4030   5.520   0.993   1.091
 1344WAT    HW1 4031   5.538   0.899   1.083
 1344WAT    HW2 4032   5.432   0.999   1.127
 1345WAT     OW 4033   5.830   1.794   0.682
 1345WAT    HW1 4034   5.827   1.740   0.761
 1345WAT    HW2 4035   5.838   1.731   0.610
 1346WAT     OW 4036   5.523   5.615   1.884
 1346WAT    HW1 4037   5.497   5.626   1.975
 1346WAT    HW2 4038   5.451   5.566   1.844
 1347WAT     OW 4039   3.655   3.595   5.998
 1347WAT    HW1 4040   3.597   3.538   5.947
 1347WAT    HW2 4041   3.677   3.543   6.075
 1348WAT     OW 4042   4.104   1.000   1.047
 1348WAT    HW1 4043   4.114   0.905   1.040
 1348WAT    HW2 4044   4.065   1.026   0.963
 1349WAT     OW 4045   5.416   5.125   5.310
 1349WAT    HW1 4046   5.401   5.033   5.292
 1349WAT    HW2 4047   5.329   5.159   5.333
 1350WAT     OW 4048   1.531   5.831   3.919
 1350WAT    HW1 4049   1.608   5.885   3.905
 1350WAT    HW2 4050   1.457   5.891   3.909
 1351WAT     OW 4051   5.053   6.482   4.565
 1351WAT    HW1 4052   5.080   6.390   4.563
 1351WAT    HW2 4053   5.007   6.496   4.483
 1352WAT     OW 4054   2.213   6.300   6.635
 1352WAT    HW1 4055   2.302   6.333   6.646
 1352WAT    HW2 4056   2.158   6.378   6.629
 1353WAT     OW 4057   3.613   2.681   3.323
 1353WAT    HW1 4058   3.677   2.658   3.256
 1353WAT    HW2 4059   3.604   2.776   3.315
 1354WAT     OW 4060   1.262   4.007   2.056
 1354WAT    HW1 4061   1.231   4.075   2.116
 1354WAT    HW2 4062   1.282   4.054   1.975
 1355WAT     OW 4063   6.012   1.887   4.018
 1355WAT    HW1 4064   6.026   1.810   4.073
 1355WAT    HW2 4065   6.078   1.879   3.949
 1356WAT     OW 4066   6.596   2.902   6.518
 1356WAT    HW1 4067   6.661   2.888   6.449
 1356WAT    HW2 4068   6.587   2.816   6.559
 1357WAT     OW 4069   0.936   5.736   1.672
 1357WAT    HW1 4070   0.873   5.721   1.742
 1357WAT    HW2 4071   0.920   5.826   1.644
 1358WAT     OW 4072   1.891   2.894   3.193
 1358WAT    HW1 4073   1.940   2.817   3.164
 1358WAT    HW2 4074   1.939   2.925   3.269
 1359WAT     OW 4075   0.940   6.010   5.706
 1359WAT    HW1 4076   0.910   6.078   5.646
 1359WAT    HW2 4077   1.024   5.982   5.669
 1360WAT     OW 4078   5.839   0.691   3.316
 1360WAT    HW1 4079   5.804   0.768   3.363
 1360WAT    HW2 4080   5.889   0.644   3.382
 1361WAT     OW 4081   3.733   1.728   4.906
 1361WAT    HW1 4082   3.757   1.667   4.976
 1361WAT    HW2 4083   3.698   1.804   4.952
 1362WAT     OW 4084   0.094   1.789   6.459
 1362WAT    HW1 4085   0.106   1.821   6.549
 1362WAT    HW2 4086   0.049   1.705   6.469
 1363WAT     OW 4087   4.956   2.535   2.412
 1363WAT    HW1 4088   5.016   2.554   2.341
 1363WAT    HW2 4089   5.012   2.529   2.490
 1364WAT     OW 4090   6.580   4.693   6.077
 1364WAT    HW1 4091   6.486   4.708   6.079
 1364WAT    HW2 4092   6.610   4.715   6.165
 1365WAT     OW 4093   1.564   0.071   4.393
 1365WAT    HW1 4094   1.529  -0.017   4.403
 1365WAT    HW2 4095   1.624   0.064   4.318
 1366WAT     OW 4096   5.882   3.871   5.422
 1366WAT    HW1 4097   5.900   3.918   5.504
 1366WAT    HW2 4098   5.944   3.907   5.359
 1367WAT     OW 4099   4.129   4.824   5.305
 1367WAT    HW1 4100   4.039   4.847   5.328
 1367WAT    HW2 4101   4.122   4.787   5.217
 1368WAT     OW 4102   3.125   4.032   2.699
 1368WAT    HW1 4103   3.202   4.074   2.737
 1368WAT    HW2 4104   3.119   3.947   2.743
 1369WAT     OW 4105   1.233   5.280   0.460
 1369WAT    HW1 4106   1.198   5.260   0.547
 1369WAT    HW2 4107   1.278   5.200   0.433
 1370WAT     OW 4108   4.214   4.280   0.825
 1370WAT    HW1 4109   4.303   4.261   0.854
 1370WAT    HW2 4110   4.182   4.344   0.889
 1371WAT     OW 4111   1.955   2.333   3.349
 1371WAT    HW1 4112   1.907   2.412   3.323
 1371WAT    HW2 4113   1.890   2.263   3.345
 1372WAT     OW 4114   4.402   5.683   1.958
 1372WAT    HW1 4115   4.383   5.714   1.870
 1372WAT    HW2 4116   4.481   5.629   1.948
 1373WAT     OW 4117   4.806   5.877   1.897
 1373WAT    HW1 4118   4.729   5.921   1.932
 1373WAT    HW2 4119   4.826   5.924   1.817
 1374WAT     OW 4120   3.180   2.330   2.402
 1374WAT    HW1 4121   3.201   2.423   2.391
 1374WAT    HW2 4122   3.249   2.283   2.356
 1375WAT     OW 4123   5.882   0.662   4.025
 1375WAT    HW1 4124   5.895   0.639   3.933
 1375WAT    HW2 4125   5.793   0.635   4.045
 1376WAT     OW 4126   5.815   5.008   2.362
 1376WAT    HW1 4127   5.825   4.966   2.448
 1376WAT    HW2 4128   5.768   5.089   2.381
 1377WAT     OW 4129   6.301   0.715   4.385
 1377WAT    HW1 4130   6.340   0.629   4.371
 1377WAT    HW2 4131   6.227   0.718   4.325
 1378WAT     OW 4132   5.276   0.282   5.444
 1378WAT    HW1 4133   5.260   0.372   5.473
 1378WAT    HW2 4134   5.189   0.246   5.427
 1379WAT     OW 4135   1.701   4.643   0.663
 1379WAT    HW1 4136   1.735   4.562   0.624
 1379WAT    HW2 4137   1.771   4.674   0.720
 1380WAT     OW 4138   0.585   1.835   3.657
 1380WAT    HW1 4139   0.572   1.928   3.675
 1380WAT    HW2 4140   0.504   1.793   3.687
 1381WAT     OW 4141   6.137   5.897   3.423
 1381WAT    HW1 4142   6.232   5.888   3.421
 1381WAT    HW2 4143   6.114   5.893   3.516
 1382WAT     OW 4144   5.023   3.963   2.330
 1382WAT    HW1 4145   4.977   3.953   2.247
 1382WAT    HW2 4146   5.115   3.976   2.306
 1383WAT     OW 4147   2.903   3.713   5.574
 1383WAT    HW1 4148   2.973   3.649   5.561
 1383WAT    HW2 4149   2.948   3.798   5.568
 1384WAT     OW 4150   1.926   1.968   4.713
 1384WAT    HW1 4151   1.866   2.001   4.780
 1384WAT    HW2 4152   1.869   1.943   4.640
 1385WAT     OW 4153   3.115   2.040   0.869
 1385WAT    HW1 4154   3.060   1.969   0.836
 1385WAT    HW2 4155   3.097   2.113   0.809
 1386WAT     OW 4156   5.864   3.601   5.441
 1386WAT    HW1 4157   5.804   3.587   5.514
 1386WAT    HW2 4158   5.871   3.696   5.433
 1387WAT     OW 4159   2.519   1.219   1.384
 1387WAT    HW1 4160   2.530   1.124   1.389
 1387WAT    HW2 4161   2.495   1.237   1.293
 1388WAT     OW 4162   0.004   0.057   2.067
 1388WAT    HW1 4163  -0.026   0.006   2.142
 1388WAT    HW2 4164   0.098   0.069   2.084
 1389WAT     OW 4165   3.212   3.722   2.438
 1389WAT    HW1 4166   3.183   3.670   2.512
 1389WAT    HW2 4167   3.149   3.794   2.434
 1390WAT     OW 4168   2.297   2.035   5.667
 1390WAT    HW1 4169   2.234   2.068   5.732
 1390WAT    HW2 4170   2.249   2.037   5.585
 1391WAT     OW 4171   5.567   3.271   0.081
 1391WAT    HW1 4172   5.618   3.305   0.007
 1391WAT    HW2 4173   5.628   3.271   0.155
 1392WAT     OW 4174   6.021   4.724   6.082
 1392WAT    HW1 4175   6.006   4.638   6.121
 1392WAT    HW2 4176   6.115   4.738   6.090
 1393WAT     OW 4177   3.513   4.283   3.462
 1393WAT    HW1 4178   3.502   4.229   3.383
 1393WAT    HW2 4179   3.580   4.347   3.437
 1394WAT     OW 4180   0.678   2.487   5.438
 1394WAT    HW1 4181   0.697   2.480   5.531
 1394WAT    HW2 4182   0.764   2.491   5.396
 1395WAT     OW 4183   4.415   6.233   4.957
 1395WAT    HW1 4184   4.440   6.143   4.980
 1395WAT    HW2 4185   4.327   6.243   4.992
 1396WAT     OW 4186   0.702   6.377   2.192
 1396WAT    HW1 4187   0.711   6.283   2.204
 1396WAT    HW2 4188   0.785   6.404   2.151
 1397WAT     OW 4189   3.109   2.322   0.336
 1397WAT    HW1 4190   3.015   2.305   0.334
 1397WAT    HW2 4191   3.116   2.416   0.354
 1398WAT     OW 4192   4.270   2.486   2.976
 1398WAT    HW1 4193   4.364   2.489   2.959
 1398WAT    HW2 4194   4.263   2.487   3.072
 1399WAT     OW 4195   0.245   3.144   3.296
 1399WAT    HW1 4196   0.323   3.127   3.348
 1399WAT    HW2 4197   0.197   3.211   3.344
 1400WAT     OW 4198   6.326   6.205   6.153
 1400WAT    HW1 4199   6.258   6.200   6.220
 1400WAT    HW2 4200   6.289   6.160   6.077
 1401WAT     OW 4201   1.688   1.379   1.428
 1401WAT    HW1 4202   1.620   1.397   1.363
 1401WAT    HW2 4203   1.760   1.439   1.405
 1402WAT     OW 4204   2.469   1.817   1.661
 1402WAT    HW1 4205   2.494   1.861   1.580
 1402WAT    HW2 4206   2.485   1.883   1.730
 1403WAT     OW 4207   2.372   5.900   3.649
 1403WAT    HW1 4208   2.286   5.879   3.686
 1403WAT    HW2 4209   2.417   5.947   3.719
 1404WAT     OW 4210   3.496   2.202   0.767
 1404WAT    HW1 4211   3.546   2.231   0.691
 1404WAT    HW2 4212   3.560   2.162   0.825
 1405WAT     OW 4213   6.289   0.194   5.575
 1405WAT    HW1 4214   6.214   0.134   5.577
 1405WAT    HW2 4215   6.301   0.215   5.482
 1406WAT     OW 4216   2.544   1.734   6.641
 1406WAT    HW1 4217   2.604   1.690   6.702
 1406WAT    HW2 4218   2.578   1.712   6.554
 1407WAT     OW 4219   5.075   5.493   6.445
 1407WAT    HW1 4220   5.111   5.463   6.528
 1407WAT    HW2 4221   5.015   5.564   6.469
 1408WAT     OW 4222   6.521   3.580   2.927
 1408WAT    HW1 4223   6.574   3.633   2.987
 1408WAT    HW2 4224   6.478   3.643   2.870
 1409WAT     OW 4225   5.101   2.073   3.439
 1409WAT    HW1 4226   5.130   1.982   3.427
 1409WAT    HW2 4227   5.168   2.125   3.394
 1410WAT     OW 4228   1.282   0.573   0.131
 1410WAT    HW1 4229   1.273   0.583   0.226
 1410WAT    HW2 4230   1.279   0.478   0.117
 1411WAT     OW 4231   0.168   6.393   5.519
 1411WAT    HW1 4232   0.242   6.344   5.554
 1411WAT    HW2 4233   0.116   6.417   5.596
 1412WAT     OW 4234   4.181   3.642   4.601
 1412WAT    HW1 4235   4.208   3.720   4.650
 1412WAT    HW2 4236   4.182   3.571   4.665
 1413WAT     OW 4237   1.527   1.918   1.309
 1413WAT    HW1 4238   1.583   1.993   1.329
 1413WAT    HW2 4239   1.587   1.848   1.287
 1414WAT     OW 4240   1.551   6.246   5.156
 1414WAT    HW1 4241   1.483   6.216   5.217
 1414WAT    HW2 4242   1.602   6.308   5.208
 1415WAT     OW 4243   5.361   4.057   2.660
 1415WAT    HW1 4244   5.320   4.131   2.705
 1415WAT    HW2 4245   5.315   3.980   2.694
 1416WAT     OW 4246   3.116   2.953   0.319
 1416WAT    HW1 4247   3.189   2.948   0.257
 1416WAT    HW2 4248   3.142   3.021   0.381
 1417WAT     OW 4249   3.820   3.738   3.597
 1417WAT    HW1 4250   3.758   3.764   3.666
 1417WAT    HW2 4251   3.893   3.698   3.644
 1418WAT     OW 4252   0.195   6.484   0.292
 1418WAT    HW1 4253   0.261   6.416   0.279
 1418WAT    HW2 4254   0.112   6.441   0.275
 1419WAT     OW 4255   6.069   5.361   1.917
 1419WAT    HW1 4256   6.020   5.438   1.947
 1419WAT    HW2 4257   6.014   5.287   1.942
 1420WAT     OW 4258   0.339   0.365   5.874
 1420WAT    HW1 4259   0.385   0.294   5.920
 1420WAT    HW2 4260   0.286   0.320   5.808
 1421WAT     OW 4261   4.627   1.472   4.686
 1421WAT    HW1 4262   4.664   1.402   4.632
 1421WAT    HW2 4263   4.666   1.460   4.772
 1422WAT     OW 4264   0.504   1.651   1.137
 1422WAT    HW1 4265   0.546   1.709   1.073
 1422WAT    HW2 4266   0.569   1.583   1.154
 1423WAT     OW 4267   1.954   0.386   4.800
 1423WAT    HW1 4268   2.000   0.319   4.750
 1423WAT    HW2 4269   1.908   0.438   4.734
 1424WAT     OW 4270   0.893   5.478   4.086
 1424WAT    HW1 4271   0.986   5.455   4.087
 1424WAT    HW2 4272   0.859   5.445   4.169
 1425WAT     OW 4273   0.676   2.493   5.961
 1425WAT    HW1 4274   0.703   2.462   6.048
 1425WAT    HW2 4275   0.587   2.461   5.951
 1426WAT     OW 4276   0.963   5.849   2.954
 1426WAT    HW1 4277   0.895   5.911   2.979
 1426WAT    HW2 4278   0.995   5.814   3.037
 1427WAT     OW 4279   3.878   4.372   4.000
 1427WAT    HW1 4280   3.817   4.443   4.021
 1427WAT    HW2 4281   3.919   4.399   3.918
 1428WAT     OW 4282   0.546   2.097   3.731
 1428WAT    HW1 4283   0.620   2.155   3.716
 1428WAT    HW2 4284   0.470   2.144   3.697
 1429WAT     OW 4285   2.193   1.278   4.135
 1429WAT    HW1 4286   2.169   1.367   4.110
 1429WAT    HW2 4287   2.288   1.282   4.145
 1430WAT     OW 4288   6.597   5.301   2.984
 1430WAT    HW1 4289   6.562   5.238   3.047
 1430WAT    HW2 4290   6.575   5.264   2.899
 1431WAT     OW 4291   0.449   0.334   0.370
 1431WAT    HW1 4292   0.473   0.408   0.425
 1431WAT    HW2 4293   0.478   0.358   0.282
 1432WAT     OW 4294   3.137   5.752   0.472
 1432WAT    HW1 4295   3.162   5.668   0.435
 1432WAT    HW2 4296   3.045   5.763   0.449
 1433WAT     OW 4297   1.244   4.362   4.308
 1433WAT    HW1 4298   1.282   4.394   4.390
 1433WAT    HW2 4299   1.182   4.429   4.282
 1434WAT     OW 4300   0.899   4.695   0.547
 1434WAT    HW1 4301   0.841   4.763   0.582
 1434WAT    HW2 4302   0.977   4.699   0.602
 1435WAT     OW 4303   5.019   2.779   0.013
 1435WAT    HW1 4304   5.101   2.761   0.059
 1435WAT    HW2 4305   5.034   2.747  -0.076
 1436WAT     OW 4306   5.424   2.407   5.141
 1436WAT    HW1 4307   5.483   2.332   5.151
 1436WAT    HW2 4308   5.404   2.410   5.047
 1437WAT     OW 4309   3.131   1.914   0.264
 1437WAT    HW1 4310   3.214   1.866   0.255
 1437WAT    HW2 4311   3.068   1.846   0.290
 1438WAT     OW 4312   6.454   0.739   4.961
 1438WAT    HW1 4313   6.484   0.656   4.996
 1438WAT    HW2 4314   6.391   0.716   4.893
 1439WAT     OW 4315   4.610   1.401   6.328
 1439WAT    HW1 4316   4.626   1.486   6.367
 1439WAT    HW2 4317   4.586   1.344   6.401
 1440WAT     OW 4318   5.490   0.780   3.887
 1440WAT    HW1 4319   5.423   0.840   3.854
 1440WAT    HW2 4320   5.441   0.709   3.929
 1441WAT     OW 4321   1.305   5.721   0.697
 1441WAT    HW1 4322   1.372   5.671   0.651
 1441WAT    HW2 4323   1.228   5.718   0.640
 1442WAT     OW 4324   1.516   4.897   0.230
 1442WAT    HW1 4325   1.479   4.959   0.293
 1442WAT    HW2 4326   1.604   4.879   0.264
 1443WAT     OW 4327   2.861   4.825   1.290
 1443WAT    HW1 4328   2.810   4.747   1.312
 1443WAT    HW2 4329   2.941   4.816   1.342
 1444WAT     OW 4330   6.357   4.136   4.202
 1444WAT    HW1 4331   6.448   4.138   4.170
 1444WAT    HW2 4332   6.310   4.195   4.144
 1445WAT     OW 4333   4.895   5.224   6.499
 1445WAT    HW1 4334   4.844   5.220   6.580
 1445WAT    HW2 4335   4.976   5.176   6.518
 1446WAT     OW 4336   2.799   0.634   1.654
 1446WAT    HW1 4337   2.818   0.723   1.682
 1446WAT    HW2 4338   2.721   0.609   1.705
 1447WAT     OW 4339   3.837   2.373   0.943
 1447WAT    HW1 4340   3.891   2.317   0.887
 1447WAT    HW2 4341   3.817   2.317   1.019
 1448WAT     OW 4342   0.461   6.425   2.550
 1448WAT    HW1 4343   0.412   6.386   2.622
 1448WAT    HW2 4344   0.467   6.518   2.573
 1449WAT     OW 4345   4.747   3.491   0.612
 1449WAT    HW1 4346   4.842   3.489   0.627
 1449WAT    HW2 4347   4.730   3.579   0.580
 1450WAT     OW 4348   3.019   3.412   2.455
 1450WAT    HW1 4349   2.978   3.454   2.380
 1450WAT    HW2 4350   3.087   3.356   2.418
 1451WAT     OW 4351   0.529   3.772   0.267
 1451WAT    HW1 4352   0.580   3.829   0.326
 1451WAT    HW2 4353   0.594   3.738   0.206
 1452WAT     OW 4354   3.744   0.762   2.353
 1452WAT    HW1 4355   3.806   0.772   2.281
 1452WAT    HW2 4356   3.721   0.851   2.378
 1453WAT     OW 4357   6.248   1.068   0.155
 1453WAT    HW1 4358   6.225   1.159   0.138
 1453WAT    HW2 4359   6.227   1.021   0.074
 1454WAT     OW 4360   3.539   1.451   1.525
 1454WAT    HW1 4361   3.634   1.443   1.531
 1454WAT    HW2 4362   3.524   1.491   1.440
 1455WAT     OW 4363   5.705   1.045   4.692
 1455WAT    HW1 4364   5.635   1.109   4.704
 1455WAT    HW2 4365   5.785   1.098   4.685
 1456WAT     OW 4366   0.391   5.073   5.360
 1456WAT    HW1 4367   0.385   4.977   5.365
 1456WAT    HW2 4368   0.315   5.104   5.409
 1457WAT     OW 4369   2.010   6.370   1.934
 1457WAT    HW1 4370   2.051   6.317   2.002
 1457WAT    HW2 4371   1.981   6.307   1.869
 1458WAT     OW 4372   3.569   4.737   0.012
 1458WAT    HW1 4373   3.522   4.813   0.049
 1458WAT    HW2 4374   3.631   4.775  -0.050
 1459WAT     OW 4375   0.926   5.224   0.639
 1459WAT    HW1 4376   0.935   5.315   0.615
 1459WAT    HW2 4377   1.013   5.197   0.669
 1460WAT     OW 4378   2.998   3.640   1.161
 1460WAT    HW1 4379   2.952   3.560   1.137
 1460WAT    HW2 4380   2.977   3.652   1.254
 1461WAT     OW 4381   2.009   0.436   6.193
 1461WAT    HW1 4382   1.930   0.485   6.215
 1461WAT    HW2 4383   2.080   0.499   6.202
 1462WAT     OW 4384   1.709   5.219   1.064
 1462WAT    HW1 4385   1.720   5.310   1.035
 1462WAT    HW2 4386   1.722   5.222   1.159
 1463WAT     OW 4387   2.922   4.169   6.011
 1463WAT    HW1 4388   2.916   4.146   6.104
 1463WAT    HW2 4389   2.996   4.230   6.006
 1464WAT     OW 4390   0.073   5.656   6.571
 1464WAT    HW1 4391   0.089   5.748   6.547
 1464WAT    HW2 4392   0.126   5.642   6.649
 1465WAT     OW 4393   0.520   3.102   2.744
 1465WAT    HW1 4394   0.601   3.140   2.711
 1465WAT    HW2 4395   0.452   3.167   2.723
 1466WAT     OW 4396   1.081   6.260   2.248
 1466WAT    HW1 4397   1.040   6.260   2.335
 1466WAT    HW2 4398   1.172   6.282   2.265
 1467WAT     OW 4399   2.512   1.802   2.646
 1467WAT    HW1 4400   2.447   1.741   2.609
 1467WAT    HW2 4401   2.570   1.822   2.572
 1468WAT     OW 4402   3.865   5.787   0.469
 1468WAT    HW1 4403   3.922   5.780   0.546
 1468WAT    HW2 4404   3.893   5.716   0.412
 1469WAT     OW 4405   1.271   1.836   3.468
 1469WAT    HW1 4406   1.314   1.784   3.400
 1469WAT    HW2 4407   1.237   1.772   3.530
 1470WAT     OW 4408   3.579   5.232   6.208
 1470WAT    HW1 4409   3.528   5.218   6.129
 1470WAT    HW2 4410   3.565   5.154   6.261
 1471WAT     OW 4411   5.316   1.034   5.214
 1471WAT    HW1 4412   5.234   1.059   5.172
 1471WAT    HW2 4413   5.363   0.984   5.148
 1472WAT     OW 4414   1.543   3.629   3.339
 1472WAT    HW1 4415   1.560   3.723   3.338
 1472WAT    HW2 4416   1.459   3.620   3.384
 1473WAT     OW 4417   6.119   0.298   6.691
 1473WAT    HW1 4418   6.083   0.324   6.775
 1473WAT    HW2 4419   6.082   0.211   6.675
 1474WAT     OW 4420   4.277   6.248   2.684
 1474WAT    HW1 4421   4.246   6.185   2.619
 1474WAT    HW2 4422   4.303   6.194   2.759
 1475WAT     OW 4423   4.667   0.715   2.504
 1475WAT    HW1 4424   4.699   0.795   2.546
 1475WAT    HW2 4425   4.661   0.651   2.576
 1476WAT     OW 4426   5.078   2.269   4.608
 1476WAT    HW1 4427   5.040   2.247   4.523
 1476WAT    HW2 4428   5.080   2.186   4.656
 1477WAT     OW 4429   4.563   0.706   4.860
 1477WAT    HW1 4430   4.483   0.666   4.892
 1477WAT    HW2 4431   4.588   0.767   4.929
 1478WAT     OW 4432   0.785   1.372   0.576
 1478WAT    HW1 4433   0.693   1.353   0.596
 1478WAT    HW2 4434   0.805   1.315   0.501
 1479WAT     OW 4435   2.926   3.000   4.777
 1479WAT    HW1 4436   2.969   2.976   4.695
 1479WAT    HW2 4437   2.856   2.935   4.786
 1480WAT     OW 4438   0.510   2.560   3.170
 1480WAT    HW1 4439   0.557   2.506   3.106
 1480WAT    HW2 4440   0.423   2.521   3.176
 1481WAT     OW 4441   0.530   0.813   3.750
 1481WAT    HW1 4442   0.448   0.789   3.792
 1481WAT    HW2 4443   0.589   0.740   3.771
 1482WAT     OW 4444   1.364   6.200   0.685
 1482WAT    HW1 4445   1.309   6.124   0.702
 1482WAT    HW2 4446   1.345   6.260   0.757
 1483WAT     OW 4447   2.280   3.326   3.090
 1483WAT    HW1 4448   2.196   3.280   3.093
 1483WAT    HW2 4449   2.302   3.343   3.182
 1484WAT     OW 4450   1.150   0.040   2.807
 1484WAT    HW1 4451   1.062   0.009   2.827
 1484WAT    HW2 4452   1.190   0.059   2.892
 1485WAT     OW 4453   2.523   0.680   2.677
 1485WAT    HW1 4454   2.440   0.711   2.713
 1485WAT    HW2 4455   2.577   0.661   2.754
 1486WAT     OW 4456   0.773   4.221   4.153
 1486WAT    HW1 4457   0.859   4.219   4.196
 1486WAT    HW2 4458   0.786   4.173   4.071
 1487WAT     OW 4459   6.221   2.329   1.860
 1487WAT    HW1 4460   6.267   2.275   1.926
 1487WAT    HW2 4461   6.166   2.267   1.813
 1488WAT     OW 4462   4.535   0.398   5.862
 1488WAT    HW1 4463   4.465   0.335   5.847
 1488WAT    HW2 4464   4.614   0.344   5.875
 1489WAT     OW 4465   1.762   6.128   4.139
 1489WAT    HW1 4466   1.843   6.144   4.186
 1489WAT    HW2 4467   1.702   6.093   4.205
 1490WAT     OW 4468   2.601   3.240   2.384
 1490WAT    HW1 4469   2.607   3.224   2.290
 1490WAT    HW2 4470   2.659   3.175   2.423
 1491WAT     OW 4471   1.752   3.846   5.774
 1491WAT    HW1 4472   1.737   3.754   5.751
 1491WAT    HW2 4473   1.804   3.842   5.854
 1492WAT     OW 4474   5.611   1.629   4.536
 1492WAT    HW1 4475   5.679   1.562   4.535
 1492WAT    HW2 4476   5.654   1.708   4.505
 1493WAT     OW 4477   3.509   1.995   0.518
 1493WAT    HW1 4478   3.558   2.021   0.440
 1493WAT    HW2 4479   3.571   1.946   0.571
 1494WAT     OW 4480   3.214   5.938   3.658
 1494WAT    HW1 4481   3.309   5.938   3.669
 1494WAT    HW2 4482   3.190   6.031   3.657
 1495WAT     OW 4483   1.614   3.273   5.293
 1495WAT    HW1 4484   1.700   3.269   5.251
 1495WAT    HW2 4485   1.612   3.360   5.334
 1496WAT     OW 4486   6.189   2.386   3.272
 1496WAT    HW1 4487   6.145   2.423   3.195
 1496WAT    HW2 4488   6.145   2.428   3.346
 1497WAT     OW 4489   1.184   1.512   1.178
 1497WAT    HW1 4490   1.208   1.559   1.098
 1497WAT    HW2 4491   1.216   1.423   1.164
 1498WAT     OW 4492   1.614   3.187   3.114
 1498WAT    HW1 4493   1.622   3.154   3.203
 1498WAT    HW2 4494   1.660   3.122   3.060
 1499WAT     OW 4495   0.369   1.256   3.602
 1499WAT    HW1 4496   0.423   1.218   3.533
 1499WAT    HW2 4497   0.422   1.329   3.636
 1500WAT     OW 4498   5.427   2.137   1.883
 1500WAT    HW1 4499   5.345   2.094   1.858
 1500WAT    HW2 4500   5.485   2.123   1.808
 1501WAT     OW 4501   1.764   1.327   3.757
 1501WAT    HW1 4502   1.829   1.385   3.796
 1501WAT    HW2 4503   1.793   1.239   3.781
 1502WAT     OW 4504   4.612   0.039   5.368
 1502WAT    HW1 4505   4.586   0.035   5.460
 1502WAT    HW2 4506   4.659   0.122   5.360
 1503WAT     OW 4507   5.793   3.659   6.277
 1503WAT    HW1 4508   5.805   3.710   6.358
 1503WAT    HW2 4509   5.700   3.667   6.257
 1504WAT     OW 4510   4.282   0.210   2.089
 1504WAT    HW1 4511   4.292   0.278   2.154
 1504WAT    HW2 4512   4.266   0.130   2.139
 1505WAT     OW 4513   6.613   6.026   1.812
 1505WAT    HW1 4514   6.555   6.009   1.737
 1505WAT    HW2 4515   6.697   6.048   1.772
 1506WAT     OW 4516   0.263   3.917   2.561
 1506WAT    HW1 4517   0.249   3.861   2.485
 1506WAT    HW2 4518   0.357   3.911   2.579
 1507WAT     OW 4519   5.755   0.579   6.290
 1507WAT    HW1 4520   5.838   0.627   6.287
 1507WAT    HW2 4521   5.713   0.600   6.207
 1508WAT     OW 4522   2.989   2.649   6.687
 1508WAT    HW1 4523   2.967   2.680   6.600
 1508WAT    HW2 4524   2.970   2.723   6.745
 1509WAT     OW 4525   6.224   6.529   4.602
 1509WAT    HW1 4526   6.269   6.613   4.603
 1509WAT    HW2 4527   6.131   6.550   4.609
 1510WAT     OW 4528   2.426   1.249   1.124
 1510WAT    HW1 4529   2.334   1.234   1.147
 1510WAT    HW2 4530   2.423   1.324   1.064
 1511WAT     OW 4531   0.242   5.337   0.393
 1511WAT    HW1 4532   0.251   5.351   0.299
 1511WAT    HW2 4533   0.331   5.323   0.425
 1512WAT     OW 4534   5.214   3.188   0.978
 1512WAT    HW1 4535   5.240   3.128   1.048
 1512WAT    HW2 4536   5.180   3.131   0.909
 1513WAT     OW 4537   4.320   1.892   2.287
 1513WAT    HW1 4538   4.386   1.876   2.220
 1513WAT    HW2 4539   4.283   1.977   2.264
 1514WAT     OW 4540   5.895   1.316   2.527
 1514WAT    HW1 4541   5.889   1.341   2.435
 1514WAT    HW2 4542   5.973   1.361   2.560
 1515WAT     OW 4543   3.475   0.075   6.268
 1515WAT    HW1 4544   3.533  -0.001   6.273
 1515WAT    HW2 4545   3.485   0.119   6.352
 1516WAT     OW 4546   2.123   2.112   5.873
 1516WAT    HW1 4547   2.047   2.074   5.916
 1516WAT    HW2 4548   2.175   2.150   5.944
 1517WAT     OW 4549   5.704   1.611   4.921
 1517WAT    HW1 4550   5.741   1.692   4.887
 1517WAT    HW2 4551   5.627   1.594   4.868
 1518WAT     OW 4552   3.801   3.029   2.776
 1518WAT    HW1 4553   3.837   3.110   2.741
 1518WAT    HW2 4554   3.743   3.057   2.847
 1519WAT     OW 4555   5.998   6.434   3.015
 1519WAT    HW1 4556   5.984   6.524   2.987
 1519WAT    HW2 4557   5.935   6.383   2.963
 1520WAT     OW 4558   4.842   2.504   0.581
 1520WAT    HW1 4559   4.793   2.441   0.527
 1520WAT    HW2 4560   4.788   2.583   0.581
 1521WAT     OW 4561   6.561   5.671   4.674
 1521WAT    HW1 4562   6.558   5.723   4.594
 1521WAT    HW2 4563   6.531   5.731   4.743
 1522WAT     OW 4564   1.269   1.007   6.464
 1522WAT    HW1 4565   1.305   1.077   6.518
 1522WAT    HW2 4566   1.345   0.965   6.425
 1523WAT     OW 4567   4.537   3.953   0.958
 1523WAT    HW1 4568   4.589   3.905   1.022
 1523WAT    HW2 4569   4.584   3.941   0.875
 1524WAT     OW 4570   2.376   0.652   0.149
 1524WAT    HW1 4571   2.302   0.597   0.122
 1524WAT    HW2 4572   2.445   0.632   0.086
 1525WAT     OW 4573   4.412   0.204   0.982
 1525WAT    HW1 4574   4.358   0.208   0.903
 1525WAT    HW2 4575   4.499   0.231   0.953
 1526WAT     OW 4576   1.017   0.306   4.851
 1526WAT    HW1 4577   0.994   0.399   4.855
 1526WAT    HW2 4578   0.983   0.270   4.933
 1527WAT     OW 4579   3.677   2.380   3.776
 1527WAT    HW1 4580   3.656   2.290   3.752
 1527WAT    HW2 4581   3.645   2.433   3.703
 1528WAT     OW 4582   1.550   4.460   3.168
 1528WAT    HW1 4583   1.486   4.480   3.236
 1528WAT    HW2 4584   1.531   4.369   3.144
 1529WAT     OW 4585   1.147   0.755   4.804
 1529WAT    HW1 4586   1.109   0.834   4.842
 1529WAT    HW2 4587   1.239   0.758   4.830
 1530WAT     OW 4588   4.813   3.009   4.363
 1530WAT    HW1 4589   4.796   2.925   4.321
 1530WAT    HW2 4590   4.775   3.001   4.451
 1531WAT     OW 4591   3.772   3.905   1.054
 1531WAT    HW1 4592   3.827   3.844   1.103
 1531WAT    HW2 4593   3.737   3.853   0.981
 1532WAT     OW 4594   6.490   1.594   5.604
 1532WAT    HW1 4595   6.557   1.552   5.549
 1532WAT    HW2 4596   6.456   1.522   5.658
 1533WAT     OW 4597   4.454   6.210   5.518
 1533WAT    HW1 4598   4.398   6.150   5.568
 1533WAT    HW2 4599   4.543   6.179   5.535
 1534WAT     OW 4600   3.412   4.193   4.443
 1534WAT    HW1 4601   3.497   4.237   4.441
 1534WAT    HW2 4602   3.432   4.103   4.469
 1535WAT     OW 4603   3.493   3.401   6.309
 1535WAT    HW1 4604   3.567   3.438   6.260
 1535WAT    HW2 4605   3.495   3.446   6.393
 1536WAT     OW 4606   4.901   5.282   0.992
 1536WAT    HW1 4607   4.924   5.209   0.935
 1536WAT    HW2 4608   4.982   5.333   0.999
 1537WAT     OW 4609   2.642   4.452   4.907
 1537WAT    HW1 4610   2.677   4.367   4.879
 1537WAT    HW2 4611   2.695   4.516   4.859
 1538WAT     OW 4612   1.407   5.196   3.749
 1538WAT    HW1 4613   1.405   5.170   3.657
 1538WAT    HW2 4614   1.499   5.185   3.775
 1539WAT     OW 4615   4.472   2.289   4.521
 1539WAT    HW1 4616   4.520   2.229   4.580
 1539WAT    HW2 4617   4.409   2.332   4.578
 1540WAT     OW 4618   5.966   0.175   3.466
 1540WAT    HW1 4619   5.894   0.238   3.472
 1540WAT    HW2 4620   5.925   0.095   3.434
 1541WAT     OW 4621   0.335   5.842   3.185
 1541WAT    HW1 4622   0.343   5.937   3.183
 1541WAT    HW2 4623   0.246   5.824   3.156
 1542WAT     OW 4624   0.843   6.294   1.208
 1542WAT    HW1 4625   0.845   6.293   1.112
 1542WAT    HW2 4626   0.879   6.380   1.232
 1543WAT     OW 4627   0.428   0.157   1.272
 1543WAT    HW1 4628   0.482   0.092   1.228
 1543WAT    HW2 4629   0.486   0.197   1.337
 1544WAT     OW 4630   4.026   4.041   3.811
 1544WAT    HW1 4631   4.023   4.004   3.899
 1544WAT    HW2 4632   3.935   4.055   3.787
 1545WAT     OW 4633   0.178   3.971   4.260
 1545WAT    HW1 4634   0.150   3.882   4.236
 1545WAT    HW2 4635   0.141   3.985   4.347
 1546WAT     OW 4636   6.552   3.947   0.686
 1546WAT    HW1 4637   6.576   3.876   0.627
 1546WAT    HW2 4638   6.483   3.909   0.741
 1547WAT     OW 4639   0.920   2.606   3.426
 1547WAT    HW1 4640   0.920   2.512   3.444
 1547WAT    HW2 4641   0.831   2.625   3.396
 1548WAT     OW 4642   2.253   1.518   3.006
 1548WAT    HW1 4643   2.323   1.456   3.030
 1548WAT    HW2 4644   2.263   1.591   3.066
 1549WAT     OW 4645   0.907   2.755   5.748
 1549WAT    HW1 4646   0.857   2.758   5.830
 1549WAT    HW2 4647   0.840   2.750   5.680
 1550WAT     OW 4648   5.655   0.298   0.507
 1550WAT    HW1 4649   5.634   0.350   0.585
 1550WAT    HW2 4650   5.750   0.306   0.497
 1551WAT     OW 4651   5.881   0.122   1.461
 1551WAT    HW1 4652   5.917   0.039   1.493
 1551WAT    HW2 4653   5.921   0.189   1.517
 1552WAT     OW 4654   4.216   2.827   1.521
 1552WAT    HW1 4655   4.122   2.829   1.539
 1552WAT    HW2 4656   4.257   2.814   1.606
 1553WAT     OW 4657   1.922   1.961   2.257
 1553WAT    HW1 4658   1.978   1.937   2.331
 1553WAT    HW2 4659   1.894   2.050   2.276
 1554WAT     OW 4660   4.607   1.235   1.754
 1554WAT    HW1 4661   4.611   1.225   1.659
 1554WAT    HW2 4662   4.688   1.193   1.785
 1555WAT     OW 4663   1.423   5.117   3.485
 1555WAT    HW1 4664   1.346   5.069   3.456
 1555WAT    HW2 4665   1.497   5.067   3.450
 1556WAT     OW 4666   0.356   3.992   3.708
 1556WAT    HW1 4667   0.388   3.909   3.744
 1556WAT    HW2 4668   0.363   3.981   3.613
 1557WAT     OW 4669   1.365   0.793   4.235
 1557WAT    HW1 4670   1.316   0.875   4.226
 1557WAT    HW2 4671   1.456   0.818   4.215
 1558WAT     OW 4672   6.709   5.411   4.442
 1558WAT    HW1 4673   6.691   5.398   4.349
 1558WAT    HW2 4674   6.623   5.422   4.482
 1559WAT     OW 4675   6.438   3.691   6.387
 1559WAT    HW1 4676   6.349   3.723   6.371
 1559WAT    HW2 4677   6.431   3.596   6.378
 1560WAT     OW 4678   0.847   4.113   5.858
 1560WAT    HW1 4679   0.769   4.137   5.909
 1560WAT    HW2 4680   0.908   4.079   5.923
 1561WAT     OW 4681   3.997   2.209   0.785
 1561WAT    HW1 4682   3.988   2.115   0.771
 1561WAT    HW2 4683   4.077   2.218   0.838
 1562WAT     OW 4684   3.586   2.288   5.350
 1562WAT    HW1 4685   3.542   2.371   5.329
 1562WAT    HW2 4686   3.612   2.253   5.264
 1563WAT     OW 4687   3.123   0.184   0.277
 1563WAT    HW1 4688   3.174   0.103   0.275
 1563WAT    HW2 4689   3.034   0.156   0.296
 1564WAT     OW 4690   0.584   0.213   2.738
 1564WAT    HW1 4691   0.672   0.181   2.717
 1564WAT    HW2 4692   0.598   0.302   2.770
 1565WAT     OW 4693   0.256   2.959   4.930
 1565WAT    HW1 4694   0.319   3.018   4.973
 1565WAT    HW2 4695   0.174   3.008   4.929
 1566WAT     OW 4696   3.665   4.314   4.447
 1566WAT    HW1 4697   3.672   4.330   4.541
 1566WAT    HW2 4698   3.715   4.386   4.407
 1567WAT     OW 4699   4.545   0.858   2.133
 1567WAT    HW1 4700   4.636   0.839   2.158
 1567WAT    HW2 4701   4.496   0.855   2.215
 1568WAT     OW 4702   4.721   5.473   3.616
 1568WAT    HW1 4703   4.661   5.488   3.542
 1568WAT    HW2 4704   4.686   5.395   3.659
 1569WAT     OW 4705   6.415   5.897   3.421
 1569WAT    HW1 4706   6.424   5.877   3.514
 1569WAT    HW2 4707   6.502   5.925   3.394
 1570WAT     OW 4708   0.083   0.829   1.396
 1570WAT    HW1 4709  -0.012   0.821   1.396
 1570WAT    HW2 4710   0.114   0.743   1.368
 1571WAT     OW 4711   2.489   0.314   0.616
 1571WAT    HW1 4712   2.508   0.282   0.704
 1571WAT    HW2 4713   2.574   0.318   0.573
 1572WAT     OW 4714   0.818   1.197   4.166
 1572WAT    HW1 4715   0.771   1.235   4.093
 1572WAT    HW2 4716   0.899   1.247   4.173
 1573WAT     OW 4717   4.904   3.105   5.344
 1573WAT    HW1 4718   4.861   3.031   5.388
 1573WAT    HW2 4719   4.989   3.112   5.386
 1574WAT     OW 4720   1.993   1.520   2.926
 1574WAT    HW1 4721   2.086   1.520   2.950
 1574WAT    HW2 4722   1.985   1.592   2.862
 1575WAT     OW 4723   5.268   2.471   1.739
 1575WAT    HW1 4724   5.327   2.429   1.676
 1575WAT    HW2 4725   5.307   2.452   1.825
 1576WAT     OW 4726   0.536   2.458   1.525
 1576WAT    HW1 4727   0.585   2.386   1.485
 1576WAT    HW2 4728   0.521   2.519   1.452
 1577WAT     OW 4729   5.909   6.668   6.399
 1577WAT    HW1 4730   5.866   6.737   6.349
 1577WAT    HW2 4731   5.846   6.596   6.399
 1578WAT     OW 4732   3.279   4.032   5.948
 1578WAT    HW1 4733   3.292   4.102   6.012
 1578WAT    HW2 4734   3.365   4.023   5.905
 1579WAT     OW 4735   2.428   4.296   5.557
 1579WAT    HW1 4736   2.420   4.244   5.637
 1579WAT    HW2 4737   2.398   4.237   5.488
 1580WAT     OW 4738   6.165   2.157   4.357
 1580WAT    HW1 4739   6.230   2.172   4.426
 1580WAT    HW2 4740   6.216   2.143   4.278
 1581WAT     OW 4741   2.084   0.982   5.353
 1581WAT    HW1 4742   2.030   1.060   5.369
 1581WAT    HW2 4743   2.031   0.928   5.295
 1582WAT     OW 4744   2.574   0.907   2.013
 1582WAT    HW1 4745   2.551   0.822   2.051
 1582WAT    HW2 4746   2.631   0.948   2.079
 1583WAT     OW 4747   6.163   6.517   0.523
 1583WAT    HW1 4748   6.098   6.585   0.545
 1583WAT    HW2 4749   6.178   6.528   0.429
 1584WAT     OW 4750   2.690   2.895   3.696
 1584WAT    HW1 4751   2.626   2.871   3.763
 1584WAT    HW2 4752   2.736   2.813   3.676
 1585WAT     OW 4753   0.371   0.562   1.220
 1585WAT    HW1 4754   0.362   0.520   1.135
 1585WAT    HW2 4755   0.282   0.559   1.258
 1586WAT     OW 4756   0.226   5.836   2.855
 1586WAT    HW1 4757   0.175   5.879   2.786
 1586WAT    HW2 4758   0.316   5.865   2.841
 1587WAT     OW 4759   2.276   0.778   2.086
 1587WAT    HW1 4760   2.274   0.858   2.138
 1587WAT    HW2 4761   2.355   0.732   2.115
 1588WAT     OW 4762   3.592   0.042   5.052
 1588WAT    HW1 4763   3.570  -0.025   4.988
 1588WAT    HW2 4764   3.618  -0.007   5.130
 1589WAT     OW 4765   2.767   0.164   1.016
 1589WAT    HW1 4766   2.740   0.122   1.098
 1589WAT    HW2 4767   2.790   0.254   1.042
 1590WAT     OW 4768   3.501   3.793   0.272
 1590WAT    HW1 4769   3.529   3.791   0.180
 1590WAT    HW2 4770   3.530   3.878   0.304
 1591WAT     OW 4771   6.703   5.481   0.335
 1591WAT    HW1 4772   6.703   5.566   0.291
 1591WAT    HW2 4773   6.780   5.484   0.391
 1592WAT     OW 4774   2.930   2.684   3.163
 1592WAT    HW1 4775   3.001   2.663   3.103
 1592WAT    HW2 4776   2.862   2.723   3.108
 1593WAT     OW 4777   5.261   5.120   3.625
 1593WAT    HW1 4778   5.307   5.063   3.686
 1593WAT    HW2 4779   5.292   5.208   3.647
 1594WAT     OW 4780   1.483   1.399   2.129
 1594WAT    HW1 4781   1.455   1.324   2.077
 1594WAT    HW2 4782   1.450   1.475   2.081
 1595WAT     OW 4783   2.936   6.139   6.323
 1595WAT    HW1 4784   2.858   6.111   6.276
 1595WAT    HW2 4785   3.001   6.156   6.254
 1596WAT     OW 4786   5.142   1.480   5.272
 1596WAT    HW1 4787   5.101   1.560   5.304
 1596WAT    HW2 4788   5.236   1.496   5.280
 1597WAT     OW 4789   0.302   6.485   5.096
 1597WAT    HW1 4790   0.291   6.534   5.177
 1597WAT    HW2 4791   0.354   6.409   5.120
 1598WAT     OW 4792   6.006   6.311   2.609
 1598WAT    HW1 4793   6.028   6.219   2.599
 1598WAT    HW2 4794   5.928   6.323   2.554
 1599WAT     OW 4795   5.093   5.043   2.121
 1599WAT    HW1 4796   5.099   5.002   2.207
 1599WAT    HW2 4797   5.006   5.019   2.090
 1600WAT     OW 4798   0.744   3.174   2.612
 1600WAT    HW1 4799   0.753   3.198   2.520
 1600WAT    HW2 4800   0.804   3.100   2.624
 1601WAT     OW 4801   3.309   1.793   0.585
 1601WAT    HW1 4802   3.343   1.841   0.660
 1601WAT    HW2 4803   3.383   1.785   0.525
 1602WAT     OW 4804   4.483   2.020   0.433
 1602WAT    HW1 4805   4.537   2.073   0.492
 1602WAT    HW2 4806   4.441   1.957   0.491
 1603WAT     OW 4807   2.999   4.649   3.086
 1603WAT    HW1 4808   2.974   4.565   3.049
 1603WAT    HW2 4809   3.046   4.627   3.167
 1604WAT     OW 4810   1.810   0.988   1.257
 1604WAT    HW1 4811   1.731   1.028   1.221
 1604WAT    HW2 4812   1.858   0.957   1.181
 1605WAT     OW 4813   3.426   5.391   5.014
 1605WAT    HW1 4814   3.401   5.440   5.092
 1605WAT    HW2 4815   3.508   5.347   5.038
 1606WAT     OW 4816   4.868   3.672   3.147
 1606WAT    HW1 4817   4.807   3.600   3.164
 1606WAT    HW2 4818   4.827   3.723   3.077
 1607WAT     OW 4819   4.719   1.280   5.572
 1607WAT    HW1 4820   4.680   1.193   5.571
 1607WAT    HW2 4821   4.732   1.300   5.665
 1608WAT     OW 4822   5.536   0.724   1.040
 1608WAT    HW1 4823   5.552   0.663   1.112
 1608WAT    HW2 4824   5.449   0.699   1.008
 1609WAT     OW 4825   4.267   0.759   3.589
 1609WAT    HW1 4826   4.338   0.791   3.644
 1609WAT    HW2 4827   4.302   0.763   3.500
 1610WAT     OW 4828   3.949   3.444   2.259
 1610WAT    HW1 4829   3.962   3.374   2.323
 1610WAT    HW2 4830   3.921   3.519   2.312
 1611WAT     OW 4831   4.627   1.708   2.480
 1611WAT    HW1 4832   4.579   1.786   2.508
 1611WAT    HW2 4833   4.561   1.652   2.441
 1612WAT     OW 4834   6.591   6.396   2.638
 1612WAT    HW1 4835   6.666   6.342   2.660
 1612WAT    HW2 4836   6.515   6.350   2.674
 1613WAT     OW 4837   1.904   3.445   6.229
 1613WAT    HW1 4838   1.851   3.365   6.231
 1613WAT    HW2 4839   1.960   3.434   6.151
 1614WAT     OW 4840   2.771   3.150   4.032
 1614WAT    HW1 4841   2.734   3.064   4.052
 1614WAT    HW2 4842   2.708   3.212   4.067
 1615WAT     OW 4843   2.509   1.335   2.188
 1615WAT    HW1 4844   2.603   1.320   2.201
 1615WAT    HW2 4845   2.483   1.268   2.125
 1616WAT     OW 4846   6.592   6.521   3.050
 1616WAT    HW1 4847   6.634   6.603   3.074
 1616WAT    HW2 4848   6.515   6.516   3.107
 1617WAT     OW 4849   6.480   3.896   1.112
 1617WAT    HW1 4850   6.505   3.985   1.088
 1617WAT    HW2 4851   6.542   3.840   1.064
 1618WAT     OW 4852   0.598   0.193   4.507
 1618WAT    HW1 4853   0.641   0.109   4.521
 1618WAT    HW2 4854   0.668   0.258   4.511
 1619WAT     OW 4855   2.540   1.686   5.095
 1619WAT    HW1 4856   2.615   1.745   5.084
 1619WAT    HW2 4857   2.564   1.631   5.169
 1620WAT     OW 4858   5.272   5.117   0.378
 1620WAT    HW1 4859   5.344   5.055   0.384
 1620WAT    HW2 4860   5.312   5.197   0.344
 1621WAT     OW 4861   4.995   1.072   6.201
 1621WAT    HW1 4862   5.034   1.080   6.114
 1621WAT    HW2 4863   4.928   1.140   6.204
 1622WAT     OW 4864   6.326   3.019   6.146
 1622WAT    HW1 4865   6.336   3.005   6.240
 1622WAT    HW2 4866   6.403   2.977   6.107
 1623WAT     OW 4867   0.510   0.894   4.135
 1623WAT    HW1 4868   0.580   0.862   4.077
 1623WAT    HW2 4869   0.470   0.966   4.087
 1624WAT     OW 4870   4.302   2.797   1.782
 1624WAT    HW1 4871   4.310   2.709   1.818
 1624WAT    HW2 4872   4.219   2.830   1.817
 1625WAT     OW 4873   5.330   5.341   1.193
 1625WAT    HW1 4874   5.396   5.373   1.131
 1625WAT    HW2 4875   5.381   5.301   1.264
 1626WAT     OW 4876   6.322   5.719   1.858
 1626WAT    HW1 4877   6.386   5.703   1.789
 1626WAT    HW2 4878   6.366   5.694   1.939
 1627WAT     OW 4879   3.640   1.814   1.329
 1627WAT    HW1 4880   3.709   1.817   1.262
 1627WAT    HW2 4881   3.680   1.856   1.405
 1628WAT     OW 4882   5.582   0.390   3.004
 1628WAT    HW1 4883   5.592   0.316   2.943
 1628WAT    HW2 4884   5.503   0.370   3.054
 1629WAT     OW 4885   2.079   3.499   1.415
 1629WAT    HW1 4886   2.060   3.582   1.459
 1629WAT    HW2 4887   1.999   3.479   1.366
 1630WAT     OW 4888   1.545   4.375   5.180
 1630WAT    HW1 4889   1.515   4.416   5.098
 1630WAT    HW2 4890   1.503   4.426   5.249
 1631WAT     OW 4891   4.979   4.520   5.114
 1631WAT    HW1 4892   5.025   4.523   5.198
 1631WAT    HW2 4893   5.042   4.554   5.050
 1632WAT     OW 4894   0.496   3.793   0.854
 1632WAT    HW1 4895   0.582   3.763   0.883
 1632WAT    HW2 4896   0.468   3.854   0.922
 1633WAT     OW 4897   0.636   3.023   5.491
 1633WAT    HW1 4898   0.702   3.082   5.453
 1633WAT    HW2 4899   0.612   3.065   5.574
 1634WAT     OW 4900   5.879   2.768   2.237
 1634WAT    HW1 4901   5.930   2.687   2.233
 1634WAT    HW2 4902   5.945   2.837   2.228
 1635WAT     OW 4903   0.519   4.035   5.187
 1635WAT    HW1 4904   0.547   3.944   5.196
 1635WAT    HW2 4905   0.541   4.075   5.271
 1636WAT     OW 4906   5.482   4.283   1.875
 1636WAT    HW1 4907   5.520   4.293   1.962
 1636WAT    HW2 4908   5.526   4.207   1.838
 1637WAT     OW 4909   2.794   6.464   3.119
 1637WAT    HW1 4910   2.864   6.418   3.167
 1637WAT    HW2 4911   2.787   6.548   3.163
 1638WAT     OW 4912   0.485   3.063   3.417
 1638WAT    HW1 4913   0.580   3.055   3.419
 1638WAT    HW2 4914   0.454   3.003   3.484
 1639WAT     OW 4915   6.175   6.402   3.831
 1639WAT    HW1 4916   6.094   6.435   3.791
 1639WAT    HW2 4917   6.225   6.368   3.757
 1640WAT     OW 4918   0.081   3.215   5.286
 1640WAT    HW1 4919   0.142   3.197   5.357
 1640WAT    HW2 4920   0.051   3.129   5.257
 1641WAT     OW 4921   1.198   3.324   5.967
 1641WAT    HW1 4922   1.168   3.286   5.884
 1641WAT    HW2 4923   1.244   3.252   6.011
 1642WAT     OW 4924   1.552   4.309   4.466
 1642WAT    HW1 4925   1.579   4.217   4.463
 1642WAT    HW2 4926   1.548   4.335   4.374
 1643WAT     OW 4927   2.351   4.181   1.401
 1643WAT    HW1 4928   2.359   4.252   1.338
 1643WAT    HW2 4929   2.430   4.129   1.388
 1644WAT     OW 4930   3.864   2.854   1.006
 1644WAT    HW1 4931   3.829   2.803   1.079
 1644WAT    HW2 4932   3.788   2.871   0.950
 1645WAT     OW 4933   2.664   0.918   2.596
 1645WAT    HW1 4934   2.603   0.846   2.610
 1645WAT    HW2 4935   2.609   0.997   2.601
 1646WAT     OW 4936   0.082   3.142   3.692
 1646WAT    HW1 4937   0.140   3.079   3.735
 1646WAT    HW2 4938   0.051   3.097   3.614
 1647WAT     OW 4939   4.802   3.217   0.251
 1647WAT    HW1 4940   4.807   3.282   0.182
 1647WAT    HW2 4941   4.855   3.144   0.219
 1648WAT     OW 4942   2.192   2.796   6.657
 1648WAT    HW1 4943   2.197   2.732   6.729
 1648WAT    HW2 4944   2.120   2.765   6.603
 1649WAT     OW 4945   6.596   2.519   1.464
 1649WAT    HW1 4946   6.584   2.430   1.430
 1649WAT    HW2 4947   6.540   2.574   1.410
 1650WAT     OW 4948   2.017   1.626   3.307
 1650WAT    HW1 4949   2.105   1.613   3.344
 1650WAT    HW2 4950   1.999   1.719   3.321
 1651WAT     OW 4951   0.516   1.260   3.140
 1651WAT    HW1 4952   0.505   1.317   3.064
 1651WAT    HW2 4953   0.540   1.175   3.104
 1652WAT     OW 4954   1.354   6.062   5.824
 1652WAT    HW1 4955   1.276   6.055   5.879
 1652WAT    HW2 4956   1.410   5.989   5.850
 1653WAT     OW 4957   2.075   3.914   2.035
 1653WAT    HW1 4958   2.054   3.977   2.104
 1653WAT    HW2 4959   2.151   3.951   1.990
 1654WAT     OW 4960   1.352   0.864   6.109
 1654WAT    HW1 4961   1.374   0.862   6.016
 1654WAT    HW2 4962   1.324   0.774   6.129
 1655WAT     OW 4963   2.855   6.040   2.049
 1655WAT    HW1 4964   2.926   6.086   2.094
 1655WAT    HW2 4965   2.818   5.983   2.115
 1656WAT     OW 4966   5.119   2.104   1.564
 1656WAT    HW1 4967   5.097   2.196   1.578
 1656WAT    HW2 4968   5.045   2.068   1.515
 1657WAT     OW 4969   5.333   1.786   4.096
 1657WAT    HW1 4970   5.411   1.840   4.109
 1657WAT    HW2 4971   5.279   1.803   4.174
 1658WAT     OW 4972   4.088   5.954   2.074
 1658WAT    HW1 4973   4.023   5.931   2.140
 1658WAT    HW2 4974   4.070   6.045   2.052
 1659WAT     OW 4975   4.297   4.309   2.321
 1659WAT    HW1 4976   4.216   4.259   2.326
 1659WAT    HW2 4977   4.362   4.246   2.291
 1660WAT     OW 4978   3.313   5.764   1.176
 1660WAT    HW1 4979   3.310   5.796   1.266
 1660WAT    HW2 4980   3.229   5.787   1.139
 1661WAT     OW 4981   4.873   3.530   2.644
 1661WAT    HW1 4982   4.892   3.610   2.594
 1661WAT    HW2 4983   4.901   3.459   2.586
 1662WAT     OW 4984   5.126   0.439   6.378
 1662WAT    HW1 4985   5.049   0.494   6.396
 1662WAT    HW2 4986   5.119   0.367   6.441
 1663WAT     OW 4987   3.142   2.239   2.097
 1663WAT    HW1 4988   3.116   2.148   2.082
 1663WAT    HW2 4989   3.223   2.233   2.146
 1664WAT     OW 4990   3.292   2.145   4.162
 1664WAT    HW1 4991   3.310   2.179   4.074
 1664WAT    HW2 4992   3.299   2.050   4.154
 1665WAT     OW 4993   0.564   4.782   0.966
 1665WAT    HW1 4994   0.479   4.827   0.962
 1665WAT    HW2 4995   0.603   4.812   1.048
 1666WAT     OW 4996   0.169   5.519   3.663
 1666WAT    HW1 4997   0.212   5.601   3.640
 1666WAT    HW2 4998   0.192   5.504   3.755
 1667WAT     OW 4999   0.521   1.208   4.539
 1667WAT    HW1 5000   0.497   1.139   4.600
 1667WAT    HW2 5001   0.548   1.161   4.460
 1668WAT     OW 5002   4.030   5.220   0.142
 1668WAT    HW1 5003   3.996   5.131   0.141
 1668WAT    HW2 5004   4.018   5.250   0.232
 1669WAT     OW 5005   6.614   3.133   6.663
 1669WAT    HW1 5006   6.609   3.054   6.609
 1669WAT    HW2 5007   6.658   3.104   6.743
 1670WAT     OW 5008   5.299   0.286   0.152
 1670WAT    HW1 5009   5.218   0.337   0.162
 1670WAT    HW2 5010   5.355   0.317   0.224
 1671WAT     OW 5011   2.742   6.559   5.478
 1671WAT    HW1 5012   2.681   6.531   5.546
 1671WAT    HW2 5013   2.828   6.538   5.514
 1672WAT     OW 5014   1.249   0.679   2.421
 1672WAT    HW1 5015   1.305   0.745   2.381
 1672WAT    HW2 5016   1.284   0.668   2.509
 1673WAT     OW 5017   2.792   2.825   0.875
 1673WAT    HW1 5018   2.698   2.832   0.890
 1673WAT    HW2 5019   2.825   2.781   0.953
 1674WAT     OW 5020   1.488   0.248   3.943
 1674WAT    HW1 5021   1.582   0.266   3.947
 1674WAT    HW2 5022   1.458   0.292   3.864
 1675WAT     OW 5023   3.389   6.431   0.257
 1675WAT    HW1 5024   3.413   6.465   0.343
 1675WAT    HW2 5025   3.383   6.336   0.270
 1676WAT     OW 5026   3.866   4.525   5.441
 1676WAT    HW1 5027   3.898   4.521   5.351
 1676WAT    HW2 5028   3.945   4.518   5.495
 1677WAT     OW 5029   1.006   5.584   3.395
 1677WAT    HW1 5030   0.913   5.563   3.407
 1677WAT    HW2 5031   1.041   5.593   3.484
 1678WAT     OW 5032   4.636   2.500   2.645
 1678WAT    HW1 5033   4.546   2.478   2.621
 1678WAT    HW2 5034   4.690   2.442   2.592
 1679WAT     OW 5035   1.190   5.007   0.252
 1679WAT    HW1 5036   1.143   4.933   0.289
 1679WAT    HW2 5037   1.268   5.016   0.306
 1680WAT     OW 5038   3.625   1.464   5.812
 1680WAT    HW1 5039   3.699   1.467   5.872
 1680WAT    HW2 5040   3.573   1.541   5.835
 1681WAT     OW 5041   4.913   5.726   3.030
 1681WAT    HW1 5042   4.900   5.655   2.968
 1681WAT    HW2 5043   4.845   5.790   3.008
 1682WAT     OW 5044   2.002   1.110   5.057
 1682WAT    HW1 5045   1.992   1.022   5.094
 1682WAT    HW2 5046   1.912   1.141   5.046
 1683WAT     OW 5047   0.301   5.758   3.624
 1683WAT    HW1 5048   0.264   5.844   3.604
 1683WAT    HW2 5049   0.320   5.761   3.718
 1684WAT     OW 5050   1.023   5.136   1.694
 1684WAT    HW1 5051   0.983   5.058   1.655
 1684WAT    HW2 5052   0.982   5.142   1.781
 1685WAT     OW 5053   5.958   4.483   2.192
 1685WAT    HW1 5054   5.871   4.510   2.224
 1685WAT    HW2 5055   6.000   4.444   2.269
 1686WAT     OW 5056   0.924   2.241   3.843
 1686WAT    HW1 5057   1.005   2.224   3.794
 1686WAT    HW2 5058   0.857   2.252   3.775
 1687WAT     OW 5059   1.342   3.303   6.465
 1687WAT    HW1 5060   1.263   3.263   6.429
 1687WAT    HW2 5061   1.392   3.332   6.389
 1688WAT     OW 5062   3.023   0.516   2.603
 1688WAT    HW1 5063   3.085   0.452   2.636
 1688WAT    HW2 5064   3.055   0.600   2.636
 1689WAT     OW 5065   1.365   4.914   1.531
 1689WAT    HW1 5066   1.332   4.971   1.461
 1689WAT    HW2 5067   1.364   4.969   1.609
 1690WAT     OW 5068   3.493   6.231   1.628
 1690WAT    HW1 5069   3.476   6.246   1.721
 1690WAT    HW2 5070   3.581   6.266   1.614
 1691WAT     OW 5071   6.535   5.951   5.568
 1691WAT    HW1 5072   6.573   6.011   5.504
 1691WAT    HW2 5073   6.513   6.006   5.644
 1692WAT     OW 5074   2.144   1.158   5.875
 1692WAT    HW1 5075   2.124   1.177   5.783
 1692WAT    HW2 5076   2.238   1.173   5.883
 1693WAT     OW 5077   2.972   1.529   5.000
 1693WAT    HW1 5078   2.964   1.586   5.076
 1693WAT    HW2 5079   3.049   1.476   5.018
 1694WAT     OW 5080   1.900   0.698   3.935
 1694WAT    HW1 5081   1.859   0.696   3.849
 1694WAT    HW2 5082   1.979   0.645   3.925
 1695WAT     OW 5083   3.489   3.644   2.751
 1695WAT    HW1 5084   3.479   3.714   2.687
 1695WAT    HW2 5085   3.562   3.673   2.807
 1696WAT     OW 5086   4.125   0.726   1.012
 1696WAT    HW1 5087   4.079   0.698   1.091
 1696WAT    HW2 5088   4.208   0.679   1.015
 1697WAT     OW 5089   6.227   5.467   6.434
 1697WAT    HW1 5090   6.297   5.407   6.412
 1697WAT    HW2 5091   6.173   5.473   6.355
 1698WAT     OW 5092   3.697   6.049   0.194
 1698WAT    HW1 5093   3.620   6.083   0.149
 1698WAT    HW2 5094   3.734   5.984   0.133
 1699WAT     OW 5095   4.222   6.686   6.316
 1699WAT    HW1 5096   4.232   6.779   6.333
 1699WAT    HW2 5097   4.222   6.645   6.403
 1700WAT     OW 5098   5.138   4.584   5.875
 1700WAT    HW1 5099   5.209   4.555   5.932
 1700WAT    HW2 5100   5.181   4.610   5.794
 1701WAT     OW 5101   5.974   4.990   6.043
 1701WAT    HW1 5102   5.978   4.896   6.058
 1701WAT    HW2 5103   5.963   5.028   6.130
 1702WAT     OW 5104   2.796   3.745   1.729
 1702WAT    HW1 5105   2.882   3.704   1.724
 1702WAT    HW2 5106   2.810   3.834   1.697
 1703WAT     OW 5107   4.311   3.803   0.483
 1703WAT    HW1 5108   4.350   3.730   0.531
 1703WAT    HW2 5109   4.385   3.856   0.455
 1704WAT     OW 5110   4.058   2.286   4.638
 1704WAT    HW1 5111   4.036   2.195   4.660
 1704WAT    HW2 5112   4.148   2.297   4.668
 1705WAT     OW 5113   5.104   4.934   2.377
 1705WAT    HW1 5114   5.019   4.894   2.399
 1705WAT    HW2 5115   5.168   4.883   2.427
 1706WAT     OW 5116   1.805   2.560   3.277
 1706WAT    HW1 5117   1.735   2.624   3.268
 1706WAT    HW2 5118   1.876   2.593   3.223
 1707WAT     OW 5119   4.587   2.459   1.823
 1707WAT    HW1 5120   4.650   2.531   1.824
 1707WAT    HW2 5121   4.640   2.380   1.831
 1708WAT     OW 5122   1.796   2.544   6.717
 1708WAT    HW1 5123   1.718   2.588   6.750
 1708WAT    HW2 5124   1.771   2.451   6.712
 1709WAT     OW 5125   0.844   3.488   6.348
 1709WAT    HW1 5126   0.789   3.411   6.343
 1709WAT    HW2 5127   0.909   3.476   6.278
 1710WAT     OW 5128   4.004   2.366   0.554
 1710WAT    HW1 5129   3.994   2.307   0.628
 1710WAT    HW2 5130   4.014   2.453   0.594
 1711WAT     OW 5131   1.314   3.038   4.204
 1711WAT    HW1 5132   1.355   3.033   4.290
 1711WAT    HW2 5133   1.387   3.057   4.145
 1712WAT     OW 5134   3.965   1.080   5.061
 1712WAT    HW1 5135   3.879   1.038   5.063
 1712WAT    HW2 5136   3.947   1.172   5.044
 1713WAT     OW 5137   3.432   0.188   1.880
 1713WAT    HW1 5138   3.456   0.109   1.831
 1713WAT    HW2 5139   3.336   0.186   1.883
 1714WAT     OW 5140   1.581   0.111   5.712
 1714WAT    HW1 5141   1.547   0.086   5.626
 1714WAT    HW2 5142   1.676   0.117   5.701
 1715WAT     OW 5143   1.973   2.274   4.369
 1715WAT    HW1 5144   1.981   2.260   4.463
 1715WAT    HW2 5145   2.063   2.268   4.335
 1716WAT     OW 5146   3.998   0.266   4.679
 1716WAT    HW1 5147   3.965   0.296   4.594
 1716WAT    HW2 5148   4.011   0.347   4.729
 1717WAT     OW 5149   2.489   5.661   5.434
 1717WAT    HW1 5150   2.416   5.717   5.459
 1717WAT    HW2 5151   2.524   5.628   5.517
 1718WAT     OW 5152   2.661   3.127   0.423
 1718WAT    HW1 5153   2.636   3.036   0.440
 1718WAT    HW2 5154   2.752   3.133   0.454
 1719WAT     OW 5155   1.384   5.003   0.681
 1719WAT    HW1 5156   1.441   5.034   0.752
 1719WAT    HW2 5157   1.407   4.911   0.670
 1720WAT     OW 5158   3.187   5.125   0.061
 1720WAT    HW1 5159   3.125   5.161  -0.002
 1720WAT    HW2 5160   3.222   5.202   0.106
 1721WAT     OW 5161   3.162   2.073   5.581
 1721WAT    HW1 5162   3.086   2.127   5.559
 1721WAT    HW2 5163   3.237   2.126   5.555
 1722WAT     OW 5164   5.110   6.619   6.138
 1722WAT    HW1 5165   5.142   6.537   6.176
 1722WAT    HW2 5166   5.016   6.619   6.156
 1723WAT     OW 5167   0.381   5.761   4.844
 1723WAT    HW1 5168   0.323   5.835   4.825
 1723WAT    HW2 5169   0.324   5.696   4.885
 1724WAT     OW 5170   2.037   0.252   5.990
 1724WAT    HW1 5171   2.125   0.223   6.013
 1724WAT    HW2 5172   2.017   0.319   6.056
 1725WAT     OW 5173   2.304   5.628   1.962
 1725WAT    HW1 5174   2.298   5.722   1.947
 1725WAT    HW2 5175   2.222   5.593   1.927
 1726WAT     OW 5176   5.613   2.674   2.836
 1726WAT    HW1 5177   5.662   2.593   2.823
 1726WAT    HW2 5178   5.561   2.659   2.915
 1727WAT     OW 5179   1.241   3.600   6.234
 1727WAT    HW1 5180   1.270   3.656   6.305
 1727WAT    HW2 5181   1.311   3.535   6.223
 1728WAT     OW 5182   2.046   6.518   6.608
 1728WAT    HW1 5183   2.028   6.562   6.525
 1728WAT    HW2 5184   1.971   6.540   6.663
 1729WAT     OW 5185   1.254   2.110   6.660
 1729WAT    HW1 5186   1.260   2.191   6.711
 1729WAT    HW2 5187   1.183   2.127   6.598
 1730WAT     OW 5188   2.354   2.201   4.633
 1730WAT    HW1 5189   2.338   2.289   4.667
 1730WAT    HW2 5190   2.404   2.216   4.553
 1731WAT     OW 5191   4.462   6.071   4.611
 1731WAT    HW1 5192   4.539   6.108   4.653
 1731WAT    HW2 5193   4.492   6.046   4.523
 1732WAT     OW 5194   6.276   6.071   3.682
 1732WAT    HW1 5195   6.196   6.019   3.690
 1732WAT    HW2 5196   6.347   6.007   3.690
 1733WAT     OW 5197   2.218   2.952   3.094
 1733WAT    HW1 5198   2.190   2.927   3.006
 1733WAT    HW2 5199   2.154   3.017   3.122
 1734WAT     OW 5200   0.729   1.659   2.362
 1734WAT    HW1 5201   0.642   1.620   2.358
 1734WAT    HW2 5202   0.773   1.629   2.283
 1735WAT     OW 5203   1.842   0.913   2.823
 1735WAT    HW1 5204   1.803   0.929   2.909
 1735WAT    HW2 5205   1.930   0.882   2.842
 1736WAT     OW 5206   1.185   6.477   2.497
 1736WAT    HW1 5207   1.112   6.416   2.508
 1736WAT    HW2 5208   1.148   6.549   2.446
 1737WAT     OW 5209   4.237   3.318   2.488
 1737WAT    HW1 5210   4.265   3.294   2.576
 1737WAT    HW2 5211   4.147   3.285   2.482
 1738WAT     OW 5212   0.807   5.552   6.214
 1738WAT    HW1 5213   0.792   5.500   6.294
 1738WAT    HW2 5214   0.770   5.638   6.235
 1739WAT     OW 5215   2.170   3.176   3.507
 1739WAT    HW1 5216   2.149   3.088   3.474
 1739WAT    HW2 5217   2.087   3.208   3.542
 1740WAT     OW 5218   6.336   4.728   5.286
 1740WAT    HW1 5219   6.429   4.723   5.264
 1740WAT    HW2 5220   6.302   4.642   5.261
 1741WAT     OW 5221   1.742   1.829   6.646
 1741WAT    HW1 5222   1.667   1.800   6.699
 1741WAT    HW2 5223   1.729   1.786   6.561
 1742WAT     OW 5224   6.187   5.299   3.513
 1742WAT    HW1 5225   6.216   5.216   3.476
 1742WAT    HW2 5226   6.120   5.330   3.452
 1743WAT     OW 5227   3.367   1.918   2.294
 1743WAT    HW1 5228   3.447   1.877   2.261
 1743WAT    HW2 5229   3.316   1.846   2.330
 1744WAT     OW 5230   3.655   0.068   4.710
 1744WAT    HW1 5231   3.749   0.051   4.716
 1744WAT    HW2 5232   3.615   0.004   4.768
 1745WAT     OW 5233   3.656   5.528   4.135
 1745WAT    HW1 5234   3.672   5.580   4.214
 1745WAT    HW2 5235   3.738   5.532   4.086
 1746WAT     OW 5236   6.132   5.040   5.006
 1746WAT    HW1 5237   6.136   5.123   4.958
 1746WAT    HW2 5238   6.081   5.060   5.084
 1747WAT     OW 5239   2.694   6.045   1.828
 1747WAT    HW1 5240   2.755   6.039   1.901
 1747WAT    HW2 5241   2.620   6.095   1.862
 1748WAT     OW 5242   0.967   6.310   2.505
 1748WAT    HW1 5243   0.882   6.352   2.491
 1748WAT    HW2 5244   0.956   6.260   2.585
 1749WAT     OW 5245   6.280   2.745   5.963
 1749WAT    HW1 5246   6.368   2.770   5.992
 1749WAT    HW2 5247   6.235   2.828   5.952
 1750WAT     OW 5248   5.106   1.659   0.359
 1750WAT    HW1 5249   5.076   1.738   0.314
 1750WAT    HW2 5250   5.053   1.588   0.322
 1751WAT     OW 5251   0.829   1.839   6.268
 1751WAT    HW1 5252   0.819   1.775   6.198
 1751WAT    HW2 5253   0.739   1.869   6.285
 1752WAT     OW 5254   0.982   3.292   0.055
 1752WAT    HW1 5255   1.026   3.376   0.045
 1752WAT    HW2 5256   0.910   3.295  -0.008
 1753WAT     OW 5257   3.205   0.527   5.590
 1753WAT    HW1 5258   3.139   0.560   5.529
 1753WAT    HW2 5259   3.276   0.496   5.534
 1754WAT     OW 5260   2.141   5.312   6.678
 1754WAT    HW1 5261   2.143   5.238   6.739
 1754WAT    HW2 5262   2.121   5.272   6.593
 1755WAT     OW 5263   2.890   6.033   1.022
 1755WAT    HW1 5264   2.963   6.057   1.080
 1755WAT    HW2 5265   2.849   6.116   1.000
 1756WAT     OW 5266   4.328   2.365   1.386
 1756WAT    HW1 5267   4.398   2.377   1.450
 1756WAT    HW2 5268   4.297   2.454   1.366
 1757WAT     OW 5269   2.171   5.131   3.985
 1757WAT    HW1 5270   2.122   5.209   4.010
 1757WAT    HW2 5271   2.178   5.137   3.890
 1758WAT     OW 5272   6.585   3.790   4.741
 1758WAT    HW1 5273   6.664   3.772   4.792
 1758WAT    HW2 5274   6.599   3.879   4.708
 1759WAT     OW 5275   1.432   3.110   0.478
 1759WAT    HW1 5276   1.511   3.076   0.521
 1759WAT    HW2 5277   1.455   3.199   0.452
 1760WAT     OW 5278   5.370   0.984   0.071
 1760WAT    HW1 5279   5.351   0.950  -0.017
 1760WAT    HW2 5280   5.395   1.076   0.056
 1761WAT     OW 5281   6.689   2.621   3.865
 1761WAT    HW1 5282   6.774   2.625   3.909
 1761WAT    HW2 5283   6.650   2.540   3.897
 1762WAT     OW 5284   3.958   3.219   2.420
 1762WAT    HW1 5285   3.866   3.197   2.407
 1762WAT    HW2 5286   4.006   3.157   2.367
 1763WAT     OW 5287   3.464   0.957   4.165
 1763WAT    HW1 5288   3.443   0.893   4.096
 1763WAT    HW2 5289   3.546   0.924   4.203
 1764WAT     OW 5290   4.939   6.695   5.562
 1764WAT    HW1 5291   4.877   6.624   5.545
 1764WAT    HW2 5292   5.024   6.651   5.572
 1765WAT     OW 5293   5.728   3.449   4.515
 1765WAT    HW1 5294   5.753   3.418   4.602
 1765WAT    HW2 5295   5.638   3.481   4.526
 1766WAT     OW 5296   5.179   0.072   0.026
 1766WAT    HW1 5297   5.236   0.136   0.069
 1766WAT    HW2 5298   5.114   0.049   0.092
 1767WAT     OW 5299   0.640   6.150   6.387
 1767WAT    HW1 5300   0.646   6.164   6.293
 1767WAT    HW2 5301   0.703   6.213   6.424
 1768WAT     OW 5302   4.275   1.049   3.741
 1768WAT    HW1 5303   4.351   0.992   3.737
 1768WAT    HW2 5304   4.250   1.063   3.650
 1769WAT     OW 5305   1.260   4.575   2.867
 1769WAT    HW1 5306   1.302   4.547   2.785
 1769WAT    HW2 5307   1.251   4.495   2.918
 1770WAT     OW 5308   1.860   0.171   3.486
 1770WAT    HW1 5309   1.834   0.257   3.521
 1770WAT    HW2 5310   1.808   0.161   3.406
 1771WAT     OW 5311   2.082   6.004   5.459
 1771WAT    HW1 5312   2.026   6.030   5.385
 1771WAT    HW2 5313   2.021   5.963   5.521
 1772WAT     OW 5314   2.073   1.939   0.315
 1772WAT    HW1 5315   2.022   1.864   0.346
 1772WAT    HW2 5316   2.130   1.903   0.247
 1773WAT     OW 5317   0.092   4.282   3.716
 1773WAT    HW1 5318   0.094   4.188   3.735
 1773WAT    HW2 5319   0.003   4.298   3.684
 1774WAT     OW 5320   0.505   1.510   2.318
 1774WAT    HW1 5321   0.538   1.423   2.340
 1774WAT    HW2 5322   0.466   1.499   2.231
 1775WAT     OW 5323   6.424   5.185   4.128
 1775WAT    HW1 5324   6.340   5.190   4.082
 1775WAT    HW2 5325   6.458   5.099   4.106
 1776WAT     OW 5326   3.797   2.662   1.982
 1776WAT    HW1 5327   3.740   2.612   2.040
 1776WAT    HW2 5328   3.738   2.697   1.915
 1777WAT     OW 5329   5.115   3.388   3.299
 1777WAT    HW1 5330   5.183   3.444   3.336
 1777WAT    HW2 5331   5.035   3.415   3.345
 1778WAT     OW 5332   6.427   4.180   2.906
 1778WAT    HW1 5333   6.494   4.204   2.970
 1778WAT    HW2 5334   6.344   4.188   2.954
 1779WAT     OW 5335   1.831   4.746   5.265
 1779WAT    HW1 5336   1.829   4.686   5.190
 1779WAT    HW2 5337   1.920   4.781   5.266
 1780WAT     OW 5338   2.015   0.080   5.488
 1780WAT    HW1 5339   2.103   0.112   5.468
 1780WAT    HW2 5340   1.981   0.049   5.404
 1781WAT     OW 5341   4.319   3.522   2.320
 1781WAT    HW1 5342   4.289   3.452   2.379
 1781WAT    HW2 5343   4.263   3.513   2.243
 1782WAT     OW 5344   3.998   3.352   4.309
 1782WAT    HW1 5345   4.043   3.277   4.269
 1782WAT    HW2 5346   4.007   3.337   4.403
 1783WAT     OW 5347   3.596   1.404   4.401
 1783WAT    HW1 5348   3.555   1.318   4.413
 1783WAT    HW2 5349   3.647   1.395   4.321
 1784WAT     OW 5350   0.426   5.608   0.472
 1784WAT    HW1 5351   0.421   5.662   0.393
 1784WAT    HW2 5352   0.510   5.563   0.464
 1785WAT     OW 5353   1.924   0.410   0.111
 1785WAT    HW1 5354   1.925   0.344   0.041
 1785WAT    HW2 5355   2.013   0.445   0.112
 1786WAT     OW 5356   5.493   2.100   5.913
 1786WAT    HW1 5357   5.553   2.113   5.840
 1786WAT    HW2 5358   5.462   2.189   5.934
 1787WAT     OW 5359   5.507   3.746   4.406
 1787WAT    HW1 5360   5.506   3.666   4.458
 1787WAT    HW2 5361   5.415   3.762   4.384
 1788WAT     OW 5362   5.741   4.269   6.275
 1788WAT    HW1 5363   5.707   4.347   6.317
 1788WAT    HW2 5364   5.671   4.241   6.215
 1789WAT     OW 5365   5.508   5.825   0.101
 1789WAT    HW1 5366   5.601   5.821   0.121
 1789WAT    HW2 5367   5.503   5.862   0.013
 1790WAT     OW 5368   3.996   0.652   0.332
 1790WAT    HW1 5369   3.937   0.584   0.300
 1790WAT    HW2 5370   3.939   0.723   0.360
 1791WAT     OW 5371   2.034   5.785   1.542
 1791WAT    HW1 5372   2.038   5.881   1.537
 1791WAT    HW2 5373   2.015   5.757   1.452
 1792WAT     OW 5374   4.887   5.471   2.569
 1792WAT    HW1 5375   4.887   5.383   2.532
 1792WAT    HW2 5376   4.959   5.516   2.525
 1793WAT     OW 5377   4.098   2.298   2.882
 1793WAT    HW1 5378   4.156   2.366   2.916
 1793WAT    HW2 5379   4.157   2.235   2.840
 1794WAT     OW 5380   3.176   1.996   0.007
 1794WAT    HW1 5381   3.116   2.070  -0.009
 1794WAT    HW2 5382   3.154   1.967   0.095
 1795WAT     OW 5383   2.903   4.501   4.432
 1795WAT    HW1 5384   2.896   4.433   4.366
 1795WAT    HW2 5385   2.815   4.507   4.470
 1796WAT     OW 5386   4.119   4.167   1.366
 1796WAT    HW1 5387   4.085   4.078   1.379
 1796WAT    HW2 5388   4.074   4.199   1.287
 1797WAT     OW 5389   0.519   1.339   5.325
 1797WAT    HW1 5390   0.577   1.283   5.273
 1797WAT    HW2 5391   0.571   1.419   5.340
 1798WAT     OW 5392   2.265   2.638   5.875
 1798WAT    HW1 5393   2.337   2.592   5.918
 1798WAT    HW2 5394   2.299   2.663   5.789
 1799WAT     OW 5395   4.231   4.783   6.332
 1799WAT    HW1 5396   4.268   4.779   6.244
 1799WAT    HW2 5397   4.271   4.710   6.378
 1800WAT     OW 5398   1.925   6.636   3.589
 1800WAT    HW1 5399   2.005   6.618   3.539
 1800WAT    HW2 5400   1.899   6.724   3.562
 1801WAT     OW 5401   2.120   5.550   3.196
 1801WAT    HW1 5402   2.096   5.508   3.113
 1801WAT    HW2 5403   2.216   5.547   3.198
 1802WAT     OW 5404   0.653   0.545   6.591
 1802WAT    HW1 5405   0.684   0.531   6.502
 1802WAT    HW2 5406   0.720   0.601   6.631
 1803WAT     OW 5407   2.004   1.255   6.098
 1803WAT    HW1 5408   2.064   1.221   6.031
 1803WAT    HW2 5409   2.060   1.306   6.157
 1804WAT     OW 5410   0.951   2.877   3.437
 1804WAT    HW1 5411   1.003   2.895   3.515
 1804WAT    HW2 5412   0.934   2.783   3.441
 1805WAT     OW 5413   6.656   2.537   5.554
 1805WAT    HW1 5414   6.639   2.554   5.461
 1805WAT    HW2 5415   6.653   2.442   5.561
 1806WAT     OW 5416   0.929   4.576   4.491
 1806WAT    HW1 5417   0.903   4.501   4.544
 1806WAT    HW2 5418   0.980   4.632   4.550
 1807WAT     OW 5419   0.329   3.447   6.484
 1807WAT    HW1 5420   0.275   3.519   6.452
 1807WAT    HW2 5421   0.290   3.369   6.445
 1808WAT     OW 5422   3.908   2.976   5.733
 1808WAT    HW1 5423   3.965   2.987   5.809
 1808WAT    HW2 5424   3.960   3.009   5.659
 1809WAT     OW 5425   4.163   4.348   3.033
 1809WAT    HW1 5426   4.155   4.370   2.940
 1809WAT    HW2 5427   4.074   4.356   3.066
 1810WAT     OW 5428   5.749   0.909   3.453
 1810WAT    HW1 5429   5.676   0.963   3.422
 1810WAT    HW2 5430   5.723   0.883   3.542
 1811WAT     OW 5431   3.315   5.520   2.989
 1811WAT    HW1 5432   3.390   5.488   3.039
 1811WAT    HW2 5433   3.333   5.613   2.976
 1812WAT     OW 5434   1.843   4.423   2.060
 1812WAT    HW1 5435   1.863   4.378   1.978
 1812WAT    HW2 5436   1.779   4.490   2.035
 1813WAT     OW 5437   6.453   4.430   1.820
 1813WAT    HW1 5438   6.397   4.399   1.750
 1813WAT    HW2 5439   6.406   4.407   1.900
 1814WAT     OW 5440   3.540   4.489   2.451
 1814WAT    HW1 5441   3.477   4.437   2.502
 1814WAT    HW2 5442   3.492   4.568   2.428
 1815WAT     OW 5443   6.457   4.159   0.526
 1815WAT    HW1 5444   6.504   4.105   0.590
 1815WAT    HW2 5445   6.523   4.179   0.459
 1816WAT     OW 5446   5.032   4.973   3.559
 1816WAT    HW1 5447   4.979   5.034   3.507
 1816WAT    HW2 5448   5.103   5.027   3.593
 1817WAT     OW 5449   5.287   4.265   4.458
 1817WAT    HW1 5450   5.351   4.284   4.389
 1817WAT    HW2 5451   5.257   4.352   4.487
 1818WAT     OW 5452   3.680   1.078   5.686
 1818WAT    HW1 5453   3.703   1.050   5.775
 1818WAT    HW2 5454   3.607   1.138   5.698
 1819WAT     OW 5455   0.512   3.297   1.983
 1819WAT    HW1 5456   0.516   3.280   2.078
 1819WAT    HW2 5457   0.430   3.257   1.956
 1820WAT     OW 5458   6.099   3.412   0.743
 1820WAT    HW1 5459   6.190   3.381   0.735
 1820WAT    HW2 5460   6.092   3.441   0.834
 1821WAT     OW 5461   4.977   3.835   6.686
 1821WAT    HW1 5462   5.015   3.833   6.599
 1821WAT    HW2 5463   5.043   3.794   6.742
 1822WAT     OW 5464   6.366   1.809   0.063
 1822WAT    HW1 5465   6.344   1.899   0.040
 1822WAT    HW2 5466   6.390   1.768  -0.020
 1823WAT     OW 5467   5.121   2.298   2.808
 1823WAT    HW1 5468   5.077   2.239   2.747
 1823WAT    HW2 5469   5.214   2.283   2.794
 1824WAT     OW 5470   2.860   3.805   3.286
 1824WAT    HW1 5471   2.773   3.844   3.280
 1824WAT    HW2 5472   2.902   3.851   3.358
 1825WAT     OW 5473   5.425   3.787   2.903
 1825WAT    HW1 5474   5.493   3.724   2.877
 1825WAT    HW2 5475   5.408   3.768   2.995
 1826WAT     OW 5476   5.601   5.961   5.775
 1826WAT    HW1 5477   5.674   5.997   5.724
 1826WAT    HW2 5478   5.529   5.956   5.713
 1827WAT     OW 5479   1.750   4.897   4.511
 1827WAT    HW1 5480   1.707   4.963   4.565
 1827WAT    HW2 5481   1.700   4.897   4.429
 1828WAT     OW 5482   4.603   3.833   1.852
 1828WAT    HW1 5483   4.507   3.841   1.850
 1828WAT    HW2 5484   4.618   3.740   1.869
 1829WAT     OW 5485   0.656   0.884   6.298
 1829WAT    HW1 5486   0.739   0.838   6.311
 1829WAT    HW2 5487   0.668   0.936   6.219
 1830WAT     OW 5488   4.359   3.086   5.895
 1830WAT    HW1 5489   4.376   2.999   5.933
 1830WAT    HW2 5490   4.438   3.136   5.917
 1831WAT     OW 5491   6.498   1.273   0.435
 1831WAT    HW1 5492   6.417   1.321   0.419
 1831WAT    HW2 5493   6.501   1.207   0.366
 1832WAT     OW 5494   5.419   3.441   2.150
 1832WAT    HW1 5495   5.491   3.495   2.184
 1832WAT    HW2 5496   5.342   3.472   2.197
 1833WAT     OW 5497   3.721   1.924   6.417
 1833WAT    HW1 5498   3.691   1.833   6.421
 1833WAT    HW2 5499   3.805   1.924   6.462
 1834WAT     OW 5500   0.006   1.185   2.584
 1834WAT    HW1 5501  -0.016   1.202   2.676
 1834WAT    HW2 5502   0.070   1.115   2.587
 1835WAT     OW 5503   1.095   6.048   5.941
 1835WAT    HW1 5504   1.028   6.046   5.873
 1835WAT    HW2 5505   1.056   6.101   6.011
 1836WAT     OW 5506   6.687   3.540   0.705
 1836WAT    HW1 5507   6.635   3.603   0.655
 1836WAT    HW2 5508   6.768   3.530   0.656
 1837WAT     OW 5509   2.935   5.536   2.731
 1837WAT    HW1 5510   2.851   5.499   2.704
 1837WAT    HW2 5511   2.912   5.600   2.798
 1838WAT     OW 5512   6.232   4.570   1.609
 1838WAT    HW1 5513   6.252   4.477   1.623
 1838WAT    HW2 5514   6.136   4.573   1.604
 1839WAT     OW 5515   6.526   2.979   5.756
 1839WAT    HW1 5516   6.459   2.984   5.687
 1839WAT    HW2 5517   6.562   3.067   5.760
 1840WAT     OW 5518   3.035   4.558   2.760
 1840WAT    HW1 5519   3.032   4.510   2.843
 1840WAT    HW2 5520   2.947   4.594   2.750
 1841WAT     OW 5521   2.788   1.347   1.038
 1841WAT    HW1 5522   2.735   1.267   1.045
 1841WAT    HW2 5523   2.858   1.335   1.103
 1842WAT     OW 5524   4.674   0.692   3.607
 1842WAT    HW1 5525   4.760   0.677   3.647
 1842WAT    HW2 5526   4.690   0.687   3.513
 1843WAT     OW 5527   1.134   3.336   1.604
 1843WAT    HW1 5528   1.080   3.359   1.679
 1843WAT    HW2 5529   1.184   3.259   1.632
 1844WAT     OW 5530   4.527   2.822   4.813
 1844WAT    HW1 5531   4.442   2.858   4.837
 1844WAT    HW2 5532   4.590   2.890   4.839
 1845WAT     OW 5533   4.263   0.542   2.017
 1845WAT    HW1 5534   4.267   0.494   2.099
 1845WAT    HW2 5535   4.349   0.528   1.977
 1846WAT     OW 5536   6.513   2.330   5.145
 1846WAT    HW1 5537   6.533   2.262   5.209
 1846WAT    HW2 5538   6.421   2.315   5.122
 1847WAT     OW 5539   3.215   4.426   6.575
 1847WAT    HW1 5540   3.274   4.351   6.582
 1847WAT    HW2 5541   3.254   4.492   6.633
 1848WAT     OW 5542   0.440   4.831   2.267
 1848WAT    HW1 5543   0.349   4.856   2.255
 1848WAT    HW2 5544   0.488   4.882   2.203
 1849WAT     OW 5545   0.635   0.164   6.190
 1849WAT    HW1 5546   0.618   0.178   6.284
 1849WAT    HW2 5547   0.700   0.094   6.188
 1850WAT     OW 5548   5.086   5.182   5.745
 1850WAT    HW1 5549   5.098   5.236   5.822
 1850WAT    HW2 5550   5.158   5.208   5.686
 1851WAT     OW 5551   1.850   1.159   1.466
 1851WAT    HW1 5552   1.837   1.110   1.386
 1851WAT    HW2 5553   1.787   1.231   1.461
 1852WAT     OW 5554   5.883   2.013   1.488
 1852WAT    HW1 5555   5.964   1.964   1.471
 1852WAT    HW2 5556   5.896   2.098   1.446
 1853WAT     OW 5557   0.808   5.352   4.323
 1853WAT    HW1 5558   0.737   5.325   4.382
 1853WAT    HW2 5559   0.825   5.274   4.269
 1854WAT     OW 5560   1.842   0.146   1.040
 1854WAT    HW1 5561   1.777   0.199   1.086
 1854WAT    HW2 5562   1.924   0.196   1.048
 1855WAT     OW 5563   0.110   0.651   2.630
 1855WAT    HW1 5564   0.154   0.714   2.687
 1855WAT    HW2 5565   0.123   0.567   2.672
 1856WAT     OW 5566   0.713   0.084   3.076
 1856WAT    HW1 5567   0.783   0.073   3.012
 1856WAT    HW2 5568   0.681   0.173   3.064
 1857WAT     OW 5569   3.206   1.438   1.141
 1857WAT    HW1 5570   3.212   1.533   1.151
 1857WAT    HW2 5571   3.295   1.410   1.119
 1858WAT     OW 5572   5.774   0.452   4.921
 1858WAT    HW1 5573   5.688   0.425   4.889
 1858WAT    HW2 5574   5.755   0.525   4.981
 1859WAT     OW 5575   6.069   0.834   5.940
 1859WAT    HW1 5576   6.022   0.793   5.867
 1859WAT    HW2 5577   6.137   0.887   5.897
 1860WAT     OW 5578   1.618   3.245   1.883
 1860WAT    HW1 5579   1.627   3.299   1.804
 1860WAT    HW2 5580   1.535   3.272   1.922
 1861WAT     OW 5581   2.004   0.650   1.168
 1861WAT    HW1 5582   2.072   0.629   1.105
 1861WAT    HW2 5583   1.996   0.571   1.222
 1862WAT     OW 5584   3.416   2.487   0.057
 1862WAT    HW1 5585   3.355   2.415   0.071
 1862WAT    HW2 5586   3.499   2.455   0.092
 1863WAT     OW 5587   6.586   1.028   1.034
 1863WAT    HW1 5588   6.522   0.989   1.094
 1863WAT    HW2 5589   6.550   1.011   0.947
 1864WAT     OW 5590   6.054   5.908   3.684
 1864WAT    HW1 5591   6.047   5.855   3.764
 1864WAT    HW2 5592   5.965   5.941   3.670
 1865WAT     OW 5593   4.937   5.848   4.453
 1865WAT    HW1 5594   4.892   5.789   4.513
 1865WAT    HW2 5595   4.886   5.928   4.455
 1866WAT     OW 5596   3.467   1.612   2.530
 1866WAT    HW1 5597   3.401   1.647   2.470
 1866WAT    HW2 5598   3.547   1.661   2.509
 1867WAT     OW 5599   0.623   3.029   2.994
 1867WAT    HW1 5600   0.576   2.962   3.044
 1867WAT    HW2 5601   0.567   3.048   2.920
 1868WAT     OW 5602   3.481   6.538   5.906
 1868WAT    HW1 5603   3.426   6.535   5.828
 1868WAT    HW2 5604   3.486   6.631   5.928
 1869WAT     OW 5605   5.537   1.947   4.178
 1869WAT    HW1 5606   5.517   2.015   4.243
 1869WAT    HW2 5607   5.633   1.946   4.175
 1870WAT     OW 5608   6.563   6.151   0.615
 1870WAT    HW1 5609   6.495   6.218   0.621
 1870WAT    HW2 5610   6.564   6.125   0.523
 1871WAT     OW 5611   5.243   6.547   4.274
 1871WAT    HW1 5612   5.148   6.536   4.284
 1871WAT    HW2 5613   5.255   6.640   4.256
 1872WAT     OW 5614   3.844   5.254   4.091
 1872WAT    HW1 5615   3.846   5.338   4.045
 1872WAT    HW2 5616   3.753   5.226   4.086
 1873WAT     OW 5617   6.148   5.160   0.651
 1873WAT    HW1 5618   6.219   5.103   0.680
 1873WAT    HW2 5619   6.086   5.102   0.609
 1874WAT     OW 5620   2.537   2.258   6.062
 1874WAT    HW1 5621   2.591   2.240   6.139
 1874WAT    HW2 5622   2.551   2.183   6.004
 1875WAT     OW 5623   0.722   2.302   3.663
 1875WAT    HW1 5624   0.723   2.391   3.700
 1875WAT    HW2 5625   0.700   2.315   3.571
 1876WAT     OW 5626   2.803   3.244   4.798
 1876WAT    HW1 5627   2.846   3.159   4.796
 1876WAT    HW2 5628   2.843   3.293   4.727
 1877WAT     OW 5629   1.734   1.150   5.031
 1877WAT    HW1 5630   1.710   1.058   5.024
 1877WAT    HW2 5631   1.679   1.194   4.965
 1878WAT     OW 5632   2.779   3.354   3.447
 1878WAT    HW1 5633   2.845   3.351   3.516
 1878WAT    HW2 5634   2.790   3.270   3.400
 1879WAT     OW 5635   3.802   1.886   2.699
 1879WAT    HW1 5636   3.826   1.885   2.791
 1879WAT    HW2 5637   3.773   1.976   2.683
 1880WAT     OW 5638   1.385   2.231   5.389
 1880WAT    HW1 5639   1.349   2.286   5.319
 1880WAT    HW2 5640   1.369   2.281   5.469
 1881WAT     OW 5641   4.728   3.765   0.543
 1881WAT    HW1 5642   4.695   3.809   0.464
 1881WAT    HW2 5643   4.706   3.826   0.614
 1882WAT     OW 5644   4.716   0.380   6.163
 1882WAT    HW1 5645   4.754   0.374   6.251
 1882WAT    HW2 5646   4.717   0.474   6.143
 1883WAT     OW 5647   2.422   4.415   3.765
 1883WAT    HW1 5648   2.480   4.367   3.824
 1883WAT    HW2 5649   2.405   4.498   3.810
 1884WAT     OW 5650   4.675   4.648   1.001
 1884WAT    HW1 5651   4.762   4.638   0.962
 1884WAT    HW2 5652   4.628   4.704   0.939
 1885WAT     OW 5653   1.044   5.683   6.151
 1885WAT    HW1 5654   0.974   5.620   6.168
 1885WAT    HW2 5655   1.017   5.762   6.199
 1886WAT     OW 5656   0.199   2.370   3.856
 1886WAT    HW1 5657   0.211   2.457   3.894
 1886WAT    HW2 5658   0.177   2.313   3.929
 1887WAT     OW 5659   5.939   2.753   5.656
 1887WAT    HW1 5660   6.032   2.758   5.633
 1887WAT    HW2 5661   5.927   2.817   5.726
 1888WAT     OW 5662   4.084   2.611   0.634
 1888WAT    HW1 5663   4.054   2.675   0.569
 1888WAT    HW2 5664   4.077   2.657   0.718
 1889WAT     OW 5665   3.080   6.392   2.609
 1889WAT    HW1 5666   2.994   6.359   2.636
 1889WAT    HW2 5667   3.117   6.321   2.557
 1890WAT     OW 5668   1.075   2.026   3.443
 1890WAT    HW1 5669   1.153   1.971   3.430
 1890WAT    HW2 5670   1.025   1.980   3.511
 1891WAT     OW 5671   5.913   1.224   4.665
 1891WAT    HW1 5672   6.000   1.196   4.636
 1891WAT    HW2 5673   5.930   1.277   4.743
 1892WAT     OW 5674   5.237   4.133   1.851
 1892WAT    HW1 5675   5.319   4.181   1.866
 1892WAT    HW2 5676   5.169   4.199   1.860
 1893WAT     OW 5677   6.613   4.538   2.844
 1893WAT    HW1 5678   6.707   4.541   2.827
 1893WAT    HW2 5679   6.607   4.540   2.940
 1894WAT     OW 5680   1.849   4.957   6.195
 1894WAT    HW1 5681   1.843   4.942   6.289
 1894WAT    HW2 5682   1.758   4.967   6.166
 1895WAT     OW 5683   5.344   4.473   6.018
 1895WAT    HW1 5684   5.322   4.419   6.095
 1895WAT    HW2 5685   5.382   4.412   5.956
 1896WAT     OW 5686   1.378   3.768   6.432
 1896WAT    HW1 5687   1.333   3.838   6.384
 1896WAT    HW2 5688   1.471   3.785   6.416
 1897WAT     OW 5689   3.319   1.081   4.544
 1897WAT    HW1 5690   3.250   1.066   4.479
 1897WAT    HW2 5691   3.396   1.103   4.493
 1898WAT     OW 5692   3.546   2.520   5.828
 1898WAT    HW1 5693   3.482   2.589   5.847
 1898WAT    HW2 5694   3.492   2.442   5.814
 1899WAT     OW 5695   3.197   2.374   2.951
 1899WAT    HW1 5696   3.184   2.347   3.042
 1899WAT    HW2 5697   3.200   2.292   2.901
 1900WAT     OW 5698   1.422   0.422   2.869
 1900WAT    HW1 5699   1.499   0.478   2.873
 1900WAT    HW2 5700   1.366   0.452   2.940
 1901WAT     OW 5701   4.265   0.493   6.406
 1901WAT    HW1 5702   4.196   0.541   6.359
 1901WAT    HW2 5703   4.346   0.518   6.361
 1902WAT     OW 5704   4.790   0.456   4.162
 1902WAT    HW1 5705   4.849   0.509   4.215
 1902WAT    HW2 5706   4.703   0.489   4.183
 1903WAT     OW 5707   2.965   5.129   4.720
 1903WAT    HW1 5708   2.972   5.072   4.644
 1903WAT    HW2 5709   3.031   5.198   4.704
 1904WAT     OW 5710   3.791   3.973   6.406
 1904WAT    HW1 5711   3.815   3.957   6.314
 1904WAT    HW2 5712   3.803   4.067   6.418
 1905WAT     OW 5713   6.254   2.301   5.042
 1905WAT    HW1 5714   6.243   2.294   4.947
 1905WAT    HW2 5715   6.214   2.384   5.066
 1906WAT     OW 5716   0.789   1.751   3.814
 1906WAT    HW1 5717   0.712   1.774   3.761
 1906WAT    HW2 5718   0.773   1.791   3.899
 1907WAT     OW 5719   2.752   6.344   1.567
 1907WAT    HW1 5720   2.804   6.263   1.571
 1907WAT    HW2 5721   2.773   6.390   1.648
 1908WAT     OW 5722   1.929   2.903   5.875
 1908WAT    HW1 5723   1.881   2.822   5.889
 1908WAT    HW2 5724   1.911   2.927   5.784
 1909WAT     OW 5725   3.534   1.035   6.278
 1909WAT    HW1 5726   3.546   1.089   6.199
 1909WAT    HW2 5727   3.455   1.070   6.319
 1910WAT     OW 5728   6.488   0.098   4.799
 1910WAT    HW1 5729   6.415   0.093   4.736
 1910WAT    HW2 5730   6.501   0.191   4.812
 1911WAT     OW 5731   6.354   2.873   0.280
 1911WAT    HW1 5732   6.300   2.836   0.210
 1911WAT    HW2 5733   6.293   2.926   0.332
 1912WAT     OW 5734   2.271   6.091   0.406
 1912WAT    HW1 5735   2.265   6.118   0.315
 1912WAT    HW2 5736   2.267   6.173   0.456
 1913WAT     OW 5737   2.124   4.585   5.383
 1913WAT    HW1 5738   2.110   4.667   5.335
 1913WAT    HW2 5739   2.205   4.549   5.348
 1914WAT     OW 5740   5.846   0.275   1.237
 1914WAT    HW1 5741   5.780   0.333   1.276
 1914WAT    HW2 5742   5.870   0.215   1.307
 1915WAT     OW 5743   3.379   1.511   0.883
 1915WAT    HW1 5744   3.419   1.461   0.954
 1915WAT    HW2 5745   3.402   1.602   0.902
 1916WAT     OW 5746   0.958   4.758   2.311
 1916WAT    HW1 5747   0.892   4.702   2.271
 1916WAT    HW2 5748   1.041   4.718   2.287
 1917WAT     OW 5749   6.132   4.713   2.160
 1917WAT    HW1 5750   6.065   4.645   2.162
 1917WAT    HW2 5751   6.084   4.795   2.166
 1918WAT     OW 5752   1.910   6.135   2.628
 1918WAT    HW1 5753   1.942   6.053   2.665
 1918WAT    HW2 5754   1.983   6.196   2.636
 1919WAT     OW 5755   3.978   0.251   0.566
 1919WAT    HW1 5756   4.020   0.316   0.623
 1919WAT    HW2 5757   4.046   0.229   0.502
 1920WAT     OW 5758   1.571   2.380   0.614
 1920WAT    HW1 5759   1.543   2.362   0.525
 1920WAT    HW2 5760   1.497   2.427   0.654
 1921WAT     OW 5761   6.109   1.890   4.375
 1921WAT    HW1 5762   6.197   1.859   4.355
 1921WAT    HW2 5763   6.114   1.985   4.364
 1922WAT     OW 5764   3.333   5.353   2.246
 1922WAT    HW1 5765   3.350   5.264   2.215
 1922WAT    HW2 5766   3.362   5.410   2.175
 1923WAT     OW 5767   4.771   2.780   4.158
 1923WAT    HW1 5768   4.803   2.853   4.104
 1923WAT    HW2 5769   4.676   2.780   4.143
 1924WAT     OW 5770   5.421   0.117   3.620
 1924WAT    HW1 5771   5.350   0.180   3.608
 1924WAT    HW2 5772   5.404   0.048   3.556
 1925WAT     OW 5773   1.799   3.922   0.534
 1925WAT    HW1 5774   1.730   3.895   0.595
 1925WAT    HW2 5775   1.751   3.953   0.457
 1926WAT     OW 5776   0.181   4.936   4.306
 1926WAT    HW1 5777   0.155   4.875   4.376
 1926WAT    HW2 5778   0.104   4.991   4.292
 1927WAT     OW 5779   4.931   2.815   3.327
 1927WAT    HW1 5780   4.985   2.880   3.372
 1927WAT    HW2 5781   4.856   2.864   3.293
 1928WAT     OW 5782   4.395   2.284   5.983
 1928WAT    HW1 5783   4.330   2.334   5.933
 1928WAT    HW2 5784   4.462   2.349   6.006
 1929WAT     OW 5785   1.029   5.742   5.116
 1929WAT    HW1 5786   1.066   5.674   5.172
 1929WAT    HW2 5787   1.009   5.814   5.176
 1930WAT     OW 5788   4.336   5.806   1.720
 1930WAT    HW1 5789   4.305   5.762   1.641
 1930WAT    HW2 5790   4.396   5.874   1.688
 1931WAT     OW 5791   4.074   5.161   6.240
 1931WAT    HW1 5792   4.012   5.170   6.312
 1931WAT    HW2 5793   4.076   5.247   6.198
 1932WAT     OW 5794   5.381   4.004   5.813
 1932WAT    HW1 5795   5.381   4.098   5.831
 1932WAT    HW2 5796   5.473   3.978   5.818
 1933WAT     OW 5797   2.895   2.034   1.728
 1933WAT    HW1 5798   2.971   1.980   1.705
 1933WAT    HW2 5799   2.848   1.982   1.792
 1934WAT     OW 5800   5.155   6.065   0.158
 1934WAT    HW1 5801   5.126   6.121   0.086
 1934WAT    HW2 5802   5.234   6.107   0.191
 1935WAT     OW 5803   3.896   2.684   6.093
 1935WAT    HW1 5804   3.895   2.744   6.168
 1935WAT    HW2 5805   3.961   2.617   6.117
 1936WAT     OW 5806   2.515   4.548   2.124
 1936WAT    HW1 5807   2.472   4.570   2.207
 1936WAT    HW2 5808   2.548   4.632   2.091
 1937WAT     OW 5809   3.875   4.528   1.638
 1937WAT    HW1 5810   3.871   4.620   1.663
 1937WAT    HW2 5811   3.786   4.507   1.610
 1938WAT     OW 5812   0.386   4.622   6.472
 1938WAT    HW1 5813   0.354   4.683   6.539
 1938WAT    HW2 5814   0.307   4.591   6.429
 1939WAT     OW 5815   4.569   6.705   2.797
 1939WAT    HW1 5816   4.613   6.667   2.721
 1939WAT    HW2 5817   4.598   6.653   2.871
 1940WAT     OW 5818   3.066   6.158   3.979
 1940WAT    HW1 5819   3.045   6.164   4.073
 1940WAT    HW2 5820   3.080   6.065   3.964
 1941WAT     OW 5821   4.423   0.841   4.506
 1941WAT    HW1 5822   4.397   0.893   4.581
 1941WAT    HW2 5823   4.360   0.768   4.504
 1942WAT     OW 5824   4.413   3.854   6.686
 1942WAT    HW1 5825   4.415   3.936   6.637
 1942WAT    HW2 5826   4.343   3.865   6.749
 1943WAT     OW 5827   6.516   1.072   3.072
 1943WAT    HW1 5828   6.496   1.042   3.161
 1943WAT    HW2 5829   6.559   1.157   3.085
 1944WAT     OW 5830   4.456   1.281   2.156
 1944WAT    HW1 5831   4.507   1.264   2.235
 1944WAT    HW2 5832   4.488   1.366   2.125
 1945WAT     OW 5833   5.188   1.295   5.507
 1945WAT    HW1 5834   5.178   1.355   5.434
 1945WAT    HW2 5835   5.268   1.324   5.551
 1946WAT     OW 5836   2.275   4.993   1.356
 1946WAT    HW1 5837   2.209   4.980   1.288
 1946WAT    HW2 5838   2.241   4.945   1.432
 1947WAT     OW 5839   6.283   3.695   0.193
 1947WAT    HW1 5840   6.210   3.661   0.141
 1947WAT    HW2 5841   6.251   3.779   0.226
 1948WAT     OW 5842   2.117   5.328   0.608
 1948WAT    HW1 5843   2.082   5.263   0.668
 1948WAT    HW2 5844   2.200   5.292   0.579
 1949WAT     OW 5845   2.662   6.584   6.292
 1949WAT    HW1 5846   2.584   6.567   6.344
 1949WAT    HW2 5847   2.732   6.596   6.357
 1950WAT     OW 5848   3.220   1.857   2.818
 1950WAT    HW1 5849   3.276   1.848   2.895
 1950WAT    HW2 5850   3.170   1.775   2.815
 1951WAT     OW 5851   1.334   5.734   1.188
 1951WAT    HW1 5852   1.299   5.664   1.243
 1951WAT    HW2 5853   1.357   5.691   1.106
 1952WAT     OW 5854   4.349   3.639   3.376
 1952WAT    HW1 5855   4.323   3.633   3.468
 1952WAT    HW2 5856   4.266   3.631   3.327
 1953WAT     OW 5857   0.420   2.953   5.871
 1953WAT    HW1 5858   0.377   3.012   5.933
 1953WAT    HW2 5859   0.400   2.865   5.905
 1954WAT     OW 5860   1.012   5.612   2.037
 1954WAT    HW1 5861   0.925   5.649   2.053
 1954WAT    HW2 5862   1.013   5.531   2.088
 1955WAT     OW 5863   1.835   5.261   5.012
 1955WAT    HW1 5864   1.896   5.278   5.084
 1955WAT    HW2 5865   1.844   5.167   4.996
 1956WAT     OW 5866   5.696   0.652   5.087
 1956WAT    HW1 5867   5.691   0.735   5.039
 1956WAT    HW2 5868   5.609   0.641   5.127
 1957WAT     OW 5869   2.003   5.785   6.299
 1957WAT    HW1 5870   2.029   5.752   6.213
 1957WAT    HW2 5871   1.934   5.725   6.327
 1958WAT     OW 5872   0.949   3.154   1.765
 1958WAT    HW1 5873   0.919   3.063   1.764
 1958WAT    HW2 5874   0.868   3.205   1.774
 1959WAT     OW 5875   1.928   4.475   4.113
 1959WAT    HW1 5876   2.023   4.467   4.115
 1959WAT    HW2 5877   1.898   4.405   4.055
 1960WAT     OW 5878   4.065   5.031   4.913
 1960WAT    HW1 5879   4.148   5.078   4.902
 1960WAT    HW2 5880   4.062   4.969   4.840
 1961WAT     OW 5881   4.820   6.643   0.362
 1961WAT    HW1 5882   4.862   6.608   0.441
 1961WAT    HW2 5883   4.893   6.682   0.313
 1962WAT     OW 5884   1.497   6.722   2.555
 1962WAT    HW1 5885   1.508   6.653   2.620
 1962WAT    HW2 5886   1.546   6.796   2.590
 1963WAT     OW 5887   4.873   2.978   3.995
 1963WAT    HW1 5888   4.913   3.064   4.012
 1963WAT    HW2 5889   4.822   2.991   3.915
 1964WAT     OW 5890   5.104   5.681   1.841
 1964WAT    HW1 5891   5.034   5.655   1.781
 1964WAT    HW2 5892   5.060   5.690   1.926
 1965WAT     OW 5893   0.332   2.485   0.304
 1965WAT    HW1 5894   0.327   2.392   0.324
 1965WAT    HW2 5895   0.306   2.491   0.212
 1966WAT     OW 5896   4.100   0.968   4.846
 1966WAT    HW1 5897   4.065   1.018   4.920
 1966WAT    HW2 5898   4.029   0.965   4.783
 1967WAT     OW 5899   2.493   2.208   3.269
 1967WAT    HW1 5900   2.398   2.213   3.264
 1967WAT    HW2 5901   2.524   2.266   3.199
 1968WAT     OW 5902   5.191   2.710   5.630
 1968WAT    HW1 5903   5.262   2.649   5.652
 1968WAT    HW2 5904   5.188   2.771   5.703
 1969WAT     OW 5905   4.577   0.701   2.905
 1969WAT    HW1 5906   4.597   0.641   2.833
 1969WAT    HW2 5907   4.563   0.785   2.862
 1970WAT     OW 5908   5.580   2.382   1.189
 1970WAT    HW1 5909   5.595   2.290   1.213
 1970WAT    HW2 5910   5.631   2.396   1.110
 1971WAT     OW 5911   4.552   2.872   1.667
 1971WAT    HW1 5912   4.469   2.835   1.697
 1971WAT    HW2 5913   4.591   2.803   1.612
 1972WAT     OW 5914   2.930   4.978   0.834
 1972WAT    HW1 5915   2.871   4.924   0.886
 1972WAT    HW2 5916   2.988   5.018   0.898
 1973WAT     OW 5917   4.510   1.487   1.805
 1973WAT    HW1 5918   4.546   1.399   1.792
 1973WAT    HW2 5919   4.548   1.539   1.734
 1974WAT     OW 5920   3.722   3.456   3.936
 1974WAT    HW1 5921   3.643   3.427   3.892
 1974WAT    HW2 5922   3.721   3.410   4.020
 1975WAT     OW 5923   0.529   2.039   4.968
 1975WAT    HW1 5924   0.503   2.119   5.012
 1975WAT    HW2 5925   0.531   2.062   4.875
 1976WAT     OW 5926   5.452   6.459   6.110
 1976WAT    HW1 5927   5.370   6.421   6.142
 1976WAT    HW2 5928   5.465   6.537   6.164
 1977WAT     OW 5929   3.235   1.837   5.195
 1977WAT    HW1 5930   3.300   1.811   5.259
 1977WAT    HW2 5931   3.285   1.855   5.115
 1978WAT     OW 5932   4.010   0.321   6.227
 1978WAT    HW1 5933   4.008   0.247   6.287
 1978WAT    HW2 5934   3.963   0.391   6.272
 1979WAT     OW 5935   4.102   4.035   0.791
 1979WAT    HW1 5936   4.163   3.972   0.830
 1979WAT    HW2 5937   4.145   4.120   0.800
 1980WAT     OW 5938   2.261   2.906   5.460
 1980WAT    HW1 5939   2.251   2.931   5.552
 1980WAT    HW2 5940   2.171   2.892   5.429
 1981WAT     OW 5941   3.494   3.113   0.429
 1981WAT    HW1 5942   3.584   3.089   0.406
 1981WAT    HW2 5943   3.456   3.145   0.347
 1982WAT     OW 5944   1.942   3.135   0.592
 1982WAT    HW1 5945   1.991   3.147   0.510
 1982WAT    HW2 5946   1.994   3.073   0.642
 1983WAT     OW 5947   3.182   6.497   4.229
 1983WAT    HW1 5948   3.261   6.476   4.279
 1983WAT    HW2 5949   3.202   6.468   4.140
 1984WAT     OW 5950   2.988   3.244   4.183
 1984WAT    HW1 5951   2.911   3.209   4.140
 1984WAT    HW2 5952   3.056   3.242   4.116
 1985WAT     OW 5953   3.937   4.100   4.969
 1985WAT    HW1 5954   3.906   4.154   5.042
 1985WAT    HW2 5955   3.988   4.030   5.010
 1986WAT     OW 5956   1.167   4.776   1.677
 1986WAT    HW1 5957   1.171   4.682   1.691
 1986WAT    HW2 5958   1.241   4.795   1.620
 1987WAT     OW 5959   0.251   4.000   1.990
 1987WAT    HW1 5960   0.236   3.993   1.896
 1987WAT    HW2 5961   0.169   4.036   2.025
 1988WAT     OW 5962   0.200   4.890   3.716
 1988WAT    HW1 5963   0.269   4.827   3.736
 1988WAT    HW2 5964   0.236   4.943   3.645
 1989WAT     OW 5965   6.463   2.236   0.298
 1989WAT    HW1 5966   6.533   2.176   0.272
 1989WAT    HW2 5967   6.507   2.301   0.353
 1990WAT     OW 5968   4.479   4.156   0.634
 1990WAT    HW1 5969   4.465   4.195   0.720
 1990WAT    HW2 5970   4.394   4.163   0.591
 1991WAT     OW 5971   0.941   5.429   0.290
 1991WAT    HW1 5972   0.968   5.497   0.228
 1991WAT    HW2 5973   0.979   5.348   0.256
 1992WAT     OW 5974   3.000   1.341   3.923
 1992WAT    HW1 5975   2.926   1.398   3.904
 1992WAT    HW2 5976   3.035   1.373   4.006
 1993WAT     OW 5977   0.545   3.485   2.593
 1993WAT    HW1 5978   0.566   3.513   2.682
 1993WAT    HW2 5979   0.487   3.410   2.605
 1994WAT     OW 5980   2.534   2.458   5.467
 1994WAT    HW1 5981   2.528   2.396   5.394
 1994WAT    HW2 5982   2.445   2.491   5.478
 1995WAT     OW 5983   2.814   0.432   2.757
 1995WAT    HW1 5984   2.883   0.468   2.702
 1995WAT    HW2 5985   2.784   0.354   2.709
 1996WAT     OW 5986   4.879   5.219   2.455
 1996WAT    HW1 5987   4.833   5.202   2.373
 1996WAT    HW2 5988   4.841   5.158   2.518
 1997WAT     OW 5989   2.800   5.277   3.326
 1997WAT    HW1 5990   2.853   5.323   3.391
 1997WAT    HW2 5991   2.774   5.196   3.369
 1998WAT     OW 5992   2.615   5.165   4.406
 1998WAT    HW1 5993   2.698   5.209   4.389
 1998WAT    HW2 5994   2.548   5.229   4.382
 1999WAT     OW 5995   4.944   6.186   3.148
 1999WAT    HW1 5996   4.967   6.164   3.058
 1999WAT    HW2 5997   4.849   6.174   3.152
 2000WAT     OW 5998   2.924   0.837   4.308
 2000WAT    HW1 5999   2.978   0.800   4.238
 2000WAT    HW2 6000   2.947   0.785   4.385
 2001WAT     OW 6001   0.975   5.483   0.561
 2001WAT    HW1 6002   0.967   5.453   0.470
 2001WAT    HW2 6003   1.017   5.568   0.554
 2002WAT     OW 6004   1.323   5.879   2.023
 2002WAT    HW1 6005   1.256   5.946   2.036
 2002WAT    HW2 6006   1.288   5.824   1.954
 2003WAT     OW 6007   3.693   2.834   3.703
 2003WAT    HW1 6008   3.632   2.786   3.759
 2003WAT    HW2 6009   3.637   2.883   3.643
 2004WAT     OW 6010   2.449   0.751   5.266
 2004WAT    HW1 6011   2.411   0.681   5.213
 2004WAT    HW2 6012   2.399   0.829   5.243
 2005WAT     OW 6013   0.487   0.976   5.595
 2005WAT    HW1 6014   0.456   1.065   5.580
 2005WAT    HW2 6015   0.417   0.920   5.560
 2006WAT     OW 6016   6.549   6.624   0.406
 2006WAT    HW1 6017   6.586   6.646   0.320
 2006WAT    HW2 6018   6.508   6.538   0.393
 2007WAT     OW 6019   2.506   5.950   0.456
 2007WAT    HW1 6020   2.425   5.999   0.442
 2007WAT    HW2 6021   2.495   5.871   0.402
 2008WAT     OW 6022   2.969   5.437   6.426
 2008WAT    HW1 6023   2.925   5.424   6.342
 2008WAT    HW2 6024   3.060   5.454   6.403
 2009WAT     OW 6025   0.938   0.882   0.362
 2009WAT    HW1 6026   0.851   0.887   0.322
 2009WAT    HW2 6027   0.954   0.788   0.372
 2010WAT     OW 6028   3.960   4.174   6.098
 2010WAT    HW1 6029   3.948   4.082   6.120
 2010WAT    HW2 6030   4.042   4.176   6.048
 2011WAT     OW 6031   1.770   2.949   4.815
 2011WAT    HW1 6032   1.710   2.984   4.749
 2011WAT    HW2 6033   1.713   2.903   4.876
 2012WAT     OW 6034   2.675   5.955   4.771
 2012WAT    HW1 6035   2.584   5.969   4.795
 2012WAT    HW2 6036   2.674   5.941   4.677
 2013WAT     OW 6037   5.504   5.869   3.999
 2013WAT    HW1 6038   5.497   5.783   3.958
 2013WAT    HW2 6039   5.481   5.854   4.090
 2014WAT     OW 6040   0.014   4.562   3.329
 2014WAT    HW1 6041   0.083   4.611   3.284
 2014WAT    HW2 6042  -0.049   4.541   3.261
 2015WAT     OW 6043   0.852   3.511   5.746
 2015WAT    HW1 6044   0.766   3.538   5.713
 2015WAT    HW2 6045   0.863   3.422   5.713
 2016WAT     OW 6046   3.626   4.507   0.929
 2016WAT    HW1 6047   3.666   4.444   0.870
 2016WAT    HW2 6048   3.548   4.537   0.883
 2017WAT     OW 6049   2.929   2.399   2.189
 2017WAT    HW1 6050   3.009   2.347   2.180
 2017WAT    HW2 6051   2.873   2.370   2.118
 2018WAT     OW 6052   0.556   2.577   0.430
 2018WAT    HW1 6053   0.515   2.640   0.490
 2018WAT    HW2 6054   0.484   2.549   0.373
 2019WAT     OW 6055   3.838   3.290   0.992
 2019WAT    HW1 6056   3.873   3.334   0.914
 2019WAT    HW2 6057   3.901   3.221   1.010
 2020WAT     OW 6058   5.089   5.151   0.596
 2020WAT    HW1 6059   5.150   5.202   0.650
 2020WAT    HW2 6060   5.142   5.126   0.520
 2021WAT     OW 6061   4.335   0.404   0.513
 2021WAT    HW1 6062   4.402   0.429   0.449
 2021WAT    HW2 6063   4.287   0.484   0.531
 2022WAT     OW 6064   6.373   5.906   3.141
 2022WAT    HW1 6065   6.385   5.813   3.124
 2022WAT    HW2 6066   6.377   5.914   3.237
 2023WAT     OW 6067   1.470   3.864   2.805
 2023WAT    HW1 6068   1.545   3.838   2.752
 2023WAT    HW2 6069   1.483   3.958   2.820
 2024WAT     OW 6070   6.530   4.724   2.663
 2024WAT    HW1 6071   6.608   4.727   2.608
 2024WAT    HW2 6072   6.547   4.654   2.726
 2025WAT     OW 6073   2.546   0.228   2.927
 2025WAT    HW1 6074   2.495   0.149   2.913
 2025WAT    HW2 6075   2.519   0.287   2.856
 2026WAT     OW 6076   1.906   6.074   5.265
 2026WAT    HW1 6077   1.868   6.108   5.184
 2026WAT    HW2 6078   1.843   6.098   5.333
 2027WAT     OW 6079   4.771   4.245   0.142
 2027WAT    HW1 6080   4.821   4.326   0.135
 2027WAT    HW2 6081   4.685   4.273   0.175
 2028WAT     OW 6082   5.804   1.966   3.852
 2028WAT    HW1 6083   5.840   1.948   3.766
 2028WAT    HW2 6084   5.875   1.943   3.913
 2029WAT     OW 6085   4.394   5.336   5.582
 2029WAT    HW1 6086   4.361   5.367   5.667
 2029WAT    HW2 6087   4.389   5.241   5.588
 2030WAT     OW 6088   1.395   2.317   3.110
 2030WAT    HW1 6089   1.358   2.355   3.190
 2030WAT    HW2 6090   1.489   2.333   3.118
 2031WAT     OW 6091   0.558   3.561   5.081
 2031WAT    HW1 6092   0.579   3.478   5.123
 2031WAT    HW2 6093   0.589   3.551   4.991
 2032WAT     OW 6094   5.471   3.461   3.232
 2032WAT    HW1 6095   5.414   3.477   3.307
 2032WAT    HW2 6096   5.532   3.394   3.261
 2033WAT     OW 6097   2.582   3.900   2.193
 2033WAT    HW1 6098   2.597   3.837   2.123
 2033WAT    HW2 6099   2.667   3.908   2.236
 2034WAT     OW 6100   4.627   3.367   5.720
 2034WAT    HW1 6101   4.689   3.399   5.654
 2034WAT    HW2 6102   4.568   3.441   5.734
 2035WAT     OW 6103   1.385   5.057   6.610
 2035WAT    HW1 6104   1.332   5.137   6.615
 2035WAT    HW2 6105   1.470   5.083   6.645
 2036WAT     OW 6106   4.221   6.714   2.236
 2036WAT    HW1 6107   4.249   6.639   2.185
 2036WAT    HW2 6108   4.264   6.704   2.321
 2037WAT     OW 6109   3.856   3.257   1.822
 2037WAT    HW1 6110   3.943   3.246   1.784
 2037WAT    HW2 6111   3.870   3.250   1.917
 2038WAT     OW 6112   5.752   3.286   0.283
 2038WAT    HW1 6113   5.830   3.342   0.282
 2038WAT    HW2 6114   5.758   3.238   0.366
 2039WAT     OW 6115   0.541   5.355   0.072
 2039WAT    HW1 6116   0.591   5.293   0.125
 2039WAT    HW2 6117   0.570   5.441   0.102
 2040WAT     OW 6118   5.163   2.540   4.959
 2040WAT    HW1 6119   5.106   2.471   4.991
 2040WAT    HW2 6120   5.237   2.494   4.920
 2041WAT     OW 6121   1.679   4.963   5.174
 2041WAT    HW1 6122   1.714   4.883   5.212
 2041WAT    HW2 6123   1.728   4.975   5.093
 2042WAT     OW 6124   2.424   2.036   5.281
 2042WAT    HW1 6125   2.343   2.019   5.327
 2042WAT    HW2 6126   2.402   2.027   5.188
 2043WAT     OW 6127   3.770   4.663   1.269
 2043WAT    HW1 6128   3.826   4.711   1.330
 2043WAT    HW2 6129   3.684   4.705   1.277
 2044WAT     OW 6130   5.594   2.093   2.462
 2044WAT    HW1 6131   5.522   2.152   2.438
 2044WAT    HW2 6132   5.552   2.007   2.469
 2045WAT     OW 6133   1.793   1.353   4.266
 2045WAT    HW1 6134   1.789   1.407   4.345
 2045WAT    HW2 6135   1.869   1.297   4.280
 2046WAT     OW 6136   5.363   1.990   0.521
 2046WAT    HW1 6137   5.366   1.900   0.489
 2046WAT    HW2 6138   5.400   2.042   0.450
 2047WAT     OW 6139   2.307   1.628   6.724
 2047WAT    HW1 6140   2.335   1.541   6.753
 2047WAT    HW2 6141   2.387   1.667   6.687
 2048WAT     OW 6142   4.096   1.637   5.910
 2048WAT    HW1 6143   4.040   1.706   5.874
 2048WAT    HW2 6144   4.184   1.659   5.878
 2049WAT     OW 6145   4.318   1.580   3.191
 2049WAT    HW1 6146   4.414   1.573   3.195
 2049WAT    HW2 6147   4.301   1.674   3.189
 2050WAT     OW 6148   0.278   5.289   6.482
 2050WAT    HW1 6149   0.195   5.328   6.508
 2050WAT    HW2 6150   0.296   5.327   6.396
 2051WAT     OW 6151   3.564   2.042   4.744
 2051WAT    HW1 6152   3.485   2.043   4.689
 2051WAT    HW2 6153   3.629   2.089   4.692
 2052WAT     OW 6154   4.542   4.844   0.195
 2052WAT    HW1 6155   4.636   4.848   0.179
 2052WAT    HW2 6156   4.530   4.766   0.251
 2053WAT     OW 6157   5.499   1.839   2.489
 2053WAT    HW1 6158   5.523   1.758   2.534
 2053WAT    HW2 6159   5.464   1.809   2.405
 2054WAT     OW 6160   3.824   0.457   0.239
 2054WAT    HW1 6161   3.738   0.465   0.196
 2054WAT    HW2 6162   3.804   0.419   0.325
 2055WAT     OW 6163   3.207   4.018   0.729
 2055WAT    HW1 6164   3.163   4.102   0.712
 2055WAT    HW2 6165   3.177   3.993   0.817
 2056WAT     OW 6166   2.561   6.541   1.907
 2056WAT    HW1 6167   2.492   6.601   1.937
 2056WAT    HW2 6168   2.515   6.474   1.857
 2057WAT     OW 6169   6.618   6.564   3.570
 2057WAT    HW1 6170   6.523   6.573   3.574
 2057WAT    HW2 6171   6.650   6.654   3.561
 2058WAT     OW 6172   3.520   3.992   4.136
 2058WAT    HW1 6173   3.566   3.945   4.206
 2058WAT    HW2 6174   3.586   4.047   4.096
 2059WAT     OW 6175   5.854   0.960   6.047
 2059WAT    HW1 6176   5.933   0.911   6.023
 2059WAT    HW2 6177   5.790   0.936   5.980
 2060WAT     OW 6178   4.148   0.949   3.254
 2060WAT    HW1 6179   4.145   0.969   3.160
 2060WAT    HW2 6180   4.088   0.875   3.264
 2061WAT     OW 6181   4.034   2.651   2.994
 2061WAT    HW1 6182   4.118   2.608   2.976
 2061WAT    HW2 6183   4.028   2.719   2.927
 2062WAT     OW 6184   3.071   3.497   5.531
 2062WAT    HW1 6185   3.148   3.503   5.474
 2062WAT    HW2 6186   3.010   3.440   5.485
 2063WAT     OW 6187   1.131   3.978   2.428
 2063WAT    HW1 6188   1.120   4.029   2.348
 2063WAT    HW2 6189   1.052   3.924   2.432
 2064WAT     OW 6190   6.623   6.220   3.548
 2064WAT    HW1 6191   6.696   6.272   3.514
 2064WAT    HW2 6192   6.547   6.251   3.498
 2065WAT     OW 6193   5.289   1.902   1.227
 2065WAT    HW1 6194   5.206   1.869   1.261
 2065WAT    HW2 6195   5.351   1.831   1.241
 2066WAT     OW 6196   6.324   2.143   2.039
 2066WAT    HW1 6197   6.250   2.166   2.096
 2066WAT    HW2 6198   6.333   2.049   2.048
 2067WAT     OW 6199   1.443   3.333   3.968
 2067WAT    HW1 6200   1.465   3.397   4.035
 2067WAT    HW2 6201   1.474   3.250   4.002
 2068WAT     OW 6202   4.924   3.284   1.664
 2068WAT    HW1 6203   4.919   3.194   1.632
 2068WAT    HW2 6204   4.984   3.280   1.738
 2069WAT     OW 6205   1.512   4.881   0.950
 2069WAT    HW1 6206   1.515   4.975   0.934
 2069WAT    HW2 6207   1.422   4.864   0.977
 2070WAT     OW 6208   4.241   6.536   0.936
 2070WAT    HW1 6209   4.259   6.575   1.022
 2070WAT    HW2 6210   4.199   6.452   0.956
 2071WAT     OW 6211   2.584   3.583   1.650
 2071WAT    HW1 6212   2.552   3.623   1.569
 2071WAT    HW2 6213   2.662   3.634   1.672
 2072WAT     OW 6214   3.008   5.446   0.780
 2072WAT    HW1 6215   2.973   5.369   0.735
 2072WAT    HW2 6216   3.091   5.464   0.737
 2073WAT     OW 6217   1.775   3.399   2.490
 2073WAT    HW1 6218   1.716   3.325   2.473
 2073WAT    HW2 6219   1.794   3.435   2.403
 2074WAT     OW 6220   6.646   3.613   6.546
 2074WAT    HW1 6221   6.577   3.651   6.493
 2074WAT    HW2 6222   6.617   3.626   6.637
 2075WAT     OW 6223   4.011   3.446   4.795
 2075WAT    HW1 6224   4.003   3.376   4.859
 2075WAT    HW2 6225   4.058   3.516   4.841
 2076WAT     OW 6226   4.254   0.625   4.501
 2076WAT    HW1 6227   4.275   0.564   4.430
 2076WAT    HW2 6228   4.263   0.572   4.581
 2077WAT     OW 6229   1.389   0.209   6.110
 2077WAT    HW1 6230   1.408   0.136   6.051
 2077WAT    HW2 6231   1.475   0.235   6.144
 2078WAT     OW 6232   5.757   1.102   0.457
 2078WAT    HW1 6233   5.799   1.104   0.372
 2078WAT    HW2 6234   5.813   1.156   0.513
 2079WAT     OW 6235   4.013   4.025   0.246
 2079WAT    HW1 6236   4.006   4.023   0.341
 2079WAT    HW2 6237   3.923   4.015   0.214
 2080WAT     OW 6238   2.350   2.496   0.583
 2080WAT    HW1 6239   2.255   2.480   0.583
 2080WAT    HW2 6240   2.384   2.441   0.513
 2081WAT     OW 6241   4.264   2.651   0.306
 2081WAT    HW1 6242   4.348   2.630   0.347
 2081WAT    HW2 6243   4.283   2.653   0.212
 2082WAT     OW 6244   1.422   2.572   0.993
 2082WAT    HW1 6245   1.475   2.554   1.071
 2082WAT    HW2 6246   1.335   2.537   1.014
 2083WAT     OW 6247   5.994   5.424   5.124
 2083WAT    HW1 6248   5.903   5.450   5.140
 2083WAT    HW2 6249   6.043   5.465   5.195
 2084WAT     OW 6250   1.831   2.881   3.629
 2084WAT    HW1 6251   1.881   2.931   3.693
 2084WAT    HW2 6252   1.740   2.903   3.646
 2085WAT     OW 6253   0.279   5.891   5.847
 2085WAT    HW1 6254   0.284   5.907   5.941
 2085WAT    HW2 6255   0.264   5.797   5.838
 2086WAT     OW 6256   1.096   2.446   0.217
 2086WAT    HW1 6257   1.069   2.506   0.286
 2086WAT    HW2 6258   1.040   2.467   0.143
 2087WAT     OW 6259   1.943   4.443   1.372
 2087WAT    HW1 6260   1.949   4.537   1.386
 2087WAT    HW2 6261   1.854   4.429   1.337
 2088WAT     OW 6262   5.793   2.727   0.391
 2088WAT    HW1 6263   5.805   2.652   0.333
 2088WAT    HW2 6264   5.720   2.702   0.448
 2089WAT     OW 6265   1.104   0.517   2.728
 2089WAT    HW1 6266   1.185   0.557   2.698
 2089WAT    HW2 6267   1.084   0.451   2.661
 2090WAT     OW 6268   4.362   5.911   4.009
 2090WAT    HW1 6269   4.450   5.875   4.007
 2090WAT    HW2 6270   4.368   5.992   3.957
 2091WAT     OW 6271   4.409   3.269   1.170
 2091WAT    HW1 6272   4.447   3.212   1.103
 2091WAT    HW2 6273   4.326   3.228   1.193
 2092WAT     OW 6274   3.023   0.104   6.652
 2092WAT    HW1 6275   3.066   0.183   6.685
 2092WAT    HW2 6276   3.094   0.040   6.643
 2093WAT     OW 6277   0.852   6.333   0.936
 2093WAT    HW1 6278   0.763   6.352   0.907
 2093WAT    HW2 6279   0.908   6.377   0.873
 2094WAT     OW 6280   6.118   1.888   1.446
 2094WAT    HW1 6281   6.189   1.951   1.432
 2094WAT    HW2 6282   6.152   1.806   1.411
 2095WAT     OW 6283   3.948   1.008   0.816
 2095WAT    HW1 6284   3.871   1.013   0.874
 2095WAT    HW2 6285   3.953   0.916   0.791
 2096WAT     OW 6286   4.217   5.372   5.060
 2096WAT    HW1 6287   4.238   5.295   5.007
 2096WAT    HW2 6288   4.169   5.429   5.001
 2097WAT     OW 6289   3.659   4.585   5.641
 2097WAT    HW1 6290   3.737   4.539   5.610
 2097WAT    HW2 6291   3.643   4.653   5.575
 2098WAT     OW 6292   5.009   3.179   6.164
 2098WAT    HW1 6293   4.926   3.227   6.170
 2098WAT    HW2 6294   5.027   3.174   6.070
 2099WAT     OW 6295   6.705   6.370   5.322
 2099WAT    HW1 6296   6.634   6.424   5.357
 2099WAT    HW2 6297   6.775   6.379   5.386
 2100WAT     OW 6298   1.874   0.042   5.914
 2100WAT    HW1 6299   1.928   0.117   5.938
 2100WAT    HW2 6300   1.817   0.029   5.989
 2101WAT     OW 6301   1.907   3.562   4.174
 2101WAT    HW1 6302   1.925   3.635   4.233
 2101WAT    HW2 6303   1.850   3.504   4.224
 2102WAT     OW 6304   2.542   0.233   0.871
 2102WAT    HW1 6305   2.485   0.160   0.899
 2102WAT    HW2 6306   2.628   0.211   0.907
 2103WAT     OW 6307   2.214   5.589   1.618
 2103WAT    HW1 6308   2.177   5.556   1.700
 2103WAT    HW2 6309   2.155   5.659   1.591
 2104WAT     OW 6310   5.380   1.506   6.570
 2104WAT    HW1 6311   5.305   1.474   6.619
 2104WAT    HW2 6312   5.452   1.508   6.633
 2105WAT     OW 6313   3.568   4.509   6.579
 2105WAT    HW1 6314   3.568   4.589   6.631
 2105WAT    HW2 6315   3.624   4.449   6.629
 2106WAT     OW 6316   3.346   2.194   1.733
 2106WAT    HW1 6317   3.370   2.265   1.792
 2106WAT    HW2 6318   3.323   2.122   1.790
 2107WAT     OW 6319   2.293   4.735   3.127
 2107WAT    HW1 6320   2.234   4.683   3.072
 2107WAT    HW2 6321   2.364   4.761   3.068
 2108WAT     OW 6322   6.281   0.663   4.758
 2108WAT    HW1 6323   6.188   0.680   4.772
 2108WAT    HW2 6324   6.283   0.591   4.695
 2109WAT     OW 6325   3.273   5.706   4.001
 2109WAT    HW1 6326   3.337   5.644   3.965
 2109WAT    HW2 6327   3.231   5.658   4.073
 2110WAT     OW 6328   5.268   3.598   3.764
 2110WAT    HW1 6329   5.227   3.652   3.696
 2110WAT    HW2 6330   5.338   3.551   3.720
 2111WAT     OW 6331   4.537   0.546   4.197
 2111WAT    HW1 6332   4.470   0.513   4.257
 2111WAT    HW2 6333   4.493   0.553   4.112
 2112WAT     OW 6334   1.976   6.282   2.942
 2112WAT    HW1 6335   1.915   6.209   2.938
 2112WAT    HW2 6336   2.001   6.289   3.034
 2113WAT     OW 6337   0.884   0.907   1.657
 2113WAT    HW1 6338   0.891   0.857   1.575
 2113WAT    HW2 6339   0.969   0.949   1.667
 2114WAT     OW 6340   5.573   2.179   5.159
 2114WAT    HW1 6341   5.668   2.183   5.174
 2114WAT    HW2 6342   5.542   2.115   5.223
 2115WAT     OW 6343   1.410   4.668   0.346
 2115WAT    HW1 6344   1.439   4.745   0.297
 2115WAT    HW2 6345   1.407   4.597   0.281
 2116WAT     OW 6346   2.869   6.107   4.551
 2116WAT    HW1 6347   2.802   6.042   4.531
 2116WAT    HW2 6348   2.952   6.062   4.537
 2117WAT     OW 6349   4.900   6.667   1.221
 2117WAT    HW1 6350   4.860   6.581   1.210
 2117WAT    HW2 6351   4.967   6.671   1.154
 2118WAT     OW 6352   1.930   1.328   3.531
 2118WAT    HW1 6353   1.870   1.340   3.604
 2118WAT    HW2 6354   2.016   1.316   3.572
 2119WAT     OW 6355   4.033   5.784   0.690
 2119WAT    HW1 6356   4.009   5.744   0.773
 2119WAT    HW2 6357   4.040   5.878   0.709
 2120WAT     OW 6358   4.654   0.273   1.292
 2120WAT    HW1 6359   4.707   0.292   1.369
 2120WAT    HW2 6360   4.711   0.292   1.217
 2121WAT     OW 6361   6.253   5.371   3.771
 2121WAT    HW1 6362   6.228   5.350   3.680
 2121WAT    HW2 6363   6.185   5.431   3.801
 2122WAT     OW 6364   4.205   3.856   3.026
 2122WAT    HW1 6365   4.150   3.920   3.072
 2122WAT    HW2 6366   4.287   3.855   3.075
 2123WAT     OW 6367   4.068   0.136   5.028
 2123WAT    HW1 6368   4.042   0.046   5.009
 2123WAT    HW2 6369   3.986   0.180   5.052
 2124WAT     OW 6370   6.594   2.687   5.779
 2124WAT    HW1 6371   6.579   2.778   5.754
 2124WAT    HW2 6372   6.606   2.641   5.696
 2125WAT     OW 6373   4.932   0.691   1.602
 2125WAT    HW1 6374   4.922   0.608   1.649
 2125WAT    HW2 6375   4.853   0.699   1.550
 2126WAT     OW 6376   2.828   4.985   0.039
 2126WAT    HW1 6377   2.803   5.075   0.018
 2126WAT    HW2 6378   2.748   4.934   0.029
 2127WAT     OW 6379   2.158   1.405   2.150
 2127WAT    HW1 6380   2.170   1.426   2.058
 2127WAT    HW2 6381   2.193   1.480   2.197
 2128WAT     OW 6382   4.157   1.792   6.589
 2128WAT    HW1 6383   4.085   1.851   6.567
 2128WAT    HW2 6384   4.227   1.850   6.619
 2129WAT     OW 6385   4.471   3.755   4.090
 2129WAT    HW1 6386   4.541   3.700   4.125
 2129WAT    HW2 6387   4.441   3.807   4.165
 2130WAT     OW 6388   5.121   1.428   1.673
 2130WAT    HW1 6389   5.203   1.421   1.721
 2130WAT    HW2 6390   5.141   1.395   1.586
 2131WAT     OW 6391   6.057   0.447   3.239
 2131WAT    HW1 6392   6.140   0.489   3.259
 2131WAT    HW2 6393   6.002   0.463   3.317
 2132WAT     OW 6394   0.204   2.232   6.712
 2132WAT    HW1 6395   0.212   2.221   6.807
 2132WAT    HW2 6396   0.128   2.178   6.689
 2133WAT     OW 6397   1.734   6.134   5.478
 2133WAT    HW1 6398   1.683   6.055   5.494
 2133WAT    HW2 6399   1.755   6.167   5.566
 2134WAT     OW 6400   5.275   6.075   3.065
 2134WAT    HW1 6401   5.367   6.082   3.088
 2134WAT    HW2 6402   5.253   5.983   3.084
 2135WAT     OW 6403   5.094   2.117   4.995
 2135WAT    HW1 6404   5.056   2.203   5.010
 2135WAT    HW2 6405   5.065   2.092   4.907
 2136WAT     OW 6406   5.668   5.862   0.975
 2136WAT    HW1 6407   5.698   5.778   1.012
 2136WAT    HW2 6408   5.743   5.920   0.985
 2137WAT     OW 6409   5.277   1.864   6.179
 2137WAT    HW1 6410   5.314   1.786   6.219
 2137WAT    HW2 6411   5.285   1.931   6.247
 2138WAT     OW 6412   4.767   0.023   5.783
 2138WAT    HW1 6413   4.770   0.104   5.834
 2138WAT    HW2 6414   4.835   0.034   5.716
 2139WAT     OW 6415   6.313   2.078   1.420
 2139WAT    HW1 6416   6.344   2.112   1.504
 2139WAT    HW2 6417   6.290   2.156   1.370
 2140WAT     OW 6418   3.746   1.944   2.084
 2140WAT    HW1 6419   3.676   1.899   2.131
 2140WAT    HW2 6420   3.819   1.882   2.085
 2141WAT     OW 6421   3.338   4.167   2.811
 2141WAT    HW1 6422   3.303   4.224   2.879
 2141WAT    HW2 6423   3.416   4.127   2.850
 2142WAT     OW 6424   1.968   2.914   6.461
 2142WAT    HW1 6425   1.879   2.946   6.448
 2142WAT    HW2 6426   1.958   2.820   6.476
 2143WAT     OW 6427   1.611   3.122   3.382
 2143WAT    HW1 6428   1.521   3.089   3.375
 2143WAT    HW2 6429   1.614   3.163   3.469
 2144WAT     OW 6430   5.481   2.915   4.792
 2144WAT    HW1 6431   5.521   2.849   4.848
 2144WAT    HW2 6432   5.409   2.950   4.844
 2145WAT     OW 6433   1.768   3.211   6.183
 2145WAT    HW1 6434   1.693   3.161   6.215
 2145WAT    HW2 6435   1.835   3.146   6.164
 2146WAT     OW 6436   0.097   0.339   0.006
 2146WAT    HW1 6437   0.173   0.290   0.038
 2146WAT    HW2 6438   0.091   0.315  -0.087
 2147WAT     OW 6439   1.176   4.854   4.236
 2147WAT    HW1 6440   1.217   4.801   4.304
 2147WAT    HW2 6441   1.115   4.911   4.284
 2148WAT     OW 6442   6.653   6.683   0.158
 2148WAT    HW1 6443   6.673   6.611   0.098
 2148WAT    HW2 6444   6.738   6.721   0.179
 2149WAT     OW 6445   6.363   4.847   4.454
 2149WAT    HW1 6446   6.306   4.836   4.377
 2149WAT    HW2 6447   6.302   4.851   4.528
 2150WAT     OW 6448   2.435   1.863   1.191
 2150WAT    HW1 6449   2.415   1.771   1.203
 2150WAT    HW2 6450   2.460   1.894   1.278
 2151WAT     OW 6451   1.550   6.702   4.787
 2151WAT    HW1 6452   1.602   6.776   4.816
 2151WAT    HW2 6453   1.482   6.741   4.732
 2152WAT     OW 6454   5.060   5.607   5.567
 2152WAT    HW1 6455   5.091   5.583   5.479
 2152WAT    HW2 6456   4.973   5.568   5.573
 2153WAT     OW 6457   3.661   3.802   4.440
 2153WAT    HW1 6458   3.679   3.748   4.517
 2153WAT    HW2 6459   3.658   3.740   4.367
 2154WAT     OW 6460   1.630   4.940   2.941
 2154WAT    HW1 6461   1.617   4.850   2.971
 2154WAT    HW2 6462   1.541   4.974   2.929
 2155WAT     OW 6463   0.075   0.812   5.281
 2155WAT    HW1 6464  -0.015   0.834   5.255
 2155WAT    HW2 6465   0.123   0.807   5.198
 2156WAT     OW 6466   1.908   5.003   3.266
 2156WAT    HW1 6467   1.909   5.065   3.193
 2156WAT    HW2 6468   1.912   5.058   3.344
 2157WAT     OW 6469   0.110   0.568   1.304
 2157WAT    HW1 6470   0.054   0.578   1.227
 2157WAT    HW2 6471   0.062   0.508   1.361
 2158WAT     OW 6472   4.525   6.442   6.123
 2158WAT    HW1 6473   4.435   6.474   6.117
 2158WAT    HW2 6474   4.578   6.522   6.127
 2159WAT     OW 6475   1.568   5.369   4.461
 2159WAT    HW1 6476   1.646   5.313   4.464
 2159WAT    HW2 6477   1.544   5.371   4.369
 2160WAT     OW 6478   4.787   1.554   4.107
 2160WAT    HW1 6479   4.801   1.637   4.060
 2160WAT    HW2 6480   4.871   1.537   4.150
 2161WAT     OW 6481   6.053   4.667   5.642
 2161WAT    HW1 6482   6.057   4.736   5.577
 2161WAT    HW2 6483   5.961   4.661   5.666
 2162WAT     OW 6484   0.075   0.797   4.329
 2162WAT    HW1 6485   0.159   0.770   4.293
 2162WAT    HW2 6486   0.065   0.888   4.300
 2163WAT     OW 6487   2.216   0.622   1.006
 2163WAT    HW1 6488   2.239   0.712   0.983
 2163WAT    HW2 6489   2.284   0.568   0.965
 2164WAT     OW 6490   1.851   3.279   5.162
 2164WAT    HW1 6491   1.911   3.335   5.211
 2164WAT    HW2 6492   1.907   3.227   5.105
 2165WAT     OW 6493   1.982   2.930   4.132
 2165WAT    HW1 6494   1.907   2.979   4.099
 2165WAT    HW2 6495   2.056   2.962   4.081
 2166WAT     OW 6496   2.607   5.520   0.690
 2166WAT    HW1 6497   2.585   5.580   0.762
 2166WAT    HW2 6498   2.647   5.445   0.734
 2167WAT     OW 6499   2.345   3.650   5.255
 2167WAT    HW1 6500   2.411   3.688   5.313
 2167WAT    HW2 6501   2.308   3.578   5.305
 2168WAT     OW 6502   0.273   0.175   1.976
 2168WAT    HW1 6503   0.334   0.249   1.965
 2168WAT    HW2 6504   0.238   0.161   1.888
 2169WAT     OW 6505   6.705   6.289   2.168
 2169WAT    HW1 6506   6.738   6.278   2.079
 2169WAT    HW2 6507   6.764   6.352   2.209
 2170WAT     OW 6508   5.257   1.975   0.954
 2170WAT    HW1 6509   5.174   2.022   0.950
 2170WAT    HW2 6510   5.269   1.956   1.047
 2171WAT     OW 6511   5.863   0.196   4.330
 2171WAT    HW1 6512   5.857   0.209   4.425
 2171WAT    HW2 6513   5.801   0.259   4.293
 2172WAT     OW 6514   2.915   3.617   5.190
 2172WAT    HW1 6515   2.882   3.548   5.133
 2172WAT    HW2 6516   2.842   3.637   5.248
 2173WAT     OW 6517   1.797   5.107   4.186
 2173WAT    HW1 6518   1.869   5.048   4.163
 2173WAT    HW2 6519   1.781   5.157   4.106
 2174WAT     OW 6520   4.332   1.058   4.250
 2174WAT    HW1 6521   4.339   0.969   4.215
 2174WAT    HW2 6522   4.384   1.111   4.189
 2175WAT     OW 6523   2.755   4.396   0.442
 2175WAT    HW1 6524   2.700   4.324   0.471
 2175WAT    HW2 6525   2.811   4.415   0.517
 2176WAT     OW 6526   4.221   3.617   0.142
 2176WAT    HW1 6527   4.233   3.712   0.144
 2176WAT    HW2 6528   4.140   3.602   0.190
 2177WAT     OW 6529   5.656   3.771   5.061
 2177WAT    HW1 6530   5.677   3.759   4.969
 2177WAT    HW2 6531   5.669   3.865   5.077
 2178WAT     OW 6532   4.872   4.270   0.614
 2178WAT    HW1 6533   4.846   4.226   0.694
 2178WAT    HW2 6534   4.793   4.272   0.560
 2179WAT     OW 6535   5.292   5.657   0.894
 2179WAT    HW1 6536   5.332   5.655   0.981
 2179WAT    HW2 6537   5.356   5.704   0.840
 2180WAT     OW 6538   3.057   5.576   1.166
 2180WAT    HW1 6539   3.005   5.608   1.240
 2180WAT    HW2 6540   3.063   5.651   1.107
 2181WAT     OW 6541   4.936   0.630   6.456
 2181WAT    HW1 6542   4.939   0.691   6.382
 2181WAT    HW2 6543   4.965   0.682   6.531
 2182WAT     OW 6544   4.853   0.358   3.696
 2182WAT    HW1 6545   4.829   0.348   3.604
 2182WAT    HW2 6546   4.881   0.449   3.705
 2183WAT     OW 6547   2.610   4.324   3.953
 2183WAT    HW1 6548   2.644   4.239   3.924
 2183WAT    HW2 6549   2.594   4.312   4.047
 2184WAT     OW 6550   5.815   2.147   4.623
 2184WAT    HW1 6551   5.823   2.184   4.711
 2184WAT    HW2 6552   5.744   2.083   4.631
 2185WAT     OW 6553   5.283   2.203   3.233
 2185WAT    HW1 6554   5.363   2.152   3.223
 2185WAT    HW2 6555   5.226   2.174   3.163
 2186WAT     OW 6556   2.354   3.428   5.717
 2186WAT    HW1 6557   2.296   3.504   5.729
 2186WAT    HW2 6558   2.362   3.391   5.805
 2187WAT     OW 6559   3.208   4.995   4.027
 2187WAT    HW1 6560   3.158   4.939   4.087
 2187WAT    HW2 6561   3.286   4.944   4.007
 2188WAT     OW 6562   1.039   5.304   3.675
 2188WAT    HW1 6563   0.970   5.357   3.715
 2188WAT    HW2 6564   1.119   5.353   3.688
 2189WAT     OW 6565   1.782   2.885   2.612
 2189WAT    HW1 6566   1.837   2.964   2.605
 2189WAT    HW2 6567   1.838   2.821   2.656
 2190WAT     OW 6568   2.690   0.977   6.399
 2190WAT    HW1 6569   2.783   0.981   6.380
 2190WAT    HW2 6570   2.663   0.890   6.371
 2191WAT     OW 6571   5.613   4.506   6.369
 2191WAT    HW1 6572   5.562   4.548   6.300
 2191WAT    HW2 6573   5.649   4.578   6.420
 2192WAT     OW 6574   1.223   5.683   1.868
 2192WAT    HW1 6575   1.143   5.652   1.910
 2192WAT    HW2 6576   1.207   5.673   1.774
 2193WAT     OW 6577   0.259   3.463   5.847
 2193WAT    HW1 6578   0.289   3.552   5.860
 2193WAT    HW2 6579   0.265   3.422   5.934
 2194WAT     OW 6580   5.201   2.353   2.190
 2194WAT    HW1 6581   5.188   2.320   2.279
 2194WAT    HW2 6582   5.165   2.441   2.191
 2195WAT     OW 6583   5.146   3.878   4.604
 2195WAT    HW1 6584   5.187   3.930   4.674
 2195WAT    HW2 6585   5.097   3.811   4.651
 2196WAT     OW 6586   0.208   0.775   4.785
 2196WAT    HW1 6587   0.280   0.717   4.762
 2196WAT    HW2 6588   0.142   0.761   4.717
 2197WAT     OW 6589   1.660   1.399   0.355
 2197WAT    HW1 6590   1.735   1.403   0.295
 2197WAT    HW2 6591   1.682   1.462   0.424
 2198WAT     OW 6592   2.456   0.513   3.097
 2198WAT    HW1 6593   2.513   0.520   3.173
 2198WAT    HW2 6594   2.512   0.536   3.022
 2199WAT     OW 6595   3.009   0.672   5.437
 2199WAT    HW1 6596   2.973   0.656   5.349
 2199WAT    HW2 6597   2.940   0.644   5.497
 2200WAT     OW 6598   2.065   5.742   4.756
 2200WAT    HW1 6599   2.097   5.667   4.807
 2200WAT    HW2 6600   2.007   5.789   4.817
 2201WAT     OW 6601   6.168   2.719   4.866
 2201WAT    HW1 6602   6.216   2.799   4.885
 2201WAT    HW2 6603   6.086   2.749   4.826
 2202WAT     OW 6604   4.214   2.419   6.359
 2202WAT    HW1 6605   4.180   2.446   6.274
 2202WAT    HW2 6606   4.278   2.351   6.340
 2203WAT     OW 6607   2.442   3.246   1.252
 2203WAT    HW1 6608   2.501   3.308   1.209
 2203WAT    HW2 6609   2.493   3.165   1.258
 2204WAT     OW 6610   0.386   1.440   2.076
 2204WAT    HW1 6611   0.382   1.482   1.990
 2204WAT    HW2 6612   0.421   1.353   2.059
 2205WAT     OW 6613   1.300   1.719   5.781
 2205WAT    HW1 6614   1.283   1.630   5.812
 2205WAT    HW2 6615   1.393   1.718   5.757
 2206WAT     OW 6616   3.201   1.400   5.380
 2206WAT    HW1 6617   3.170   1.315   5.413
 2206WAT    HW2 6618   3.135   1.463   5.410
 2207WAT     OW 6619   1.384   5.219   5.761
 2207WAT    HW1 6620   1.408   5.161   5.689
 2207WAT    HW2 6621   1.366   5.161   5.835
 2208WAT     OW 6622   4.614   6.540   1.824
 2208WAT    HW1 6623   4.606   6.505   1.736
 2208WAT    HW2 6624   4.536   6.594   1.836
 2209WAT     OW 6625   3.445   1.491   3.703
 2209WAT    HW1 6626   3.357   1.454   3.716
 2209WAT    HW2 6627   3.504   1.418   3.717
 2210WAT     OW 6628   0.413   3.766   3.857
 2210WAT    HW1 6629   0.341   3.757   3.919
 2210WAT    HW2 6630   0.490   3.782   3.912
 2211WAT     OW 6631   4.817   5.839   1.005
 2211WAT    HW1 6632   4.868   5.765   1.039
 2211WAT    HW2 6633   4.836   5.911   1.066
 2212WAT     OW 6634   1.642   1.536   1.044
 2212WAT    HW1 6635   1.675   1.450   1.018
 2212WAT    HW2 6636   1.579   1.516   1.114
 2213WAT     OW 6637   1.108   2.583   2.605
 2213WAT    HW1 6638   1.183   2.643   2.602
 2213WAT    HW2 6639   1.099   2.561   2.698
 2214WAT     OW 6640   4.628   0.302   3.844
 2214WAT    HW1 6641   4.711   0.311   3.799
 2214WAT    HW2 6642   4.650   0.261   3.928
 2215WAT     OW 6643   2.025   2.367   3.610
 2215WAT    HW1 6644   1.998   2.347   3.520
 2215WAT    HW2 6645   1.980   2.449   3.632
 2216WAT     OW 6646   0.823   5.009   5.554
 2216WAT    HW1 6647   0.757   5.064   5.512
 2216WAT    HW2 6648   0.818   5.030   5.647
 2217WAT     OW 6649   6.567   4.958   4.064
 2217WAT    HW1 6650   6.631   4.979   3.996
 2217WAT    HW2 6651   6.531   4.873   4.039
 2218WAT     OW 6652   2.274   0.887   0.955
 2218WAT    HW1 6653   2.364   0.919   0.946
 2218WAT    HW2 6654   2.235   0.900   0.868
 2219WAT     OW 6655   3.712   5.302   5.373
 2219WAT    HW1 6656   3.633   5.267   5.415
 2219WAT    HW2 6657   3.746   5.366   5.436
 2220WAT     OW 6658   4.031   2.846   6.571
 2220WAT    HW1 6659   4.106   2.881   6.619
 2220WAT    HW2 6660   4.052   2.754   6.557
 2221WAT     OW 6661   3.234   0.179   6.197
 2221WAT    HW1 6662   3.171   0.108   6.195
 2221WAT    HW2 6663   3.315   0.138   6.227
 2222WAT     OW 6664   3.110   0.819   4.937
 2222WAT    HW1 6665   3.193   0.788   4.973
 2222WAT    HW2 6666   3.090   0.899   4.985
 2223WAT     OW 6667   5.790   3.124   2.834
 2223WAT    HW1 6668   5.796   3.042   2.785
 2223WAT    HW2 6669   5.850   3.183   2.789
 2224WAT     OW 6670   5.053   1.765   2.657
 2224WAT    HW1 6671   4.980   1.703   2.661
 2224WAT    HW2 6672   5.028   1.828   2.589
 2225WAT     OW 6673   5.439   4.229   1.106
 2225WAT    HW1 6674   5.455   4.238   1.012
 2225WAT    HW2 6675   5.354   4.184   1.111
 2226WAT     OW 6676   4.922   2.550   4.180
 2226WAT    HW1 6677   4.881   2.492   4.116
 2226WAT    HW2 6678   4.875   2.633   4.172
 2227WAT     OW 6679   0.418   2.708   5.541
 2227WAT    HW1 6680   0.424   2.679   5.450
 2227WAT    HW2 6681   0.347   2.656   5.578
 2228WAT     OW 6682   6.238   6.054   0.977
 2228WAT    HW1 6683   6.201   5.981   0.927
 2228WAT    HW2 6684   6.166   6.086   1.031
 2229WAT     OW 6685   0.719   3.305   1.792
 2229WAT    HW1 6686   0.666   3.309   1.713
 2229WAT    HW2 6687   0.656   3.295   1.863
 2230WAT     OW 6688   5.658   2.764   3.355
 2230WAT    HW1 6689   5.564   2.765   3.374
 2230WAT    HW2 6690   5.694   2.833   3.409
 2231WAT     OW 6691   1.353   4.335   1.641
 2231WAT    HW1 6692   1.318   4.296   1.561
 2231WAT    HW2 6693   1.287   4.399   1.667
 2232WAT     OW 6694   3.997   4.937   6.562
 2232WAT    HW1 6695   3.971   5.015   6.512
 2232WAT    HW2 6696   4.093   4.942   6.567
 2233WAT     OW 6697   3.387   6.214   3.080
 2233WAT    HW1 6698   3.317   6.210   3.016
 2233WAT    HW2 6699   3.343   6.237   3.162
 2234WAT     OW 6700   6.436   3.437   5.655
 2234WAT    HW1 6701   6.486   3.485   5.721
 2234WAT    HW2 6702   6.470   3.347   5.661
 2235WAT     OW 6703   1.464   2.701   3.419
 2235WAT    HW1 6704   1.376   2.707   3.383
 2235WAT    HW2 6705   1.521   2.731   3.348
 2236WAT     OW 6706   0.972   0.371   0.718
 2236WAT    HW1 6707   0.904   0.401   0.658
 2236WAT    HW2 6708   1.027   0.448   0.732
 2237WAT     OW 6709   5.444   1.534   5.872
 2237WAT    HW1 6710   5.431   1.628   5.856
 2237WAT    HW2 6711   5.518   1.530   5.933
 2238WAT     OW 6712   3.144   1.063   2.873
 2238WAT    HW1 6713   3.141   0.975   2.911
 2238WAT    HW2 6714   3.052   1.091   2.871
 2239WAT     OW 6715   5.058   2.674   6.490
 2239WAT    HW1 6716   5.139   2.704   6.449
 2239WAT    HW2 6717   5.066   2.579   6.493
 2240WAT     OW 6718   0.296   1.875   4.740
 2240WAT    HW1 6719   0.379   1.839   4.709
 2240WAT    HW2 6720   0.229   1.819   4.700
 2241WAT     OW 6721   2.170   1.208   3.270
 2241WAT    HW1 6722   2.103   1.273   3.252
 2241WAT    HW2 6723   2.232   1.252   3.328
 2242WAT     OW 6724   3.343   2.846   2.329
 2242WAT    HW1 6725   3.277   2.904   2.368
 2242WAT    HW2 6726   3.362   2.885   2.244
 2243WAT     OW 6727   2.595   2.035   1.043
 2243WAT    HW1 6728   2.543   1.973   1.094
 2243WAT    HW2 6729   2.686   2.008   1.057
 2244WAT     OW 6730   1.321   0.004   6.476
 2244WAT    HW1 6731   1.399  -0.047   6.455
 2244WAT    HW2 6732   1.251  -0.060   6.483
 2245WAT     OW 6733   3.897   5.178   6.459
 2245WAT    HW1 6734   3.803   5.174   6.478
 2245WAT    HW2 6735   3.930   5.248   6.515
 2246WAT     OW 6736   1.025   5.606   2.576
 2246WAT    HW1 6737   1.072   5.675   2.528
 2246WAT    HW2 6738   1.066   5.525   2.545
 2247WAT     OW 6739   5.872   2.617   4.751
 2247WAT    HW1 6740   5.875   2.575   4.837
 2247WAT    HW2 6741   5.934   2.568   4.697
 2248WAT     OW 6742   3.619   1.611   3.885
 2248WAT    HW1 6743   3.562   1.563   3.826
 2248WAT    HW2 6744   3.705   1.569   3.876
 2249WAT     OW 6745   2.538   3.162   4.761
 2249WAT    HW1 6746   2.621   3.205   4.778
 2249WAT    HW2 6747   2.556   3.101   4.689
 2250WAT     OW 6748   3.284   6.027   6.308
 2250WAT    HW1 6749   3.352   5.965   6.281
 2250WAT    HW2 6750   3.263   6.001   6.397
 2251WAT     OW 6751   1.219   3.436   4.449
 2251WAT    HW1 6752   1.206   3.507   4.513
 2251WAT    HW2 6753   1.189   3.473   4.366
 2252WAT     OW 6754   0.250   2.779   1.451
 2252WAT    HW1 6755   0.334   2.742   1.424
 2252WAT    HW2 6756   0.254   2.870   1.421
 2253WAT     OW 6757   1.221   5.690   2.196
 2253WAT    HW1 6758   1.266   5.759   2.148
 2253WAT    HW2 6759   1.146   5.668   2.141
 2254WAT     OW 6760   5.419   1.813   3.200
 2254WAT    HW1 6761   5.453   1.902   3.200
 2254WAT    HW2 6762   5.497   1.757   3.198
 2255WAT     OW 6763   6.005   1.025   3.188
 2255WAT    HW1 6764   5.996   1.107   3.141
 2255WAT    HW2 6765   5.992   1.048   3.280
 2256WAT     OW 6766   4.858   3.886   3.580
 2256WAT    HW1 6767   4.770   3.912   3.554
 2256WAT    HW2 6768   4.899   3.856   3.499
 2257WAT     OW 6769   3.324   5.333   0.188
 2257WAT    HW1 6770   3.405   5.369   0.152
 2257WAT    HW2 6771   3.351   5.284   0.266
 2258WAT     OW 6772   2.469   5.923   1.702
 2258WAT    HW1 6773   2.554   5.954   1.733
 2258WAT    HW2 6774   2.420   5.903   1.782
 2259WAT     OW 6775   3.019   3.969   5.543
 2259WAT    HW1 6776   3.031   3.982   5.637
 2259WAT    HW2 6777   2.977   4.050   5.513
 2260WAT     OW 6778   5.963   2.488   4.334
 2260WAT    HW1 6779   5.959   2.579   4.303
 2260WAT    HW2 6780   5.990   2.438   4.257
 2261WAT     OW 6781   0.206   1.293   4.850
 2261WAT    HW1 6782   0.174   1.203   4.844
 2261WAT    HW2 6783   0.235   1.315   4.762
 2262WAT     OW 6784   3.171   0.333   4.207
 2262WAT    HW1 6785   3.218   0.320   4.125
 2262WAT    HW2 6786   3.092   0.280   4.198
 2263WAT     OW 6787   4.878   3.022   5.080
 2263WAT    HW1 6788   4.902   2.931   5.101
 2263WAT    HW2 6789   4.885   3.068   5.164
 2264WAT     OW 6790   5.084   5.069   2.717
 2264WAT    HW1 6791   5.099   5.106   2.804
 2264WAT    HW2 6792   5.138   5.123   2.659
 2265WAT     OW 6793   2.805   5.608   2.305
 2265WAT    HW1 6794   2.845   5.541   2.360
 2265WAT    HW2 6795   2.809   5.572   2.217
 2266WAT     OW 6796   2.005   2.784   2.158
 2266WAT    HW1 6797   2.037   2.829   2.079
 2266WAT    HW2 6798   2.018   2.848   2.228
 2267WAT     OW 6799   5.007   2.738   1.298
 2267WAT    HW1 6800   4.918   2.704   1.293
 2267WAT    HW2 6801   5.015   2.795   1.222
 2268WAT     OW 6802   3.937   1.063   3.493
 2268WAT    HW1 6803   3.946   0.971   3.516
 2268WAT    HW2 6804   4.026   1.099   3.502
 2269WAT     OW 6805   2.901   1.931   1.348
 2269WAT    HW1 6806   2.844   1.981   1.407
 2269WAT    HW2 6807   2.990   1.956   1.372
 2270WAT     OW 6808   0.435   2.649   5.272
 2270WAT    HW1 6809   0.399   2.675   5.187
 2270WAT    HW2 6810   0.523   2.616   5.251
 2271WAT     OW 6811   6.331   0.862   2.465
 2271WAT    HW1 6812   6.354   0.830   2.552
 2271WAT    HW2 6813   6.407   0.842   2.411
 2272WAT     OW 6814   0.506   4.543   4.817
 2272WAT    HW1 6815   0.453   4.621   4.799
 2272WAT    HW2 6816   0.493   4.488   4.739
 2273WAT     OW 6817   1.204   0.631   1.256
 2273WAT    HW1 6818   1.220   0.537   1.267
 2273WAT    HW2 6819   1.229   0.669   1.340
 2274WAT     OW 6820   1.438   0.167   6.664
 2274WAT    HW1 6821   1.497   0.103   6.704
 2274WAT    HW2 6822   1.393   0.118   6.595
 2275WAT     OW 6823   0.328   4.346   6.101
 2275WAT    HW1 6824   0.381   4.351   6.180
 2275WAT    HW2 6825   0.300   4.437   6.086
 2276WAT     OW 6826   1.871   0.839   1.720
 2276WAT    HW1 6827   1.947   0.788   1.691
 2276WAT    HW2 6828   1.905   0.894   1.790
 2277WAT     OW 6829   4.437   2.846   6.001
 2277WAT    HW1 6830   4.528   2.865   6.024
 2277WAT    HW2 6831   4.443   2.772   5.940
 2278WAT     OW 6832   6.706   6.511   4.358
 2278WAT    HW1 6833   6.707   6.592   4.409
 2278WAT    HW2 6834   6.618   6.507   4.321
 2279WAT     OW 6835   0.243   1.964   6.107
 2279WAT    HW1 6836   0.164   1.985   6.157
 2279WAT    HW2 6837   0.214   1.902   6.040
 2280WAT     OW 6838   3.727   4.867   6.555
 2280WAT    HW1 6839   3.819   4.879   6.579
 2280WAT    HW2 6840   3.728   4.856   6.460
 2281WAT     OW 6841   0.994   0.611   0.356
 2281WAT    HW1 6842   1.087   0.598   0.372
 2281WAT    HW2 6843   0.979   0.574   0.269
 2282WAT     OW 6844   6.306   3.979   1.323
 2282WAT    HW1 6845   6.370   3.972   1.394
 2282WAT    HW2 6846   6.357   3.963   1.243
 2283WAT     OW 6847   3.407   6.158   0.283
 2283WAT    HW1 6848   3.426   6.128   0.194
 2283WAT    HW2 6849   3.375   6.080   0.328
 2284WAT     OW 6850   3.876   0.667   4.296
 2284WAT    HW1 6851   3.823   0.741   4.265
 2284WAT    HW2 6852   3.812   0.602   4.323
 2285WAT     OW 6853   0.334   3.308   4.973
 2285WAT    HW1 6854   0.310   3.357   5.051
 2285WAT    HW2 6855   0.384   3.233   5.005
 2286WAT     OW 6856   3.728   4.929   4.333
 2286WAT    HW1 6857   3.773   4.867   4.275
 2286WAT    HW2 6858   3.639   4.932   4.299
 2287WAT     OW 6859   6.142   4.269   3.738
 2287WAT    HW1 6860   6.086   4.302   3.668
 2287WAT    HW2 6861   6.092   4.196   3.776
 2288WAT     OW 6862   3.919   2.264   0.176
 2288WAT    HW1 6863   3.979   2.332   0.206
 2288WAT    HW2 6864   3.880   2.229   0.257
 2289WAT     OW 6865   1.947   3.920   6.483
 2289WAT    HW1 6866   1.970   3.860   6.554
 2289WAT    HW2 6867   2.006   3.994   6.494
 2290WAT     OW 6868   6.255   2.689   3.626
 2290WAT    HW1 6869   6.302   2.624   3.573
 2290WAT    HW2 6870   6.296   2.772   3.604
 2291WAT     OW 6871   0.545   5.751   3.014
 2291WAT    HW1 6872   0.538   5.817   2.945
 2291WAT    HW2 6873   0.473   5.770   3.074
 2292WAT     OW 6874   1.885   4.714   3.620
 2292WAT    HW1 6875   1.926   4.627   3.627
 2292WAT    HW2 6876   1.958   4.773   3.601
 2293WAT     OW 6877   2.873   4.637   0.828
 2293WAT    HW1 6878   2.840   4.559   0.872
 2293WAT    HW2 6879   2.868   4.706   0.894
 2294WAT     OW 6880   3.343   2.960   0.616
 2294WAT    HW1 6881   3.272   3.019   0.593
 2294WAT    HW2 6882   3.419   2.995   0.568
 2295WAT     OW 6883   6.586   3.221   3.361
 2295WAT    HW1 6884   6.608   3.141   3.408
 2295WAT    HW2 6885   6.665   3.275   3.367
 2296WAT     OW 6886   4.851   0.411   4.621
 2296WAT    HW1 6887   4.762   0.421   4.588
 2296WAT    HW2 6888   4.851   0.458   4.704
 2297WAT     OW 6889   5.678   3.328   1.035
 2297WAT    HW1 6890   5.585   3.351   1.039
 2297WAT    HW2 6891   5.679   3.238   1.000
 2298WAT     OW 6892   0.075   5.320   3.287
 2298WAT    HW1 6893   0.118   5.392   3.241
 2298WAT    HW2 6894   0.121   5.314   3.371
 2299WAT     OW 6895   6.670   3.143   2.201
 2299WAT    HW1 6896   6.696   3.174   2.115
 2299WAT    HW2 6897   6.725   3.066   2.216
 2300WAT     OW 6898   2.384   2.709   2.011
 2300WAT    HW1 6899   2.438   2.701   1.931
 2300WAT    HW2 6900   2.317   2.641   2.001
 2301WAT     OW 6901   2.189   1.388   1.620
 2301WAT    HW1 6902   2.111   1.443   1.616
 2301WAT    HW2 6903   2.162   1.306   1.577
 2302WAT     OW 6904   2.223   3.835   4.240
 2302WAT    HW1 6905   2.290   3.875   4.185
 2302WAT    HW2 6906   2.264   3.755   4.273
 2303WAT     OW 6907   2.655   4.272   4.559
 2303WAT    HW1 6908   2.654   4.362   4.527
 2303WAT    HW2 6909   2.563   4.246   4.559
 2304WAT     OW 6910   0.108   1.846   0.005
 2304WAT    HW1 6911   0.069   1.794   0.075
 2304WAT    HW2 6912   0.202   1.828   0.011
 2305WAT     OW 6913   3.906   1.722   2.046
 2305WAT    HW1 6914   3.980   1.708   1.988
 2305WAT    HW2 6915   3.829   1.709   1.991
 2306WAT     OW 6916   6.334   3.001   5.553
 2306WAT    HW1 6917   6.270   3.072   5.552
 2306WAT    HW2 6918   6.380   3.009   5.469
 2307WAT     OW 6919   1.670   4.274   6.580
 2307WAT    HW1 6920   1.711   4.224   6.509
 2307WAT    HW2 6921   1.583   4.296   6.548
 2308WAT     OW 6922   0.841   6.704   6.183
 2308WAT    HW1 6923   0.903   6.643   6.143
 2308WAT    HW2 6924   0.892   6.784   6.198
 2309WAT     OW 6925   6.125   3.632   5.250
 2309WAT    HW1 6926   6.134   3.541   5.220
 2309WAT    HW2 6927   6.054   3.629   5.314
 2310WAT     OW 6928   3.359   4.308   2.007
 2310WAT    HW1 6929   3.412   4.295   2.085
 2310WAT    HW2 6930   3.384   4.394   1.974
 2311WAT     OW 6931   4.523   3.233   0.207
 2311WAT    HW1 6932   4.504   3.327   0.205
 2311WAT    HW2 6933   4.616   3.227   0.231
 2312WAT     OW 6934   4.860   1.107   1.795
 2312WAT    HW1 6935   4.836   1.032   1.849
 2312WAT    HW2 6936   4.927   1.073   1.735
 2313WAT     OW 6937   1.840   2.738   1.484
 2313WAT    HW1 6938   1.914   2.682   1.460
 2313WAT    HW2 6939   1.844   2.811   1.422
 2314WAT     OW 6940   4.449   1.559   2.338
 2314WAT    HW1 6941   4.475   1.555   2.246
 2314WAT    HW2 6942   4.359   1.590   2.337
 2315WAT     OW 6943   6.186   1.803   0.262
 2315WAT    HW1 6944   6.252   1.797   0.192
 2315WAT    HW2 6945   6.211   1.880   0.312
 2316WAT     OW 6946   3.286   4.766   3.239
 2316WAT    HW1 6947   3.237   4.691   3.272
 2316WAT    HW2 6948   3.248   4.841   3.285
 2317WAT     OW 6949   4.528   4.809   3.835
 2317WAT    HW1 6950   4.532   4.831   3.742
 2317WAT    HW2 6951   4.527   4.893   3.880
 2318WAT     OW 6952   6.367   4.721   3.513
 2318WAT    HW1 6953   6.302   4.717   3.442
 2318WAT    HW2 6954   6.403   4.809   3.507
 2319WAT     OW 6955   5.656   4.954   6.296
 2319WAT    HW1 6956   5.583   5.010   6.319
 2319WAT    HW2 6957   5.634   4.919   6.210
 2320WAT     OW 6958   1.422   2.175   3.409
 2320WAT    HW1 6959   1.485   2.193   3.479
 2320WAT    HW2 6960   1.380   2.260   3.394
 2321WAT     OW 6961   0.328   5.389   5.385
 2321WAT    HW1 6962   0.270   5.334   5.332
 2321WAT    HW2 6963   0.376   5.441   5.321
 2322WAT     OW 6964   0.646   4.447   4.053
 2322WAT    HW1 6965   0.596   4.487   4.125
 2322WAT    HW2 6966   0.689   4.372   4.092
 2323WAT     OW 6967   0.931   4.070   1.681
 2323WAT    HW1 6968   0.970   4.103   1.762
 2323WAT    HW2 6969   0.867   4.137   1.658
 2324WAT     OW 6970   1.731   3.646   1.090
 2324WAT    HW1 6971   1.713   3.617   1.001
 2324WAT    HW2 6972   1.789   3.721   1.080
 2325WAT     OW 6973   4.098   3.746   5.939
 2325WAT    HW1 6974   4.005   3.763   5.925
 2325WAT    HW2 6975   4.139   3.763   5.854
 2326WAT     OW 6976   0.733   4.488   1.944
 2326WAT    HW1 6977   0.654   4.534   1.918
 2326WAT    HW2 6978   0.705   4.397   1.955
 2327WAT     OW 6979   6.569   4.062   4.655
 2327WAT    HW1 6980   6.574   4.122   4.729
 2327WAT    HW2 6981   6.504   4.101   4.596
 2328WAT     OW 6982   6.290   3.030   2.842
 2328WAT    HW1 6983   6.205   2.986   2.851
 2328WAT    HW2 6984   6.268   3.119   2.814
 2329WAT     OW 6985   5.101   1.687   1.570
 2329WAT    HW1 6986   5.076   1.597   1.594
 2329WAT    HW2 6987   5.196   1.688   1.582
 2330WAT     OW 6988   5.349   5.251   4.940
 2330WAT    HW1 6989   5.388   5.284   4.859
 2330WAT    HW2 6990   5.417   5.263   5.006
 2331WAT     OW 6991   2.858   2.701   1.565
 2331WAT    HW1 6992   2.833   2.722   1.475
 2331WAT    HW2 6993   2.808   2.762   1.618
 2332WAT     OW 6994   0.204   3.055   2.872
 2332WAT    HW1 6995   0.184   3.071   2.779
 2332WAT    HW2 6996   0.235   2.965   2.874
 2333WAT     OW 6997   4.137   1.046   5.279
 2333WAT    HW1 6998   4.080   1.055   5.203
 2333WAT    HW2 6999   4.080   1.008   5.347
 2334WAT     OW 7000   4.926   1.031   6.574
 2334WAT    HW1 7001   4.964   0.949   6.603
 2334WAT    HW2 7002   5.001   1.088   6.558
 2335WAT     OW 7003   1.919   4.274   1.807
 2335WAT    HW1 7004   1.898   4.189   1.844
 2335WAT    HW2 7005   1.940   4.256   1.715
 2336WAT     OW 7006   1.595   5.549   2.905
 2336WAT    HW1 7007   1.539   5.621   2.877
 2336WAT    HW2 7008   1.555   5.471   2.866
 2337WAT     OW 7009   3.882   1.514   3.899
 2337WAT    HW1 7010   3.874   1.439   3.840
 2337WAT    HW2 7011   3.973   1.510   3.930
 2338WAT     OW 7012   6.686   6.216   5.890
 2338WAT    HW1 7013   6.645   6.267   5.960
 2338WAT    HW2 7014   6.613   6.183   5.838
 2339WAT     OW 7015   4.362   0.705   5.604
 2339WAT    HW1 7016   4.397   0.731   5.689
 2339WAT    HW2 7017   4.352   0.787   5.556
 2340WAT     OW 7018   3.339   5.933   0.428
 2340WAT    HW1 7019   3.418   5.881   0.442
 2340WAT    HW2 7020   3.267   5.871   0.437
 2341WAT     OW 7021   5.190   6.321   3.145
 2341WAT    HW1 7022   5.233   6.237   3.128
 2341WAT    HW2 7023   5.101   6.298   3.171
 2342WAT     OW 7024   0.393   2.013   0.610
 2342WAT    HW1 7025   0.406   1.938   0.667
 2342WAT    HW2 7026   0.481   2.038   0.581
 2343WAT     OW 7027   0.738   0.563   2.538
 2343WAT    HW1 7028   0.650   0.583   2.504
 2343WAT    HW2 7029   0.797   0.591   2.468
 2344WAT     OW 7030   1.198   4.014   1.634
 2344WAT    HW1 7031   1.248   4.043   1.710
 2344WAT    HW2 7032   1.107   4.036   1.655
 2345WAT     OW 7033   1.980   2.649   6.541
 2345WAT    HW1 7034   1.914   2.623   6.606
 2345WAT    HW2 7035   2.003   2.568   6.496
 2346WAT     OW 7036   6.303   3.863   4.587
 2346WAT    HW1 7037   6.315   3.842   4.679
 2346WAT    HW2 7038   6.326   3.955   4.579
 2347WAT     OW 7039   1.792   1.799   4.015
 2347WAT    HW1 7040   1.861   1.837   4.070
 2347WAT    HW2 7041   1.838   1.768   3.937
 2348WAT     OW 7042   2.874   6.487   6.121
 2348WAT    HW1 7043   2.790   6.497   6.166
 2348WAT    HW2 7044   2.867   6.403   6.076
 2349WAT     OW 7045   0.975   5.106   3.487
 2349WAT    HW1 7046   0.989   5.179   3.548
 2349WAT    HW2 7047   0.936   5.147   3.410
 2350WAT     OW 7048   2.504   4.763   2.951
 2350WAT    HW1 7049   2.544   4.676   2.946
 2350WAT    HW2 7050   2.579   4.822   2.961
 2351WAT     OW 7051   4.717   2.065   3.665
 2351WAT    HW1 7052   4.679   2.009   3.733
 2351WAT    HW2 7053   4.657   2.057   3.591
 2352WAT     OW 7054   1.488   3.548   4.144
 2352WAT    HW1 7055   1.491   3.510   4.232
 2352WAT    HW2 7056   1.488   3.642   4.158
 2353WAT     OW 7057   6.171   3.532   6.532
 2353WAT    HW1 7058   6.253   3.490   6.507
 2353WAT    HW2 7059   6.161   3.605   6.470
 2354WAT     OW 7060   4.165   0.482   6.664
 2354WAT    HW1 7061   4.195   0.494   6.574
 2354WAT    HW2 7062   4.139   0.569   6.693
 2355WAT     OW 7063   0.485   4.304   0.016
 2355WAT    HW1 7064   0.537   4.247  -0.040
 2355WAT    HW2 7065   0.521   4.392   0.003
 2356WAT     OW 7066   5.628   6.581   5.925
 2356WAT    HW1 7067   5.573   6.657   5.906
 2356WAT    HW2 7068   5.573   6.525   5.979
 2357WAT     OW 7069   0.881   3.815   2.176
 2357WAT    HW1 7070   0.787   3.806   2.161
 2357WAT    HW2 7071   0.889   3.838   2.269
 2358WAT     OW 7072   1.686   1.311   5.259
 2358WAT    HW1 7073   1.701   1.260   5.179
 2358WAT    HW2 7074   1.645   1.392   5.229
 2359WAT     OW 7075   0.358   5.353   6.229
 2359WAT    HW1 7076   0.386   5.425   6.172
 2359WAT    HW2 7077   0.428   5.289   6.224
 2360WAT     OW 7078   0.013   3.861   5.528
 2360WAT    HW1 7079   0.024   3.769   5.507
 2360WAT    HW2 7080   0.068   3.907   5.465
 2361WAT     OW 7081   2.153   5.544   4.924
 2361WAT    HW1 7082   2.098   5.552   5.001
 2361WAT    HW2 7083   2.242   5.554   4.956
 2362WAT     OW 7084   4.626   6.276   2.462
 2362WAT    HW1 7085   4.589   6.308   2.545
 2362WAT    HW2 7086   4.618   6.181   2.467
 2363WAT     OW 7087   2.669   5.347   5.777
 2363WAT    HW1 7088   2.611   5.342   5.852
 2363WAT    HW2 7089   2.644   5.427   5.731
 2364WAT     OW 7090   2.337   0.322   2.181
 2364WAT    HW1 7091   2.294   0.399   2.217
 2364WAT    HW2 7092   2.407   0.358   2.126
 2365WAT     OW 7093   3.308   5.480   1.225
 2365WAT    HW1 7094   3.350   5.565   1.213
 2365WAT    HW2 7095   3.218   5.493   1.195
 2366WAT     OW 7096   2.798   1.675   1.321
 2366WAT    HW1 7097   2.784   1.666   1.226
 2366WAT    HW2 7098   2.832   1.764   1.331
 2367WAT     OW 7099   4.990   1.861   0.213
 2367WAT    HW1 7100   4.909   1.877   0.261
 2367WAT    HW2 7101   5.023   1.949   0.191
 2368WAT     OW 7102   5.477   2.367   0.438
 2368WAT    HW1 7103   5.564   2.372   0.475
 2368WAT    HW2 7104   5.477   2.286   0.387
 2369WAT     OW 7105   2.030   2.555   1.339
 2369WAT    HW1 7106   2.041   2.633   1.284
 2369WAT    HW2 7107   2.067   2.484   1.288
 2370WAT     OW 7108   6.026   4.081   0.642
 2370WAT    HW1 7109   6.110   4.044   0.614
 2370WAT    HW2 7110   6.010   4.044   0.728
 2371WAT     OW 7111   3.199   2.089   1.128
 2371WAT    HW1 7112   3.166   2.065   1.042
 2371WAT    HW2 7113   3.232   2.178   1.118
 2372WAT     OW 7114   2.383   4.385   1.228
 2372WAT    HW1 7115   2.309   4.444   1.215
 2372WAT    HW2 7116   2.459   4.435   1.196
 2373WAT     OW 7117   4.131   4.094   2.040
 2373WAT    HW1 7118   4.134   4.083   2.135
 2373WAT    HW2 7119   4.102   4.184   2.028
 2374WAT     OW 7120   2.653   3.515   6.429
 2374WAT    HW1 7121   2.654   3.437   6.485
 2374WAT    HW2 7122   2.733   3.561   6.451
 2375WAT     OW 7123   1.170   4.928   1.908
 2375WAT    HW1 7124   1.166   4.871   1.831
 2375WAT    HW2 7125   1.081   4.961   1.918
 2376WAT     OW 7126   2.895   5.368   2.409
 2376WAT    HW1 7127   2.937   5.294   2.364
 2376WAT    HW2 7128   2.804   5.340   2.421
 2377WAT     OW 7129   0.007   2.051   3.635
 2377WAT    HW1 7130  -0.066   2.026   3.691
 2377WAT    HW2 7131   0.007   2.147   3.636
 2378WAT     OW 7132   0.440   4.155   3.921
 2378WAT    HW1 7133   0.439   4.245   3.890
 2378WAT    HW2 7134   0.406   4.104   3.847
 2379WAT     OW 7135   4.163   5.145   0.546
 2379WAT    HW1 7136   4.250   5.109   0.528
 2379WAT    HW2 7137   4.141   5.111   0.633
 2380WAT     OW 7138   1.156   2.769   2.924
 2380WAT    HW1 7139   1.134   2.799   3.012
 2380WAT    HW2 7140   1.166   2.850   2.873
 2381WAT     OW 7141   6.569   5.700   6.414
 2381WAT    HW1 7142   6.586   5.664   6.327
 2381WAT    HW2 7143   6.635   5.660   6.470
 2382WAT     OW 7144   0.398   0.621   6.543
 2382WAT    HW1 7145   0.488   0.597   6.564
 2382WAT    HW2 7146   0.403   0.659   6.455
 2383WAT     OW 7147   0.929   3.383   3.593
 2383WAT    HW1 7148   0.912   3.464   3.545
 2383WAT    HW2 7149   0.961   3.413   3.678
 2384WAT     OW 7150   5.256   3.456   4.187
 2384WAT    HW1 7151   5.286   3.412   4.266
 2384WAT    HW2 7152   5.188   3.516   4.217
 2385WAT     OW 7153   2.842   5.968   0.184
 2385WAT    HW1 7154   2.924   6.015   0.167
 2385WAT    HW2 7155   2.813   6.001   0.269
 2386WAT     OW 7156   4.548   1.528   2.080
 2386WAT    HW1 7157   4.629   1.578   2.091
 2386WAT    HW2 7158   4.534   1.524   1.986
 2387WAT     OW 7159   4.836   1.908   6.278
 2387WAT    HW1 7160   4.819   1.960   6.200
 2387WAT    HW2 7161   4.756   1.916   6.330
 2388WAT     OW 7162   2.133   0.616   0.658
 2388WAT    HW1 7163   2.193   0.573   0.597
 2388WAT    HW2 7164   2.051   0.627   0.609
 2389WAT     OW 7165   5.607   4.282   0.268
 2389WAT    HW1 7166   5.603   4.239   0.182
 2389WAT    HW2 7167   5.578   4.372   0.251
 2390WAT     OW 7168   6.680   2.727   5.065
 2390WAT    HW1 7169   6.748   2.674   5.025
 2390WAT    HW2 7170   6.655   2.679   5.144
 2391WAT     OW 7171   5.984   1.859   3.212
 2391WAT    HW1 7172   5.981   1.932   3.274
 2391WAT    HW2 7173   6.011   1.899   3.129
 2392WAT     OW 7174   3.226   0.492   3.301
 2392WAT    HW1 7175   3.270   0.513   3.384
 2392WAT    HW2 7176   3.277   0.421   3.263
 2393WAT     OW 7177   2.638   5.573   4.871
 2393WAT    HW1 7178   2.683   5.490   4.858
 2393WAT    HW2 7179   2.708   5.638   4.882
 2394WAT     OW 7180   4.799   5.678   4.612
 2394WAT    HW1 7181   4.715   5.633   4.602
 2394WAT    HW2 7182   4.803   5.699   4.706
 2395WAT     OW 7183   4.626   5.630   5.728
 2395WAT    HW1 7184   4.644   5.628   5.822
 2395WAT    HW2 7185   4.564   5.702   5.717
 2396WAT     OW 7186   2.110   6.092   3.439
 2396WAT    HW1 7187   2.137   6.002   3.419
 2396WAT    HW2 7188   2.034   6.108   3.384
 2397WAT     OW 7189   5.880   1.433   0.257
 2397WAT    HW1 7190   5.973   1.455   0.267
 2397WAT    HW2 7191   5.859   1.457   0.167
 2398WAT     OW 7192   0.237   1.317   6.491
 2398WAT    HW1 7193   0.227   1.387   6.555
 2398WAT    HW2 7194   0.331   1.310   6.477
 2399WAT     OW 7195   1.574   6.502   5.568
 2399WAT    HW1 7196   1.547   6.590   5.542
 2399WAT    HW2 7197   1.631   6.515   5.644
 2400WAT     OW 7198   4.302   3.313   3.068
 2400WAT    HW1 7199   4.215   3.301   3.029
 2400WAT    HW2 7200   4.295   3.273   3.155
 2401WAT     OW 7201   3.638   2.501   2.422
 2401WAT    HW1 7202   3.594   2.418   2.437
 2401WAT    HW2 7203   3.729   2.485   2.449
 2402WAT     OW 7204   2.949   2.296   1.729
 2402WAT    HW1 7205   2.929   2.203   1.735
 2402WAT    HW2 7206   3.013   2.303   1.658
 2403WAT     OW 7207   4.588   4.347   6.438
 2403WAT    HW1 7208   4.639   4.266   6.430
 2403WAT    HW2 7209   4.522   4.340   6.369
 2404WAT     OW 7210   4.977   5.699   3.588
 2404WAT    HW1 7211   4.977   5.696   3.493
 2404WAT    HW2 7212   5.048   5.640   3.614
 2405WAT     OW 7213   3.435   1.771   5.384
 2405WAT    HW1 7214   3.503   1.837   5.398
 2405WAT    HW2 7215   3.397   1.756   5.471
 2406WAT     OW 7216   5.227   3.351   6.203
 2406WAT    HW1 7217   5.147   3.299   6.208
 2406WAT    HW2 7218   5.294   3.296   6.245
 2407WAT     OW 7219   3.564   0.772   6.302
 2407WAT    HW1 7220   3.493   0.732   6.251
 2407WAT    HW2 7221   3.551   0.866   6.292
 2408WAT     OW 7222   3.420   5.768   6.644
 2408WAT    HW1 7223   3.361   5.693   6.644
 2408WAT    HW2 7224   3.505   5.733   6.671
 2409WAT     OW 7225   2.423   3.008   1.721
 2409WAT    HW1 7226   2.366   3.086   1.721
 2409WAT    HW2 7227   2.460   3.006   1.809
 2410WAT     OW 7228   3.978   4.754   5.641
 2410WAT    HW1 7229   3.954   4.810   5.567
 2410WAT    HW2 7230   3.944   4.800   5.717
 2411WAT     OW 7231   4.319   3.189   2.728
 2411WAT    HW1 7232   4.411   3.198   2.751
 2411WAT    HW2 7233   4.280   3.141   2.801
 2412WAT     OW 7234   3.101   1.612   2.823
 2412WAT    HW1 7235   3.091   1.554   2.899
 2412WAT    HW2 7236   3.156   1.562   2.762
 2413WAT     OW 7237   4.914   0.016   4.148
 2413WAT    HW1 7238   4.967   0.076   4.200
 2413WAT    HW2 7239   4.967  -0.002   4.071
 2414WAT     OW 7240   6.586   0.562   1.721
 2414WAT    HW1 7241   6.658   0.550   1.658
 2414WAT    HW2 7242   6.542   0.477   1.722
 2415WAT     OW 7243   3.221   2.609   4.411
 2415WAT    HW1 7244   3.232   2.582   4.502
 2415WAT    HW2 7245   3.295   2.570   4.365
 2416WAT     OW 7246   3.242   6.170   5.498
 2416WAT    HW1 7247   3.315   6.230   5.514
 2416WAT    HW2 7248   3.181   6.220   5.444
 2417WAT     OW 7249   1.747   4.883   1.675
 2417WAT    HW1 7250   1.700   4.870   1.593
 2417WAT    HW2 7251   1.819   4.941   1.652
 2418WAT     OW 7252   2.263   2.229   6.082
 2418WAT    HW1 7253   2.225   2.308   6.120
 2418WAT    HW2 7254   2.355   2.251   6.066
 2419WAT     OW 7255   4.297   3.422   0.430
 2419WAT    HW1 7256   4.356   3.450   0.360
 2419WAT    HW2 7257   4.324   3.474   0.506
 2420WAT     OW 7258   5.303   1.132   1.383
 2420WAT    HW1 7259   5.290   1.063   1.447
 2420WAT    HW2 7260   5.287   1.090   1.298
 2421WAT     OW 7261   5.976   4.128   0.041
 2421WAT    HW1 7262   5.934   4.150   0.124
 2421WAT    HW2 7263   5.942   4.192  -0.021
 2422WAT     OW 7264   1.931   1.727   0.429
 2422WAT    HW1 7265   1.858   1.676   0.465
 2422WAT    HW2 7266   1.982   1.664   0.378
 2423WAT     OW 7267   6.448   4.029   6.099
 2423WAT    HW1 7268   6.501   3.989   6.168
 2423WAT    HW2 7269   6.400   4.099   6.143
 2424WAT     OW 7270   0.143   4.340   1.944
 2424WAT    HW1 7271   0.097   4.350   1.860
 2424WAT    HW2 7272   0.105   4.262   1.983
 2425WAT     OW 7273   3.967   1.232   1.134
 2425WAT    HW1 7274   3.946   1.269   1.048
 2425WAT    HW2 7275   4.010   1.149   1.116
 2426WAT     OW 7276   0.859   0.714   6.664
 2426WAT    HW1 7277   0.820   0.797   6.637
 2426WAT    HW2 7278   0.953   0.726   6.649
 2427WAT     OW 7279   1.720   2.025   5.227
 2427WAT    HW1 7280   1.815   2.023   5.222
 2427WAT    HW2 7281   1.700   2.100   5.283
 2428WAT     OW 7282   0.700   5.441   1.733
 2428WAT    HW1 7283   0.651   5.395   1.801
 2428WAT    HW2 7284   0.711   5.530   1.768
 2429WAT     OW 7285   4.353   4.553   3.018
 2429WAT    HW1 7286   4.280   4.615   3.027
 2429WAT    HW2 7287   4.312   4.467   3.027
 2430WAT     OW 7288   4.828   0.315   1.080
 2430WAT    HW1 7289   4.761   0.291   1.017
 2430WAT    HW2 7290   4.888   0.372   1.032
 2431WAT     OW 7291   1.641   5.707   0.826
 2431WAT    HW1 7292   1.695   5.764   0.882
 2431WAT    HW2 7293   1.638   5.752   0.742
 2432WAT     OW 7294   1.380   1.175   4.368
 2432WAT    HW1 7295   1.444   1.207   4.305
 2432WAT    HW2 7296   1.323   1.117   4.318
 2433WAT     OW 7297   5.535   5.451   1.049
 2433WAT    HW1 7298   5.601   5.406   1.102
 2433WAT    HW2 7299   5.581   5.474   0.969
 2434WAT     OW 7300   3.243   3.423   4.416
 2434WAT    HW1 7301   3.295   3.464   4.347
 2434WAT    HW2 7302   3.153   3.452   4.400
 2435WAT     OW 7303   0.358   3.941   5.502
 2435WAT    HW1 7304   0.441   3.983   5.478
 2435WAT    HW2 7305   0.295   3.975   5.437
 2436WAT     OW 7306   5.533   0.050   0.470
 2436WAT    HW1 7307   5.592  -0.012   0.429
 2436WAT    HW2 7308   5.581   0.133   0.470
 2437WAT     OW 7309   3.297   3.225   5.318
 2437WAT    HW1 7310   3.296   3.206   5.412
 2437WAT    HW2 7311   3.382   3.193   5.288
 2438WAT     OW 7312   6.108   4.672   2.721
 2438WAT    HW1 7313   6.095   4.648   2.812
 2438WAT    HW2 7314   6.020   4.670   2.683
 2439WAT     OW 7315   6.228   4.780   1.084
 2439WAT    HW1 7316   6.241   4.733   1.167
 2439WAT    HW2 7317   6.209   4.870   1.110
 2440WAT     OW 7318   4.283   0.061   4.853
 2440WAT    HW1 7319   4.217   0.106   4.906
 2440WAT    HW2 7320   4.280   0.107   4.769
 2441WAT     OW 7321   6.646   0.138   1.205
 2441WAT    HW1 7322   6.630   0.231   1.189
 2441WAT    HW2 7323   6.741   0.128   1.202
 2442WAT     OW 7324   2.766   3.580   5.777
 2442WAT    HW1 7325   2.798   3.605   5.864
 2442WAT    HW2 7326   2.821   3.629   5.716
 2443WAT     OW 7327   5.313   0.914   1.562
 2443WAT    HW1 7328   5.342   0.857   1.491
 2443WAT    HW2 7329   5.395   0.950   1.598
 2444WAT     OW 7330   4.109   1.464   3.051
 2444WAT    HW1 7331   4.185   1.502   3.095
 2444WAT    HW2 7332   4.103   1.512   2.968
 2445WAT     OW 7333   5.904   5.148   4.794
 2445WAT    HW1 7334   5.870   5.197   4.719
 2445WAT    HW2 7335   5.981   5.198   4.822
 2446WAT     OW 7336   4.376   5.816   5.737
 2446WAT    HW1 7337   4.311   5.746   5.749
 2446WAT    HW2 7338   4.400   5.841   5.826
 2447WAT     OW 7339   0.896   5.942   2.438
 2447WAT    HW1 7340   0.844   5.861   2.435
 2447WAT    HW2 7341   0.986   5.912   2.436
 2448WAT     OW 7342   3.092   3.657   4.163
 2448WAT    HW1 7343   3.095   3.749   4.189
 2448WAT    HW2 7344   3.183   3.630   4.159
 2449WAT     OW 7345   0.191   0.227   5.689
 2449WAT    HW1 7346   0.143   0.167   5.747
 2449WAT    HW2 7347   0.126   0.256   5.625
 2450WAT     OW 7348   4.660   0.527   2.706
 2450WAT    HW1 7349   4.754   0.511   2.707
 2450WAT    HW2 7350   4.621   0.439   2.711
 2451WAT     OW 7351   0.667   2.702   3.349
 2451WAT    HW1 7352   0.651   2.784   3.302
 2451WAT    HW2 7353   0.616   2.637   3.301
 2452WAT     OW 7354   0.145   6.085   1.731
 2452WAT    HW1 7355   0.215   6.058   1.671
 2452WAT    HW2 7356   0.173   6.171   1.762
 2453WAT     OW 7357   5.129   3.333   0.422
 2453WAT    HW1 7358   5.199   3.308   0.361
 2453WAT    HW2 7359   5.079   3.400   0.376
 2454WAT     OW 7360   5.073   6.696   6.437
 2454WAT    HW1 7361   5.103   6.693   6.346
 2454WAT    HW2 7362   5.000   6.758   6.436
 2455WAT     OW 7363   3.083   3.289   5.146
 2455WAT    HW1 7364   3.138   3.313   5.071
 2455WAT    HW2 7365   3.145   3.253   5.210
 2456WAT     OW 7366   6.443   6.368   0.373
 2456WAT    HW1 7367   6.424   6.368   0.467
 2456WAT    HW2 7368   6.382   6.304   0.336
 2457WAT     OW 7369   0.423   5.635   4.599
 2457WAT    HW1 7370   0.406   5.672   4.686
 2457WAT    HW2 7371   0.453   5.709   4.547
 2458WAT     OW 7372   0.682   0.593   3.841
 2458WAT    HW1 7373   0.721   0.562   3.922
 2458WAT    HW2 7374   0.633   0.518   3.808
 2459WAT     OW 7375   1.651   0.879   4.976
 2459WAT    HW1 7376   1.712   0.855   4.906
 2459WAT    HW2 7377   1.673   0.820   5.048
 2460WAT     OW 7378   3.493   4.805   2.758
 2460WAT    HW1 7379   3.421   4.763   2.711
 2460WAT    HW2 7380   3.459   4.820   2.846
 2461WAT     OW 7381   3.446   5.250   3.862
 2461WAT    HW1 7382   3.495   5.217   3.938
 2461WAT    HW2 7383   3.474   5.193   3.789
 2462WAT     OW 7384   1.869   5.422   6.154
 2462WAT    HW1 7385   1.857   5.481   6.229
 2462WAT    HW2 7386   1.862   5.479   6.077
 2463WAT     OW 7387   6.722   6.665   0.626
 2463WAT    HW1 7388   6.662   6.647   0.554
 2463WAT    HW2 7389   6.701   6.755   0.652
 2464WAT     OW 7390   0.245   5.473   3.922
 2464WAT    HW1 7391   0.340   5.470   3.917
 2464WAT    HW2 7392   0.226   5.532   3.995
 2465WAT     OW 7393   4.608   6.710   6.098
 2465WAT    HW1 7394   4.576   6.782   6.153
 2465WAT    HW2 7395   4.563   6.722   6.015
 2466WAT     OW 7396   3.541   6.688   1.346
 2466WAT    HW1 7397   3.565   6.764   1.294
 2466WAT    HW2 7398   3.471   6.719   1.403
 2467WAT     OW 7399   3.378   3.188   0.173
 2467WAT    HW1 7400   3.431   3.221   0.101
 2467WAT    HW2 7401   3.354   3.099   0.148
 2468WAT     OW 7402   6.345   4.806   1.708
 2468WAT    HW1 7403   6.337   4.801   1.803
 2468WAT    HW2 7404   6.313   4.722   1.677
 2469WAT     OW 7405   2.081   1.588   5.190
 2469WAT    HW1 7406   2.094   1.493   5.189
 2469WAT    HW2 7407   2.021   1.604   5.263
 2470WAT     OW 7408   6.249   1.418   4.681
 2470WAT    HW1 7409   6.305   1.442   4.607
 2470WAT    HW2 7410   6.306   1.425   4.758
 2471WAT     OW 7411   2.846   6.460   6.674
 2471WAT    HW1 7412   2.910   6.406   6.628
 2471WAT    HW2 7413   2.820   6.407   6.750
 2472WAT     OW 7414   3.592   5.320   1.839
 2472WAT    HW1 7415   3.507   5.327   1.796
 2472WAT    HW2 7416   3.632   5.406   1.827
 2473WAT     OW 7417   1.057   2.156   2.847
 2473WAT    HW1 7418   1.067   2.085   2.783
 2473WAT    HW2 7419   1.141   2.203   2.843
 2474WAT     OW 7420   2.713   2.882   2.128
 2474WAT    HW1 7421   2.771   2.887   2.052
 2474WAT    HW2 7422   2.771   2.896   2.203
 2475WAT     OW 7423   1.401   1.356   3.977
 2475WAT    HW1 7424   1.459   1.341   4.051
 2475WAT    HW2 7425   1.342   1.280   3.976
 2476WAT     OW 7426   4.241   0.213   6.425
 2476WAT    HW1 7427   4.256   0.306   6.408
 2476WAT    HW2 7428   4.211   0.210   6.516
 2477WAT     OW 7429   6.386   1.152   6.220
 2477WAT    HW1 7430   6.460   1.171   6.278
 2477WAT    HW2 7431   6.329   1.096   6.272
 2478WAT     OW 7432   1.915   2.984   5.612
 2478WAT    HW1 7433   1.976   3.058   5.617
 2478WAT    HW2 7434   1.937   2.940   5.530
 2479WAT     OW 7435   0.420   0.570   5.706
 2479WAT    HW1 7436   0.412   0.498   5.769
 2479WAT    HW2 7437   0.379   0.537   5.627
 2480WAT     OW 7438   2.875   1.141   2.864
 2480WAT    HW1 7439   2.829   1.203   2.808
 2480WAT    HW2 7440   2.847   1.163   2.953
 2481WAT     OW 7441   4.242   3.995   3.643
 2481WAT    HW1 7442   4.155   4.004   3.682
 2481WAT    HW2 7443   4.298   3.968   3.715
 2482WAT     OW 7444   4.283   5.002   1.441
 2482WAT    HW1 7445   4.341   4.933   1.473
 2482WAT    HW2 7446   4.301   5.006   1.347
 2483WAT     OW 7447   6.115   1.486   5.041
 2483WAT    HW1 7448   6.048   1.460   4.979
 2483WAT    HW2 7449   6.132   1.408   5.094
 2484WAT     OW 7450   1.241   1.022   1.297
 2484WAT    HW1 7451   1.243   1.085   1.368
 2484WAT    HW2 7452   1.248   0.937   1.341
 2485WAT     OW 7453   6.508   2.605   1.957
 2485WAT    HW1 7454   6.484   2.598   1.865
 2485WAT    HW2 7455   6.504   2.515   1.990
 2486WAT     OW 7456   6.402   6.691   0.044
 2486WAT    HW1 7457   6.488   6.698   0.087
 2486WAT    HW2 7458   6.341   6.732   0.105
 2487WAT     OW 7459   4.454   4.683   1.916
 2487WAT    HW1 7460   4.459   4.680   2.012
 2487WAT    HW2 7461   4.442   4.775   1.895
 2488WAT     OW 7462   6.444   6.711   1.112
 2488WAT    HW1 7463   6.512   6.771   1.139
 2488WAT    HW2 7464   6.362   6.753   1.137
 2489WAT     OW 7465   1.863   3.699   1.764
 2489WAT    HW1 7466   1.895   3.616   1.801
 2489WAT    HW2 7467   1.787   3.720   1.817
 2490WAT     OW 7468   0.958   4.914   5.048
 2490WAT    HW1 7469   1.019   4.863   5.102
 2490WAT    HW2 7470   0.923   4.851   4.985
 2491WAT     OW 7471   4.069   0.903   1.455
 2491WAT    HW1 7472   4.058   0.816   1.493
 2491WAT    HW2 7473   3.997   0.911   1.392
 2492WAT     OW 7474   6.287   4.241   6.188
 2492WAT    HW1 7475   6.194   4.224   6.208
 2492WAT    HW2 7476   6.316   4.300   6.256
 2493WAT     OW 7477   6.032   2.422   4.064
 2493WAT    HW1 7478   6.060   2.468   3.984
 2493WAT    HW2 7479   5.938   2.409   4.052
 2494WAT     OW 7480   0.322   6.088   0.034
 2494WAT    HW1 7481   0.363   6.142  -0.033
 2494WAT    HW2 7482   0.231   6.080   0.005
 2495WAT     OW 7483   0.023   1.682   3.404
 2495WAT    HW1 7484  -0.006   1.601   3.446
 2495WAT    HW2 7485   0.104   1.705   3.450
 2496WAT     OW 7486   5.233   2.941   2.887
 2496WAT    HW1 7487   5.251   3.023   2.933
 2496WAT    HW2 7488   5.156   2.959   2.834
 2497WAT     OW 7489   3.921   0.337   4.420
 2497WAT    HW1 7490   3.972   0.383   4.355
 2497WAT    HW2 7491   3.831   0.369   4.407
 2498WAT     OW 7492   4.242   6.170   6.074
 2498WAT    HW1 7493   4.211   6.091   6.029
 2498WAT    HW2 7494   4.215   6.242   6.017
 2499WAT     OW 7495   4.986   0.077   2.216
 2499WAT    HW1 7496   5.026  -0.007   2.194
 2499WAT    HW2 7497   4.893   0.065   2.197
 2500WAT     OW 7498   5.722   3.186   5.451
 2500WAT    HW1 7499   5.714   3.152   5.540
 2500WAT    HW2 7500   5.635   3.221   5.432
 2501WAT     OW 7501   0.712   6.497   3.746
 2501WAT    HW1 7502   0.675   6.445   3.817
 2501WAT    HW2 7503   0.788   6.541   3.786
 2502WAT     OW 7504   2.493   1.549   1.728
 2502WAT    HW1 7505   2.473   1.520   1.639
 2502WAT    HW2 7506   2.494   1.645   1.723
 2503WAT     OW 7507   5.395   1.508   4.424
 2503WAT    HW1 7508   5.402   1.512   4.329
 2503WAT    HW2 7509   5.471   1.557   4.456
 2504WAT     OW 7510   2.376   4.385   0.579
 2504WAT    HW1 7511   2.295   4.376   0.630
 2504WAT    HW2 7512   2.352   4.439   0.504
 2505WAT     OW 7513   3.286   6.025   5.104
 2505WAT    HW1 7514   3.249   6.113   5.114
 2505WAT    HW2 7515   3.331   6.009   5.187
 2506WAT     OW 7516   3.454   4.500   5.376
 2506WAT    HW1 7517   3.427   4.576   5.429
 2506WAT    HW2 7518   3.386   4.435   5.392
 2507WAT     OW 7519   2.124   4.548   3.853
 2507WAT    HW1 7520   2.162   4.624   3.809
 2507WAT    HW2 7521   2.066   4.509   3.788
 2508WAT     OW 7522   3.886   2.739   5.377
 2508WAT    HW1 7523   3.833   2.689   5.316
 2508WAT    HW2 7524   3.823   2.777   5.438
 2509WAT     OW 7525   2.994   6.694   5.607
 2509WAT    HW1 7526   3.055   6.708   5.535
 2509WAT    HW2 7527   3.049   6.663   5.679
 2510WAT     OW 7528   4.200   2.434   5.841
 2510WAT    HW1 7529   4.120   2.484   5.824
 2510WAT    HW2 7530   4.213   2.381   5.762
 2511WAT     OW 7531   1.195   2.437   6.230
 2511WAT    HW1 7532   1.167   2.464   6.318
 2511WAT    HW2 7533   1.190   2.342   6.231
 2512WAT     OW 7534   1.480   4.111   5.119
 2512WAT    HW1 7535   1.498   4.118   5.025
 2512WAT    HW2 7536   1.510   4.195   5.155
 2513WAT     OW 7537   3.325   5.515   5.233
 2513WAT    HW1 7538   3.368   5.588   5.277
 2513WAT    HW2 7539   3.244   5.553   5.199
 2514WAT     OW 7540   3.166   5.231   3.897
 2514WAT    HW1 7541   3.173   5.143   3.936
 2514WAT    HW2 7542   3.257   5.255   3.878
 2515WAT     OW 7543   2.158   3.631   6.054
 2515WAT    HW1 7544   2.116   3.546   6.038
 2515WAT    HW2 7545   2.096   3.677   6.111
 2516WAT     OW 7546   3.095   5.589   5.100
 2516WAT    HW1 7547   3.083   5.683   5.113
 2516WAT    HW2 7548   3.007   5.553   5.099
 2517WAT     OW 7549   2.111   1.535   4.073
 2517WAT    HW1 7550   2.063   1.570   4.148
 2517WAT    HW2 7551   2.186   1.595   4.063
 2518WAT     OW 7552   3.012   2.459   5.235
 2518WAT    HW1 7553   2.929   2.414   5.217
 2518WAT    HW2 7554   3.013   2.532   5.172
 2519WAT     OW 7555   2.714   1.606   0.090
 2519WAT    HW1 7556   2.692   1.529   0.143
 2519WAT    HW2 7557   2.802   1.589   0.059
 2520WAT     OW 7558   0.491   2.936   5.272
 2520WAT    HW1 7559   0.534   2.965   5.353
 2520WAT    HW2 7560   0.467   2.845   5.290
 2521WAT     OW 7561   5.596   2.775   5.008
 2521WAT    HW1 7562   5.651   2.850   5.032
 2521WAT    HW2 7563   5.558   2.746   5.091
 2522WAT     OW 7564   0.485   6.100   3.649
 2522WAT    HW1 7565   0.453   6.138   3.731
 2522WAT    HW2 7566   0.540   6.168   3.610
 2523WAT     OW 7567   2.755   4.827   2.414
 2523WAT    HW1 7568   2.686   4.857   2.355
 2523WAT    HW2 7569   2.837   4.848   2.369
 2524WAT     OW 7570   4.170   6.218   6.330
 2524WAT    HW1 7571   4.238   6.174   6.381
 2524WAT    HW2 7572   4.196   6.203   6.239
 2525WAT     OW 7573   4.018   3.080   1.003
 2525WAT    HW1 7574   4.034   3.083   0.909
 2525WAT    HW2 7575   3.966   3.000   1.016
 2526WAT     OW 7576   5.942   5.926   2.892
 2526WAT    HW1 7577   5.931   5.847   2.945
 2526WAT    HW2 7578   5.874   5.919   2.825
 2527WAT     OW 7579   2.810   6.669   0.574
 2527WAT    HW1 7580   2.868   6.594   0.570
 2527WAT    HW2 7581   2.821   6.704   0.663
 2528WAT     OW 7582   5.288   0.638   0.965
 2528WAT    HW1 7583   5.278   0.545   0.987
 2528WAT    HW2 7584   5.201   0.676   0.979
 2529WAT     OW 7585   3.817   5.534   6.476
 2529WAT    HW1 7586   3.870   5.612   6.463
 2529WAT    HW2 7587   3.871   5.477   6.531
 2530WAT     OW 7588   2.529   5.086   4.655
 2530WAT    HW1 7589   2.481   5.165   4.680
 2530WAT    HW2 7590   2.577   5.112   4.576
 2531WAT     OW 7591   4.601   2.856   5.685
 2531WAT    HW1 7592   4.514   2.822   5.664
 2531WAT    HW2 7593   4.591   2.951   5.684
 2532WAT     OW 7594   5.472   5.604   3.928
 2532WAT    HW1 7595   5.393   5.603   3.981
 2532WAT    HW2 7596   5.502   5.513   3.928
 2533WAT     OW 7597   3.032   6.722   4.934
 2533WAT    HW1 7598   3.074   6.803   4.905
 2533WAT    HW2 7599   3.013   6.736   5.027
 2534WAT     OW 7600   3.652   2.375   0.150
 2534WAT    HW1 7601   3.744   2.362   0.129
 2534WAT    HW2 7602   3.624   2.294   0.192
 2535WAT     OW 7603   0.308   0.214   2.744
 2535WAT    HW1 7604   0.401   0.210   2.766
 2535WAT    HW2 7605   0.274   0.128   2.771
 2536WAT     OW 7606   3.445   6.424   1.348
 2536WAT    HW1 7607   3.479   6.513   1.345
 2536WAT    HW2 7608   3.523   6.369   1.351
 2537WAT     OW 7609   5.891   5.732   2.246
 2537WAT    HW1 7610   5.887   5.819   2.207
 2537WAT    HW2 7611   5.849   5.741   2.331
 2538WAT     OW 7612   1.381   2.756   1.932
 2538WAT    HW1 7613   1.354   2.845   1.957
 2538WAT    HW2 7614   1.349   2.746   1.842
 2539WAT     OW 7615   6.561   4.669   0.111
 2539WAT    HW1 7616   6.541   4.710   0.195
 2539WAT    HW2 7617   6.504   4.592   0.107
 2540WAT     OW 7618   0.169   6.558   1.403
 2540WAT    HW1 7619   0.143   6.521   1.487
 2540WAT    HW2 7620   0.236   6.498   1.370
 2541WAT     OW 7621   5.137   3.068   3.725
 2541WAT    HW1 7622   5.089   2.985   3.725
 2541WAT    HW2 7623   5.069   3.135   3.726
 2542WAT     OW 7624   3.847   3.237   6.314
 2542WAT    HW1 7625   3.921   3.276   6.267
 2542WAT    HW2 7626   3.886   3.195   6.390
 2543WAT     OW 7627   0.631   0.347   5.484
 2543WAT    HW1 7628   0.565   0.293   5.526
 2543WAT    HW2 7629   0.714   0.304   5.505
 2544WAT     OW 7630   4.090   0.309   5.459
 2544WAT    HW1 7631   4.137   0.253   5.397
 2544WAT    HW2 7632   4.030   0.250   5.504
 2545WAT     OW 7633   5.892   5.404   0.963
 2545WAT    HW1 7634   5.848   5.321   0.943
 2545WAT    HW2 7635   5.976   5.398   0.918
 2546WAT     OW 7636   2.604   4.554   5.251
 2546WAT    HW1 7637   2.581   4.602   5.171
 2546WAT    HW2 7638   2.699   4.566   5.259
 2547WAT     OW 7639   4.762   2.625   1.261
 2547WAT    HW1 7640   4.672   2.643   1.235
 2547WAT    HW2 7641   4.799   2.575   1.188
 2548WAT     OW 7642   4.962   0.792   6.236
 2548WAT    HW1 7643   5.045   0.770   6.195
 2548WAT    HW2 7644   4.956   0.887   6.229
 2549WAT     OW 7645   6.626   5.352   4.178
 2549WAT    HW1 7646   6.673   5.347   4.095
 2549WAT    HW2 7647   6.545   5.302   4.162
 2550WAT     OW 7648   5.397   6.374   4.596
 2550WAT    HW1 7649   5.356   6.461   4.601
 2550WAT    HW2 7650   5.324   6.313   4.606
 2551WAT     OW 7651   2.048   2.792   1.198
 2551WAT    HW1 7652   2.124   2.834   1.239
 2551WAT    HW2 7653   1.974   2.849   1.219
 2552WAT     OW 7654   4.052   2.749   4.210
 2552WAT    HW1 7655   4.103   2.806   4.266
 2552WAT    HW2 7656   4.010   2.808   4.147
 2553WAT     OW 7657   0.423   2.634   6.239
 2553WAT    HW1 7658   0.441   2.540   6.242
 2553WAT    HW2 7659   0.362   2.649   6.311
 2554WAT     OW 7660   2.857   0.908   1.396
 2554WAT    HW1 7661   2.928   0.966   1.371
 2554WAT    HW2 7662   2.842   0.854   1.319
 2555WAT     OW 7663   1.218   2.951   0.781
 2555WAT    HW1 7664   1.221   2.889   0.854
 2555WAT    HW2 7665   1.278   3.021   0.807
 2556WAT     OW 7666   5.258   1.032   0.319
 2556WAT    HW1 7667   5.284   1.002   0.232
 2556WAT    HW2 7668   5.336   1.021   0.373
 2557WAT     OW 7669   5.214   0.300   3.604
 2557WAT    HW1 7670   5.172   0.334   3.525
 2557WAT    HW2 7671   5.241   0.379   3.652
 2558WAT     OW 7672   0.760   0.732   1.832
 2558WAT    HW1 7673   0.804   0.798   1.779
 2558WAT    HW2 7674   0.757   0.654   1.776
 2559WAT     OW 7675   0.755   4.044   4.788
 2559WAT    HW1 7676   0.709   4.087   4.859
 2559WAT    HW2 7677   0.725   4.089   4.709
 2560WAT     OW 7678   4.387   5.314   1.628
 2560WAT    HW1 7679   4.480   5.296   1.613
 2560WAT    HW2 7680   4.359   5.362   1.551
 2561WAT     OW 7681   6.421   2.304   3.556
 2561WAT    HW1 7682   6.417   2.392   3.517
 2561WAT    HW2 7683   6.398   2.318   3.648
 2562WAT     OW 7684   3.438   2.502   5.264
 2562WAT    HW1 7685   3.367   2.447   5.231
 2562WAT    HW2 7686   3.394   2.576   5.305
 2563WAT     OW 7687   1.188   5.192   0.730
 2563WAT    HW1 7688   1.247   5.262   0.759
 2563WAT    HW2 7689   1.244   5.117   0.716
 2564WAT     OW 7690   3.634   2.780   1.794
 2564WAT    HW1 7691   3.645   2.875   1.789
 2564WAT    HW2 7692   3.671   2.747   1.712
 2565WAT     OW 7693   0.090   3.800   3.352
 2565WAT    HW1 7694   0.144   3.722   3.369
 2565WAT    HW2 7695   0.042   3.813   3.434
 2566WAT     OW 7696   5.328   4.774   6.403
 2566WAT    HW1 7697   5.315   4.708   6.471
 2566WAT    HW2 7698   5.377   4.728   6.334
 2567WAT     OW 7699   6.560   2.199   3.343
 2567WAT    HW1 7700   6.521   2.224   3.427
 2567WAT    HW2 7701   6.591   2.109   3.358
 2568WAT     OW 7702   6.315   6.429   0.035
 2568WAT    HW1 7703   6.293   6.409  -0.056
 2568WAT    HW2 7704   6.350   6.518   0.032
 2569WAT     OW 7705   5.082   1.125   3.539
 2569WAT    HW1 7706   5.038   1.091   3.617
 2569WAT    HW2 7707   5.107   1.047   3.490
 2570WAT     OW 7708   3.366   1.656   1.595
 2570WAT    HW1 7709   3.381   1.689   1.683
 2570WAT    HW2 7710   3.426   1.582   1.586
 2571WAT     OW 7711   5.329   0.736   4.338
 2571WAT    HW1 7712   5.310   0.648   4.305
 2571WAT    HW2 7713   5.259   0.791   4.301
 2572WAT     OW 7714   5.214   6.326   1.807
 2572WAT    HW1 7715   5.126   6.344   1.842
 2572WAT    HW2 7716   5.201   6.314   1.713
 2573WAT     OW 7717   2.251   1.733   1.934
 2573WAT    HW1 7718   2.323   1.685   1.976
 2573WAT    HW2 7719   2.182   1.735   2.001
 2574WAT     OW 7720   0.119   4.306   2.909
 2574WAT    HW1 7721   0.127   4.227   2.855
 2574WAT    HW2 7722   0.133   4.378   2.849
 2575WAT     OW 7723   1.375   6.136   0.408
 2575WAT    HW1 7724   1.384   6.139   0.504
 2575WAT    HW2 7725   1.333   6.052   0.391
 2576WAT     OW 7726   4.956   1.053   2.935
 2576WAT    HW1 7727   4.942   1.104   2.855
 2576WAT    HW2 7728   4.996   0.971   2.904
 2577WAT     OW 7729   5.452   1.217   6.274
 2577WAT    HW1 7730   5.393   1.147   6.303
 2577WAT    HW2 7731   5.395   1.291   6.255
 2578WAT     OW 7732   5.518   5.359   4.748
 2578WAT    HW1 7733   5.601   5.362   4.795
 2578WAT    HW2 7734   5.539   5.388   4.660
 2579WAT     OW 7735   6.251   5.576   4.469
 2579WAT    HW1 7736   6.267   5.667   4.495
 2579WAT    HW2 7737   6.250   5.579   4.373
 2580WAT     OW 7738   6.340   6.632   1.992
 2580WAT    HW1 7739   6.262   6.616   1.938
 2580WAT    HW2 7740   6.406   6.571   1.958
 2581WAT     OW 7741   3.105   4.805   5.110
 2581WAT    HW1 7742   3.081   4.714   5.094
 2581WAT    HW2 7743   3.051   4.855   5.048
 2582WAT     OW 7744   4.299   4.659   3.771
 2582WAT    HW1 7745   4.287   4.665   3.676
 2582WAT    HW2 7746   4.374   4.715   3.789
 2583WAT     OW 7747   6.535   2.881   0.481
 2583WAT    HW1 7748   6.547   2.970   0.513
 2583WAT    HW2 7749   6.474   2.890   0.407
 2584WAT     OW 7750   4.977   6.223   4.278
 2584WAT    HW1 7751   4.977   6.318   4.279
 2584WAT    HW2 7752   5.070   6.199   4.281
 2585WAT     OW 7753   5.195   4.240   2.797
 2585WAT    HW1 7754   5.226   4.319   2.843
 2585WAT    HW2 7755   5.156   4.272   2.716
 2586WAT     OW 7756   4.550   6.547   4.582
 2586WAT    HW1 7757   4.603   6.625   4.599
 2586WAT    HW2 7758   4.562   6.493   4.660
 2587WAT     OW 7759   0.885   0.606   2.299
 2587WAT    HW1 7760   0.962   0.549   2.308
 2587WAT    HW2 7761   0.822   0.553   2.251
 2588WAT     OW 7762   6.584   0.550   2.558
 2588WAT    HW1 7763   6.517   0.612   2.588
 2588WAT    HW2 7764   6.667   0.592   2.579
 2589WAT     OW 7765   3.435   2.568   6.146
 2589WAT    HW1 7766   3.499   2.620   6.099
 2589WAT    HW2 7767   3.481   2.486   6.166
 2590WAT     OW 7768   3.234   3.647   1.016
 2590WAT    HW1 7769   3.152   3.640   1.065
 2590WAT    HW2 7770   3.277   3.725   1.053
 2591WAT     OW 7771   4.667   3.777   2.187
 2591WAT    HW1 7772   4.657   3.682   2.189
 2591WAT    HW2 7773   4.581   3.809   2.157
 2592WAT     OW 7774   4.392   2.244   1.146
 2592WAT    HW1 7775   4.486   2.230   1.150
 2592WAT    HW2 7776   4.369   2.282   1.231
 2593WAT     OW 7777   2.365   4.995   0.965
 2593WAT    HW1 7778   2.396   5.052   0.895
 2593WAT    HW2 7779   2.313   5.052   1.021
 2594WAT     OW 7780   6.043   4.482   0.841
 2594WAT    HW1 7781   6.039   4.578   0.843
 2594WAT    HW2 7782   6.064   4.456   0.930
 2595WAT     OW 7783   1.620   1.976   6.155
 2595WAT    HW1 7784   1.613   2.013   6.067
 2595WAT    HW2 7785   1.686   2.029   6.199
 2596WAT     OW 7786   3.485   5.966   3.705
 2596WAT    HW1 7787   3.497   5.999   3.794
 2596WAT    HW2 7788   3.555   5.902   3.693
 2597WAT     OW 7789   4.981   0.647   5.430
 2597WAT    HW1 7790   4.902   0.594   5.443
 2597WAT    HW2 7791   4.956   0.734   5.463
 2598WAT     OW 7792   1.362   2.408   5.594
 2598WAT    HW1 7793   1.382   2.495   5.560
 2598WAT    HW2 7794   1.427   2.393   5.663
 2599WAT     OW 7795   4.898   0.137   1.796
 2599WAT    HW1 7796   4.884   0.060   1.852
 2599WAT    HW2 7797   4.977   0.116   1.747
 2600WAT     OW 7798   5.625   6.106   1.305
 2600WAT    HW1 7799   5.706   6.057   1.315
 2600WAT    HW2 7800   5.649   6.197   1.324
 2601WAT     OW 7801   4.258   3.202   3.321
 2601WAT    HW1 7802   4.165   3.185   3.332
 2601WAT    HW2 7803   4.282   3.255   3.397
 2602WAT     OW 7804   0.872   2.361   2.844
 2602WAT    HW1 7805   0.944   2.424   2.854
 2602WAT    HW2 7806   0.916   2.276   2.840
 2603WAT     OW 7807   4.653   2.241   0.867
 2603WAT    HW1 7808   4.649   2.216   0.960
 2603WAT    HW2 7809   4.583   2.306   0.857
 2604WAT     OW 7810   0.065   2.209   4.044
 2604WAT    HW1 7811   0.084   2.139   3.981
 2604WAT    HW2 7812  -0.010   2.255   4.006
 2605WAT     OW 7813   5.360   1.779   0.791
 2605WAT    HW1 7814   5.291   1.751   0.731
 2605WAT    HW2 7815   5.317   1.842   0.849
 2606WAT     OW 7816   5.882   1.481   1.284
 2606WAT    HW1 7817   5.892   1.570   1.250
 2606WAT    HW2 7818   5.960   1.467   1.337
 2607WAT     OW 7819   3.120   2.639   2.971
 2607WAT    HW1 7820   3.210   2.667   2.989
 2607WAT    HW2 7821   3.128   2.545   2.952
 2608WAT     OW 7822   4.114   4.662   0.289
 2608WAT    HW1 7823   4.176   4.714   0.238
 2608WAT    HW2 7824   4.094   4.717   0.365
 2609WAT     OW 7825   5.698   3.429   2.656
 2609WAT    HW1 7826   5.779   3.386   2.685
 2609WAT    HW2 7827   5.654   3.363   2.602
 2610WAT     OW 7828   4.928   2.486   1.071
 2610WAT    HW1 7829   5.013   2.529   1.066
 2610WAT    HW2 7830   4.913   2.452   0.982
 2611WAT     OW 7831   3.859   2.503   6.589
 2611WAT    HW1 7832   3.858   2.532   6.680
 2611WAT    HW2 7833   3.946   2.528   6.557
 2612WAT     OW 7834   4.594   4.200   5.540
 2612WAT    HW1 7835   4.536   4.256   5.591
 2612WAT    HW2 7836   4.679   4.245   5.542
 2613WAT     OW 7837   1.594   1.065   2.462
 2613WAT    HW1 7838   1.606   1.133   2.395
 2613WAT    HW2 7839   1.666   1.079   2.523
 2614WAT     OW 7840   0.892   3.726   1.769
 2614WAT    HW1 7841   0.943   3.772   1.837
 2614WAT    HW2 7842   0.909   3.776   1.689
 2615WAT     OW 7843   1.656   0.459   0.110
 2615WAT    HW1 7844   1.751   0.448   0.111
 2615WAT    HW2 7845   1.626   0.415   0.190
 2616WAT     OW 7846   4.532   0.333   5.045
 2616WAT    HW1 7847   4.470   0.366   5.110
 2616WAT    HW2 7848   4.616   0.369   5.071
 2617WAT     OW 7849   3.683   0.929   5.465
 2617WAT    HW1 7850   3.683   0.970   5.551
 2617WAT    HW2 7851   3.661   1.000   5.404
 2618WAT     OW 7852   1.956   5.845   4.010
 2618WAT    HW1 7853   1.915   5.783   4.070
 2618WAT    HW2 7854   1.882   5.890   3.968
 2619WAT     OW 7855   3.904   2.780   4.629
 2619WAT    HW1 7856   3.916   2.872   4.609
 2619WAT    HW2 7857   3.895   2.737   4.544
 2620WAT     OW 7858   4.903   5.609   1.672
 2620WAT    HW1 7859   4.846   5.542   1.708
 2620WAT    HW2 7860   4.844   5.670   1.628
 2621WAT     OW 7861   4.278   6.512   4.564
 2621WAT    HW1 7862   4.372   6.530   4.569
 2621WAT    HW2 7863   4.272   6.417   4.559
 2622WAT     OW 7864   2.614   2.626   5.048
 2622WAT    HW1 7865   2.640   2.623   5.140
 2622WAT    HW2 7866   2.694   2.601   5.000
 2623WAT     OW 7867   6.112   0.357   1.224
 2623WAT    HW1 7868   6.114   0.416   1.300
 2623WAT    HW2 7869   6.019   0.335   1.214
 2624WAT     OW 7870   2.113   3.804   4.823
 2624WAT    HW1 7871   2.174   3.784   4.894
 2624WAT    HW2 7872   2.035   3.837   4.867
 2625WAT     OW 7873   5.640   5.818   4.959
 2625WAT    HW1 7874   5.717   5.787   4.912
 2625WAT    HW2 7875   5.648   5.779   5.046
 2626WAT     OW 7876   2.412   2.778   3.223
 2626WAT    HW1 7877   2.346   2.840   3.191
 2626WAT    HW2 7878   2.443   2.817   3.305
 2627WAT     OW 7879   1.778   5.547   1.609
 2627WAT    HW1 7880   1.708   5.598   1.568
 2627WAT    HW2 7881   1.817   5.607   1.672
 2628WAT     OW 7882   2.942   5.926   4.230
 2628WAT    HW1 7883   2.962   6.019   4.240
 2628WAT    HW2 7884   3.025   5.882   4.249
 2629WAT     OW 7885   1.022   2.599   2.176
 2629WAT    HW1 7886   1.028   2.529   2.112
 2629WAT    HW2 7887   1.112   2.630   2.187
 2630WAT     OW 7888   3.946   5.063   1.774
 2630WAT    HW1 7889   3.935   5.106   1.859
 2630WAT    HW2 7890   4.038   5.079   1.751
 2631WAT     OW 7891   3.558   4.208   6.364
 2631WAT    HW1 7892   3.646   4.221   6.399
 2631WAT    HW2 7893   3.569   4.141   6.296
 2632WAT     OW 7894   5.694   3.078   0.940
 2632WAT    HW1 7895   5.621   3.031   0.902
 2632WAT    HW2 7896   5.771   3.026   0.919
 2633WAT     OW 7897   2.992   2.423   4.115
 2633WAT    HW1 7898   3.069   2.475   4.094
 2633WAT    HW2 7899   2.956   2.399   4.029
 2634WAT     OW 7900   5.671   5.053   0.460
 2634WAT    HW1 7901   5.666   5.133   0.408
 2634WAT    HW2 7902   5.604   4.996   0.422
 2635WAT     OW 7903   4.635   1.579   3.716
 2635WAT    HW1 7904   4.567   1.644   3.696
 2635WAT    HW2 7905   4.705   1.599   3.653
 2636WAT     OW 7906   6.061   0.045   5.576
 2636WAT    HW1 7907   5.991   0.109   5.584
 2636WAT    HW2 7908   6.033  -0.014   5.507
 2637WAT     OW 7909   2.257   3.983   6.246
 2637WAT    HW1 7910   2.327   3.964   6.184
 2637WAT    HW2 7911   2.255   3.908   6.305
 2638WAT     OW 7912   1.762   0.780   5.513
 2638WAT    HW1 7913   1.806   0.741   5.589
 2638WAT    HW2 7914   1.692   0.718   5.492
 2639WAT     OW 7915   0.912   1.262   0.793
 2639WAT    HW1 7916   0.843   1.208   0.831
 2639WAT    HW2 7917   0.872   1.302   0.716
 2640WAT     OW 7918   4.899   0.885   5.550
 2640WAT    HW1 7919   4.922   0.971   5.515
 2640WAT    HW2 7920   4.923   0.890   5.643
 2641WAT     OW 7921   5.210   0.152   4.685
 2641WAT    HW1 7922   5.241   0.242   4.681
 2641WAT    HW2 7923   5.118   0.157   4.658
 2642WAT     OW 7924   2.297   1.680   5.593
 2642WAT    HW1 7925   2.339   1.603   5.556
 2642WAT    HW2 7926   2.360   1.715   5.656
 2643WAT     OW 7927   6.211   2.395   2.355
 2643WAT    HW1 7928   6.154   2.464   2.322
 2643WAT    HW2 7929   6.189   2.319   2.302
 2644WAT     OW 7930   6.291   4.191   5.908
 2644WAT    HW1 7931   6.303   4.225   5.996
 2644WAT    HW2 7932   6.318   4.099   5.914
 2645WAT     OW 7933   3.744   1.729   3.109
 2645WAT    HW1 7934   3.753   1.776   3.192
 2645WAT    HW2 7935   3.788   1.645   3.124
 2646WAT     OW 7936   0.428   2.755   0.594
 2646WAT    HW1 7937   0.438   2.786   0.684
 2646WAT    HW2 7938   0.442   2.833   0.540
 2647WAT     OW 7939   1.821   2.140   6.259
 2647WAT    HW1 7940   1.790   2.228   6.281
 2647WAT    HW2 7941   1.887   2.121   6.326
 2648WAT     OW 7942   5.656   4.999   1.842
 2648WAT    HW1 7943   5.735   5.020   1.792
 2648WAT    HW2 7944   5.584   5.026   1.786
 2649WAT     OW 7945   2.721   2.049   6.171
 2649WAT    HW1 7946   2.708   1.974   6.229
 2649WAT    HW2 7947   2.679   2.023   6.089
 2650WAT     OW 7948   5.619   5.900   2.027
 2650WAT    HW1 7949   5.598   5.903   1.934
 2650WAT    HW2 7950   5.569   5.826   2.061
 2651WAT     OW 7951   1.200   4.964   3.430
 2651WAT    HW1 7952   1.122   5.016   3.448
 2651WAT    HW2 7953   1.205   4.902   3.503
 2652WAT     OW 7954   3.804   6.408   6.166
 2652WAT    HW1 7955   3.888   6.439   6.200
 2652WAT    HW2 7956   3.812   6.313   6.167
 2653WAT     OW 7957   1.578   0.345   0.350
 2653WAT    HW1 7958   1.489   0.335   0.385
 2653WAT    HW2 7959   1.625   0.394   0.418
 2654WAT     OW 7960   0.849   1.701   2.875
 2654WAT    HW1 7961   0.779   1.640   2.898
 2654WAT    HW2 7962   0.859   1.692   2.780
 2655WAT     OW 7963   5.114   2.488   1.360
 2655WAT    HW1 7964   5.206   2.496   1.337
 2655WAT    HW2 7965   5.076   2.573   1.335
 2656WAT     OW 7966   5.852   6.640   4.362
 2656WAT    HW1 7967   5.861   6.734   4.347
 2656WAT    HW2 7968   5.778   6.613   4.308
 2657WAT     OW 7969   6.543   4.872   2.337
 2657WAT    HW1 7970   6.479   4.800   2.331
 2657WAT    HW2 7971   6.628   4.830   2.323
 2658WAT     OW 7972   1.442   4.063   0.808
 2658WAT    HW1 7973   1.455   4.156   0.789
 2658WAT    HW2 7974   1.371   4.037   0.749
 2659WAT     OW 7975   5.667   5.475   2.588
 2659WAT    HW1 7976   5.599   5.448   2.649
 2659WAT    HW2 7977   5.729   5.524   2.641
 2660WAT     OW 7978   0.312   3.534   5.431
 2660WAT    HW1 7979   0.335   3.595   5.501
 2660WAT    HW2 7980   0.383   3.469   5.432
 2661WAT     OW 7981   0.843   3.328   0.732
 2661WAT    HW1 7982   0.768   3.366   0.686
 2661WAT    HW2 7983   0.823   3.235   0.736
 2662WAT     OW 7984   4.115   5.698   0.128
 2662WAT    HW1 7985   4.151   5.630   0.071
 2662WAT    HW2 7986   4.085   5.767   0.068
 2663WAT     OW 7987   6.642   3.723   0.959
 2663WAT    HW1 7988   6.707   3.738   0.890
 2663WAT    HW2 7989   6.582   3.658   0.921
 2664WAT     OW 7990   3.615   4.015   0.571
 2664WAT    HW1 7991   3.605   4.036   0.478
 2664WAT    HW2 7992   3.686   3.951   0.573
 2665WAT     OW 7993   5.193   3.767   3.542
 2665WAT    HW1 7994   5.123   3.781   3.479
 2665WAT    HW2 7995   5.219   3.855   3.569
 2666WAT     OW 7996   1.340   1.923   0.549
 2666WAT    HW1 7997   1.331   2.018   0.559
 2666WAT    HW2 7998   1.257   1.895   0.510
 2667WAT     OW 7999   2.351   6.576   0.540
 2667WAT    HW1 8000   2.439   6.579   0.504
 2667WAT    HW2 8001   2.330   6.667   0.561
 2668WAT     OW 8002   4.791   6.602   3.818
 2668WAT    HW1 8003   4.874   6.631   3.855
 2668WAT    HW2 8004   4.773   6.519   3.862
 2669WAT     OW 8005   4.268   5.398   5.847
 2669WAT    HW1 8006   4.345   5.419   5.898
 2669WAT    HW2 8007   4.238   5.482   5.812
 2670WAT     OW 8008   4.301   2.013   0.843
 2670WAT    HW1 8009   4.396   2.009   0.852
 2670WAT    HW2 8010   4.278   2.100   0.875
 2671WAT     OW 8011   4.995   0.832   2.694
 2671WAT    HW1 8012   4.912   0.873   2.670
 2671WAT    HW2 8013   4.974   0.779   2.771
 2672WAT     OW 8014   0.789   2.653   1.861
 2672WAT    HW1 8015   0.835   2.609   1.790
 2672WAT    HW2 8016   0.696   2.645   1.838
 2673WAT     OW 8017   0.247   2.710   3.437
 2673WAT    HW1 8018   0.157   2.678   3.442
 2673WAT    HW2 8019   0.249   2.765   3.359
 2674WAT     OW 8020   0.836   6.353   1.582
 2674WAT    HW1 8021   0.840   6.344   1.677
 2674WAT    HW2 8022   0.924   6.330   1.552
 2675WAT     OW 8023   6.076   3.704   6.076
 2675WAT    HW1 8024   6.024   3.626   6.095
 2675WAT    HW2 8025   6.077   3.709   5.981
 2676WAT     OW 8026   3.268   6.525   5.243
 2676WAT    HW1 8027   3.360   6.499   5.254
 2676WAT    HW2 8028   3.259   6.545   5.150
 2677WAT     OW 8029   5.321   5.044   3.370
 2677WAT    HW1 8030   5.270   4.964   3.361
 2677WAT    HW2 8031   5.295   5.080   3.455
 2678WAT     OW 8032   0.442   6.492   1.073
 2678WAT    HW1 8033   0.368   6.542   1.038
 2678WAT    HW2 8034   0.500   6.559   1.110
 2679WAT     OW 8035   2.976   2.870   3.359
 2679WAT    HW1 8036   2.988   2.816   3.437
 2679WAT    HW2 8037   2.958   2.807   3.289
 2680WAT     OW 8038   2.538   1.809   4.458
 2680WAT    HW1 8039   2.455   1.826   4.503
 2680WAT    HW2 8040   2.568   1.726   4.494
 2681WAT     OW 8041   0.124   1.993   1.698
 2681WAT    HW1 8042   0.195   2.039   1.652
 2681WAT    HW2 8043   0.167   1.950   1.771
 2682WAT     OW 8044   0.249   2.977   3.842
 2682WAT    HW1 8045   0.195   2.999   3.918
 2682WAT    HW2 8046   0.338   2.971   3.877
 2683WAT     OW 8047   3.391   2.938   4.012
 2683WAT    HW1 8048   3.417   2.974   4.097
 2683WAT    HW2 8049   3.306   2.897   4.029
 2684WAT     OW 8050   2.757   2.256   5.747
 2684WAT    HW1 8051   2.713   2.340   5.753
 2684WAT    HW2 8052   2.689   2.195   5.719
 2685WAT     OW 8053   3.976   4.229   3.349
 2685WAT    HW1 8054   4.038   4.286   3.393
 2685WAT    HW2 8055   3.946   4.280   3.274
 2686WAT     OW 8056   6.593   4.692   5.204
 2686WAT    HW1 8057   6.676   4.738   5.219
 2686WAT    HW2 8058   6.615   4.600   5.219
 2687WAT     OW 8059   3.406   4.081   5.373
 2687WAT    HW1 8060   3.345   4.152   5.356
 2687WAT    HW2 8061   3.351   4.005   5.391
 2688WAT     OW 8062   3.807   0.263   1.810
 2688WAT    HW1 8063   3.825   0.347   1.852
 2688WAT    HW2 8064   3.821   0.198   1.879
 2689WAT     OW 8065   0.899   0.182   1.393
 2689WAT    HW1 8066   0.813   0.212   1.424
 2689WAT    HW2 8067   0.916   0.234   1.315
 2690WAT     OW 8068   5.285   6.614   2.784
 2690WAT    HW1 8069   5.295   6.582   2.694
 2690WAT    HW2 8070   5.218   6.682   2.778
 2691WAT     OW 8071   5.991   5.560   0.081
 2691WAT    HW1 8072   5.919   5.577   0.020
 2691WAT    HW2 8073   6.018   5.647   0.110
 2692WAT     OW 8074   1.960   2.170   0.601
 2692WAT    HW1 8075   1.936   2.226   0.528
 2692WAT    HW2 8076   1.894   2.100   0.601
 2693WAT     OW 8077   0.157   0.687   3.571
 2693WAT    HW1 8078   0.156   0.660   3.479
 2693WAT    HW2 8079   0.190   0.610   3.618
 2694WAT     OW 8080   5.268   0.002   0.404
 2694WAT    HW1 8081   5.226   0.068   0.460
 2694WAT    HW2 8082   5.361   0.020   0.411
 2695WAT     OW 8083   6.130   0.419   5.639
 2695WAT    HW1 8084   6.050   0.369   5.654
 2695WAT    HW2 8085   6.197   0.352   5.622
 2696WAT     OW 8086   5.026   5.977   3.314
 2696WAT    HW1 8087   5.007   6.063   3.278
 2696WAT    HW2 8088   5.085   5.994   3.388
 2697WAT     OW 8089   3.350   3.777   4.725
 2697WAT    HW1 8090   3.257   3.784   4.705
 2697WAT    HW2 8091   3.353   3.760   4.820
 2698WAT     OW 8092   2.542   6.466   5.650
 2698WAT    HW1 8093   2.533   6.371   5.647
 2698WAT    HW2 8094   2.467   6.498   5.599
 2699WAT     OW 8095   5.557   5.296   0.700
 2699WAT    HW1 8096   5.595   5.377   0.734
 2699WAT    HW2 8097   5.587   5.292   0.609
 2700WAT     OW 8098   2.704   0.709   5.985
 2700WAT    HW1 8099   2.689   0.616   5.972
 2700WAT    HW2 8100   2.752   0.714   6.068
 2701WAT     OW 8101   3.569   0.322   4.770
 2701WAT    HW1 8102   3.604   0.236   4.747
 2701WAT    HW2 8103   3.503   0.339   4.702
 2702WAT     OW 8104   5.708   2.491   4.446
 2702WAT    HW1 8105   5.667   2.435   4.381
 2702WAT    HW2 8106   5.802   2.486   4.427
 2703WAT     OW 8107   5.508   4.484   0.105
 2703WAT    HW1 8108   5.415   4.464   0.111
 2703WAT    HW2 8109   5.544   4.416   0.047
 2704WAT     OW 8110   5.964   3.722   1.548
 2704WAT    HW1 8111   6.008   3.750   1.468
 2704WAT    HW2 8112   5.874   3.703   1.521
 2705WAT     OW 8113   2.985   3.473   4.338
 2705WAT    HW1 8114   2.968   3.398   4.281
 2705WAT    HW2 8115   3.005   3.545   4.277
 2706WAT     OW 8116   5.233   0.778   5.813
 2706WAT    HW1 8117   5.289   0.813   5.882
 2706WAT    HW2 8118   5.233   0.683   5.827
 2707WAT     OW 8119   1.174   1.856   4.493
 2707WAT    HW1 8120   1.144   1.765   4.491
 2707WAT    HW2 8121   1.232   1.864   4.417
 2708WAT     OW 8122   6.121   2.537   5.068
 2708WAT    HW1 8123   6.146   2.606   5.006
 2708WAT    HW2 8124   6.034   2.510   5.041
 2709WAT     OW 8125   5.280   0.473   4.270
 2709WAT    HW1 8126   5.339   0.402   4.298
 2709WAT    HW2 8127   5.199   0.456   4.318
 2710WAT     OW 8128   1.417   5.502   1.652
 2710WAT    HW1 8129   1.331   5.542   1.643
 2710WAT    HW2 8130   1.432   5.499   1.747
 2711WAT     OW 8131   3.406   3.828   3.938
 2711WAT    HW1 8132   3.365   3.899   3.889
 2711WAT    HW2 8133   3.439   3.870   4.018
 2712WAT     OW 8134   0.795   3.011   1.446
 2712WAT    HW1 8135   0.711   3.029   1.487
 2712WAT    HW2 8136   0.774   2.991   1.355
 2713WAT     OW 8137   1.066   2.389   1.988
 2713WAT    HW1 8138   1.081   2.353   1.900
 2713WAT    HW2 8139   1.134   2.350   2.042
 2714WAT     OW 8140   5.781   2.949   3.515
 2714WAT    HW1 8141   5.720   2.986   3.579
 2714WAT    HW2 8142   5.834   3.023   3.486
 2715WAT     OW 8143   3.679   1.847   0.069
 2715WAT    HW1 8144   3.607   1.908   0.052
 2715WAT    HW2 8145   3.758   1.902   0.069
 2716WAT     OW 8146   5.977   3.953   2.149
 2716WAT    HW1 8147   5.981   4.004   2.067
 2716WAT    HW2 8148   5.986   4.019   2.218
 2717WAT     OW 8149   2.827   1.454   4.774
 2717WAT    HW1 8150   2.858   1.364   4.763
 2717WAT    HW2 8151   2.869   1.484   4.854
 2718WAT     OW 8152   0.416   4.235   4.799
 2718WAT    HW1 8153   0.424   4.295   4.725
 2718WAT    HW2 8154   0.358   4.165   4.767
 2719WAT     OW 8155   5.876   4.813   3.038
 2719WAT    HW1 8156   5.898   4.728   2.999
 2719WAT    HW2 8157   5.808   4.792   3.102
 2720WAT     OW 8158   1.206   0.832   2.004
 2720WAT    HW1 8159   1.182   0.913   1.960
 2720WAT    HW2 8160   1.144   0.824   2.076
 2721WAT     OW 8161   2.991   6.467   0.582
 2721WAT    HW1 8162   2.966   6.410   0.510
 2721WAT    HW2 8163   2.978   6.414   0.661
 2722WAT     OW 8164   6.509   5.651   2.090
 2722WAT    HW1 8165   6.526   5.744   2.074
 2722WAT    HW2 8166   6.592   5.608   2.068
 2723WAT     OW 8167   4.503   3.068   1.006
 2723WAT    HW1 8168   4.566   3.079   0.935
 2723WAT    HW2 8169   4.553   3.027   1.076
 2724WAT     OW 8170   6.577   2.378   4.885
 2724WAT    HW1 8171   6.558   2.360   4.977
 2724WAT    HW2 8172   6.505   2.433   4.856
 2725WAT     OW 8173   6.245   0.771   2.029
 2725WAT    HW1 8174   6.153   0.745   2.032
 2725WAT    HW2 8175   6.289   0.713   2.092
 2726WAT     OW 8176   5.583   4.976   3.381
 2726WAT    HW1 8177   5.604   4.988   3.474
 2726WAT    HW2 8178   5.490   4.998   3.374
 2727WAT     OW 8179   5.048   6.164   6.217
 2727WAT    HW1 8180   5.087   6.076   6.223
 2727WAT    HW2 8181   4.955   6.150   6.236
 2728WAT     OW 8182   6.188   5.950   6.526
 2728WAT    HW1 8183   6.252   5.961   6.597
 2728WAT    HW2 8184   6.220   5.875   6.476
 2729WAT     OW 8185   5.074   0.257   6.573
 2729WAT    HW1 8186   5.120   0.185   6.618
 2729WAT    HW2 8187   4.987   0.258   6.612
 2730WAT     OW 8188   3.762   5.418   1.243
 2730WAT    HW1 8189   3.680   5.384   1.279
 2730WAT    HW2 8190   3.773   5.372   1.160
 2731WAT     OW 8191   3.554   4.052   6.131
 2731WAT    HW1 8192   3.540   3.961   6.157
 2731WAT    HW2 8193   3.551   4.050   6.036
 2732WAT     OW 8194   5.620   1.751   3.841
 2732WAT    HW1 8195   5.684   1.821   3.855
 2732WAT    HW2 8196   5.634   1.691   3.914
 2733WAT     OW 8197   5.949   5.008   3.218
 2733WAT    HW1 8198   5.947   4.947   3.144
 2733WAT    HW2 8199   5.955   4.952   3.295
 2734WAT     OW 8200   3.963   3.963   6.626
 2734WAT    HW1 8201   3.915   3.960   6.709
 2734WAT    HW2 8202   3.896   3.951   6.559
 2735WAT     OW 8203   3.530   6.398   2.454
 2735WAT    HW1 8204   3.622   6.391   2.480
 2735WAT    HW2 8205   3.487   6.325   2.499
 2736WAT     OW 8206   1.569   4.983   6.151
 2736WAT    HW1 8207   1.585   5.074   6.124
 2736WAT    HW2 8208   1.523   4.944   6.077
 2737WAT     OW 8209   5.503   5.907   2.812
 2737WAT    HW1 8210   5.465   5.864   2.889
 2737WAT    HW2 8211   5.454   5.870   2.738
 2738WAT     OW 8212   0.707   6.174   5.147
 2738WAT    HW1 8213   0.730   6.164   5.055
 2738WAT    HW2 8214   0.708   6.084   5.182
 2739WAT     OW 8215   2.560   5.379   3.975
 2739WAT    HW1 8216   2.510   5.423   3.907
 2739WAT    HW2 8217   2.622   5.323   3.928
 2740WAT     OW 8218   2.295   0.226   6.136
 2740WAT    HW1 8219   2.355   0.228   6.211
 2740WAT    HW2 8220   2.340   0.276   6.068
 2741WAT     OW 8221   3.297   0.865   5.947
 2741WAT    HW1 8222   3.324   0.799   6.011
 2741WAT    HW2 8223   3.305   0.822   5.862
 2742WAT     OW 8224   1.375   4.443   2.646
 2742WAT    HW1 8225   1.459   4.404   2.671
 2742WAT    HW2 8226   1.363   4.416   2.555
 2743WAT     OW 8227   4.209   4.529   4.271
 2743WAT    HW1 8228   4.300   4.511   4.297
 2743WAT    HW2 8229   4.203   4.498   4.181
 2744WAT     OW 8230   5.696   1.217   3.136
 2744WAT    HW1 8231   5.788   1.238   3.116
 2744WAT    HW2 8232   5.666   1.166   3.061
 2745WAT     OW 8233   3.815   4.041   3.476
 2745WAT    HW1 8234   3.858   4.118   3.438
 2745WAT    HW2 8235   3.869   3.967   3.448
 2746WAT     OW 8236   3.597   3.180   0.915
 2746WAT    HW1 8237   3.676   3.224   0.945
 2746WAT    HW2 8238   3.584   3.211   0.826
 2747WAT     OW 8239   3.657   5.633   6.687
 2747WAT    HW1 8240   3.700   5.594   6.610
 2747WAT    HW2 8241   3.632   5.558   6.741
 2748WAT     OW 8242   3.399   0.454   2.166
 2748WAT    HW1 8243   3.429   0.520   2.228
 2748WAT    HW2 8244   3.394   0.501   2.082
 2749WAT     OW 8245   2.979   1.192   1.602
 2749WAT    HW1 8246   2.883   1.185   1.599
 2749WAT    HW2 8247   2.995   1.280   1.636
 2750WAT     OW 8248   1.480   6.193   1.854
 2750WAT    HW1 8249   1.423   6.250   1.904
 2750WAT    HW2 8250   1.536   6.151   1.920
 2751WAT     OW 8251   6.116   3.583   2.418
 2751WAT    HW1 8252   6.145   3.665   2.377
 2751WAT    HW2 8253   6.196   3.543   2.452
 2752WAT     OW 8254   1.757   2.587   0.638
 2752WAT    HW1 8255   1.702   2.664   0.625
 2752WAT    HW2 8256   1.702   2.513   0.612
 2753WAT     OW 8257   6.567   1.341   1.282
 2753WAT    HW1 8258   6.613   1.412   1.327
 2753WAT    HW2 8259   6.631   1.306   1.221
 2754WAT     OW 8260   0.942   2.447   5.332
 2754WAT    HW1 8261   0.948   2.395   5.412
 2754WAT    HW2 8262   0.925   2.384   5.262
 2755WAT     OW 8263   4.679   0.940   0.647
 2755WAT    HW1 8264   4.633   0.973   0.570
 2755WAT    HW2 8265   4.612   0.931   0.714
 2756WAT     OW 8266   4.443   1.620   2.826
 2756WAT    HW1 8267   4.394   1.702   2.819
 2756WAT    HW2 8268   4.393   1.558   2.773
 2757WAT     OW 8269   4.026   6.579   1.904
 2757WAT    HW1 8270   3.968   6.525   1.851
 2757WAT    HW2 8271   4.041   6.528   1.983
 2758WAT     OW 8272   5.370   2.537   1.273
 2758WAT    HW1 8273   5.407   2.607   1.326
 2758WAT    HW2 8274   5.445   2.485   1.245
 2759WAT     OW 8275   5.125   1.017   0.652
 2759WAT    HW1 8276   5.202   0.982   0.608
 2759WAT    HW2 8277   5.124   1.110   0.629
 2760WAT     OW 8278   0.020   3.416   3.127
 2760WAT    HW1 8279   0.003   3.334   3.081
 2760WAT    HW2 8280   0.049   3.389   3.214
 2761WAT     OW 8281   5.757   0.538   2.127
 2761WAT    HW1 8282   5.743   0.554   2.220
 2761WAT    HW2 8283   5.746   0.443   2.117
 2762WAT     OW 8284   3.233   4.552   6.234
 2762WAT    HW1 8285   3.319   4.527   6.268
 2762WAT    HW2 8286   3.247   4.560   6.139
 2763WAT     OW 8287   4.541   4.816   0.822
 2763WAT    HW1 8288   4.466   4.760   0.805
 2763WAT    HW2 8289   4.504   4.904   0.828
 2764WAT     OW 8290   1.300   1.268   1.151
 2764WAT    HW1 8291   1.283   1.182   1.191
 2764WAT    HW2 8292   1.310   1.249   1.057
 2765WAT     OW 8293   5.283   3.985   2.239
 2765WAT    HW1 8294   5.316   3.903   2.274
 2765WAT    HW2 8295   5.254   3.963   2.150
 2766WAT     OW 8296   2.914   1.018   0.988
 2766WAT    HW1 8297   2.886   0.930   0.962
 2766WAT    HW2 8298   2.834   1.061   1.018
 2767WAT     OW 8299   4.331   3.801   1.861
 2767WAT    HW1 8300   4.242   3.834   1.849
 2767WAT    HW2 8301   4.341   3.735   1.793
 2768WAT     OW 8302   5.646   1.651   3.184
 2768WAT    HW1 8303   5.676   1.654   3.275
 2768WAT    HW2 8304   5.726   1.647   3.133
 2769WAT     OW 8305   3.415   0.572   6.715
 2769WAT    HW1 8306   3.378   0.519   6.644
 2769WAT    HW2 8307   3.467   0.639   6.671
 2770WAT     OW 8308   3.020   4.068   0.222
 2770WAT    HW1 8309   3.103   4.024   0.239
 2770WAT    HW2 8310   2.957   4.024   0.280
 2771WAT     OW 8311   2.970   1.539   0.015
 2771WAT    HW1 8312   3.016   1.533  -0.069
 2771WAT    HW2 8313   3.039   1.563   0.078
 2772WAT     OW 8314   4.044   5.795   5.261
 2772WAT    HW1 8315   4.059   5.873   5.206
 2772WAT    HW2 8316   4.123   5.790   5.315
 2773WAT     OW 8317   6.155   4.200   6.491
 2773WAT    HW1 8318   6.180   4.265   6.556
 2773WAT    HW2 8319   6.105   4.250   6.426
 2774WAT     OW 8320   4.026   3.910   1.390
 2774WAT    HW1 8321   4.111   3.878   1.420
 2774WAT    HW2 8322   3.996   3.845   1.326
 2775WAT     OW 8323   3.027   5.939   1.397
 2775WAT    HW1 8324   2.973   5.975   1.467
 2775WAT    HW2 8325   2.981   5.858   1.371
 2776WAT     OW 8326   4.080   4.897   3.792
 2776WAT    HW1 8327   4.057   4.966   3.854
 2776WAT    HW2 8328   4.157   4.932   3.746
 2777WAT     OW 8329   5.774   2.215   4.896
 2777WAT    HW1 8330   5.802   2.190   4.984
 2777WAT    HW2 8331   5.685   2.180   4.888
 2778WAT     OW 8332   5.206   0.691   2.040
 2778WAT    HW1 8333   5.295   0.661   2.019
 2778WAT    HW2 8334   5.148   0.632   1.992
 2779WAT     OW 8335   0.771   5.072   4.678
 2779WAT    HW1 8336   0.746   5.010   4.746
 2779WAT    HW2 8337   0.785   5.017   4.600
 2780WAT     OW 8338   2.759   4.470   1.840
 2780WAT    HW1 8339   2.745   4.424   1.923
 2780WAT    HW2 8340   2.709   4.420   1.776
 2781WAT     OW 8341   4.551   1.434   3.010
 2781WAT    HW1 8342   4.504   1.497   2.955
 2781WAT    HW2 8343   4.573   1.482   3.089
 2782WAT     OW 8344   0.307   6.342   2.759
 2782WAT    HW1 8345   0.221   6.307   2.736
 2782WAT    HW2 8346   0.290   6.402   2.832
 2783WAT     OW 8347   4.804   0.394   6.420
 2783WAT    HW1 8348   4.734   0.392   6.485
 2783WAT    HW2 8349   4.847   0.478   6.434
 2784WAT     OW 8350   5.325   2.264   5.371
 2784WAT    HW1 8351   5.244   2.220   5.345
 2784WAT    HW2 8352   5.343   2.325   5.299
 2785WAT     OW 8353   0.776   3.213   2.341
 2785WAT    HW1 8354   0.756   3.151   2.271
 2785WAT    HW2 8355   0.781   3.298   2.296
 2786WAT     OW 8356   5.699   3.082   4.763
 2786WAT    HW1 8357   5.743   3.057   4.681
 2786WAT    HW2 8358   5.617   3.032   4.763
 2787WAT     OW 8359   5.941   6.464   3.693
 2787WAT    HW1 8360   5.885   6.389   3.673
 2787WAT    HW2 8361   5.880   6.538   3.694
 2788WAT     OW 8362   0.683   4.212   0.404
 2788WAT    HW1 8363   0.605   4.206   0.349
 2788WAT    HW2 8364   0.699   4.306   0.415
 2789WAT     OW 8365   5.139   0.480   1.856
 2789WAT    HW1 8366   5.192   0.404   1.877
 2789WAT    HW2 8367   5.190   0.528   1.791
 2790WAT     OW 8368   0.921   2.292   5.554
 2790WAT    HW1 8369   0.999   2.299   5.610
 2790WAT    HW2 8370   0.850   2.327   5.608
 2791WAT     OW 8371   5.313   0.245   2.875
 2791WAT    HW1 8372   5.295   0.293   2.794
 2791WAT    HW2 8373   5.400   0.206   2.861
 2792WAT     OW 8374   5.619   1.410   2.139
 2792WAT    HW1 8375   5.591   1.479   2.078
 2792WAT    HW2 8376   5.644   1.337   2.083
 2793WAT     OW 8377   6.453   1.367   3.339
 2793WAT    HW1 8378   6.417   1.451   3.314
 2793WAT    HW2 8379   6.376   1.312   3.357
 2794WAT     OW 8380   2.903   3.321   5.357
 2794WAT    HW1 8381   2.955   3.319   5.277
 2794WAT    HW2 8382   2.813   3.310   5.327
 2795WAT     OW 8383   1.124   6.684   2.069
 2795WAT    HW1 8384   1.122   6.687   2.164
 2795WAT    HW2 8385   1.209   6.721   2.045
 2796WAT     OW 8386   6.063   3.122   2.023
 2796WAT    HW1 8387   6.117   3.190   1.983
 2796WAT    HW2 8388   5.996   3.169   2.072
 2797WAT     OW 8389   5.156   3.597   5.761
 2797WAT    HW1 8390   5.181   3.525   5.819
 2797WAT    HW2 8391   5.060   3.594   5.757
 2798WAT     OW 8392   3.269   4.425   1.227
 2798WAT    HW1 8393   3.231   4.418   1.140
 2798WAT    HW2 8394   3.363   4.418   1.213
 2799WAT     OW 8395   1.293   1.362   6.290
 2799WAT    HW1 8396   1.280   1.275   6.252
 2799WAT    HW2 8397   1.205   1.390   6.315
 2800WAT     OW 8398   2.511   0.661   2.153
 2800WAT    HW1 8399   2.540   0.581   2.109
 2800WAT    HW2 8400   2.523   0.643   2.246
 2801WAT     OW 8401   2.296   0.415   2.504
 2801WAT    HW1 8402   2.256   0.328   2.500
 2801WAT    HW2 8403   2.256   0.463   2.432
 2802WAT     OW 8404   4.562   3.521   0.821
 2802WAT    HW1 8405   4.625   3.495   0.754
 2802WAT    HW2 8406   4.613   3.528   0.901
 2803WAT     OW 8407   3.502   6.225   4.500
 2803WAT    HW1 8408   3.516   6.145   4.550
 2803WAT    HW2 8409   3.564   6.287   4.537
 2804WAT     OW 8410   0.102   4.717   1.885
 2804WAT    HW1 8411   0.008   4.708   1.900
 2804WAT    HW2 8412   0.143   4.672   1.959
 2805WAT     OW 8413   2.749   2.086   3.258
 2805WAT    HW1 8414   2.734   2.014   3.196
 2805WAT    HW2 8415   2.662   2.126   3.268
 2806WAT     OW 8416   0.755   2.980   4.036
 2806WAT    HW1 8417   0.789   2.948   3.953
 2806WAT    HW2 8418   0.790   2.919   4.101
 2807WAT     OW 8419   2.363   1.208   2.396
 2807WAT    HW1 8420   2.414   1.259   2.333
 2807WAT    HW2 8421   2.424   1.191   2.468
 2808WAT     OW 8422   0.675   5.258   3.952
 2808WAT    HW1 8423   0.747   5.244   4.014
 2808WAT    HW2 8424   0.676   5.180   3.897
 2809WAT     OW 8425   6.282   2.034   0.379
 2809WAT    HW1 8426   6.338   2.102   0.342
 2809WAT    HW2 8427   6.304   2.034   0.472
 2810WAT     OW 8428   2.272   0.913   0.108
 2810WAT    HW1 8429   2.308   0.831   0.141
 2810WAT    HW2 8430   2.289   0.910   0.014
 2811WAT     OW 8431   3.329   6.360   3.714
 2811WAT    HW1 8432   3.261   6.296   3.692
 2811WAT    HW2 8433   3.307   6.388   3.803
 2812WAT     OW 8434   3.874   4.807   3.626
 2812WAT    HW1 8435   3.904   4.729   3.580
 2812WAT    HW2 8436   3.949   4.832   3.681
 2813WAT     OW 8437   4.770   1.779   1.089
 2813WAT    HW1 8438   4.835   1.714   1.118
 2813WAT    HW2 8439   4.698   1.727   1.053
 2814WAT     OW 8440   4.524   2.381   5.022
 2814WAT    HW1 8441   4.587   2.319   4.983
 2814WAT    HW2 8442   4.506   2.443   4.952
 2815WAT     OW 8443   0.522   5.479   3.905
 2815WAT    HW1 8444   0.559   5.514   3.824
 2815WAT    HW2 8445   0.571   5.399   3.922
 2816WAT     OW 8446   2.593   6.616   0.416
 2816WAT    HW1 8447   2.613   6.679   0.347
 2816WAT    HW2 8448   2.663   6.627   0.480
 2817WAT     OW 8449   4.013   0.888   5.953
 2817WAT    HW1 8450   4.038   0.796   5.959
 2817WAT    HW2 8451   4.072   0.933   6.012
 2818WAT     OW 8452   3.641   1.948   5.436
 2818WAT    HW1 8453   3.700   1.944   5.362
 2818WAT    HW2 8454   3.636   2.041   5.458
 2819WAT     OW 8455   0.602   5.364   0.849
 2819WAT    HW1 8456   0.661   5.428   0.808
 2819WAT    HW2 8457   0.584   5.400   0.936
 2820WAT     OW 8458   5.043   4.326   1.897
 2820WAT    HW1 8459   5.105   4.353   1.964
 2820WAT    HW2 8460   4.959   4.359   1.928
 2821WAT     OW 8461   3.751   0.977   1.030
 2821WAT    HW1 8462   3.717   0.910   0.970
 2821WAT    HW2 8463   3.681   1.042   1.036
 2822WAT     OW 8464   3.259   5.639   1.885
 2822WAT    HW1 8465   3.322   5.588   1.935
 2822WAT    HW2 8466   3.310   5.677   1.813
 2823WAT     OW 8467   1.383   5.464   0.334
 2823WAT    HW1 8468   1.430   5.409   0.271
 2823WAT    HW2 8469   1.321   5.404   0.375
 2824WAT     OW 8470   4.710   4.415   4.426
 2824WAT    HW1 8471   4.719   4.378   4.339
 2824WAT    HW2 8472   4.772   4.366   4.480
 2825WAT     OW 8473   0.362   1.750   0.030
 2825WAT    HW1 8474   0.426   1.789  -0.028
 2825WAT    HW2 8475   0.408   1.736   0.112
 2826WAT     OW 8476   1.343   2.803   3.977
 2826WAT    HW1 8477   1.293   2.758   3.908
 2826WAT    HW2 8478   1.298   2.887   3.988
 2827WAT     OW 8479   5.046   3.727   6.048
 2827WAT    HW1 8480   5.140   3.719   6.032
 2827WAT    HW2 8481   5.021   3.809   6.004
 2828WAT     OW 8482   4.002   1.250   5.895
 2828WAT    HW1 8483   3.932   1.311   5.917
 2828WAT    HW2 8484   4.055   1.245   5.975
 2829WAT     OW 8485   5.478   2.890   6.577
 2829WAT    HW1 8486   5.450   2.802   6.601
 2829WAT    HW2 8487   5.569   2.896   6.606
 2830WAT     OW 8488   3.290   5.862   1.440
 2830WAT    HW1 8489   3.208   5.911   1.432
 2830WAT    HW2 8490   3.358   5.929   1.436
 2831WAT     OW 8491   4.217   6.518   4.843
 2831WAT    HW1 8492   4.259   6.602   4.862
 2831WAT    HW2 8493   4.237   6.501   4.751
 2832WAT     OW 8494   4.931   5.885   3.794
 2832WAT    HW1 8495   4.939   5.818   3.727
 2832WAT    HW2 8496   4.971   5.963   3.755
 2833WAT     OW 8497   3.370   4.193   6.569
 2833WAT    HW1 8498   3.312   4.129   6.527
 2833WAT    HW2 8499   3.442   4.203   6.507
 2834WAT     OW 8500   6.453   1.383   1.686
 2834WAT    HW1 8501   6.474   1.290   1.681
 2834WAT    HW2 8502   6.467   1.407   1.778
 2835WAT     OW 8503   3.878   5.127   5.246
 2835WAT    HW1 8504   3.825   5.188   5.297
 2835WAT    HW2 8505   3.904   5.178   5.169
 2836WAT     OW 8506   0.575   6.350   0.875
 2836WAT    HW1 8507   0.536   6.394   0.951
 2836WAT    HW2 8508   0.504   6.345   0.811
 2837WAT     OW 8509   1.843   4.724   3.230
 2837WAT    HW1 8510   1.870   4.816   3.233
 2837WAT    HW2 8511   1.782   4.715   3.304
 2838WAT     OW 8512   4.202   0.465   5.664
 2838WAT    HW1 8513   4.173   0.424   5.582
 2838WAT    HW2 8514   4.250   0.543   5.637
 2839WAT     OW 8515   5.104   1.243   6.545
 2839WAT    HW1 8516   5.134   1.298   6.618
 2839WAT    HW2 8517   5.073   1.306   6.479
 2840WAT     OW 8518   0.917   4.077   6.617
 2840WAT    HW1 8519   0.949   4.153   6.665
 2840WAT    HW2 8520   0.905   4.010   6.684
 2841WAT     OW 8521   1.236   1.608   4.730
 2841WAT    HW1 8522   1.228   1.515   4.754
 2841WAT    HW2 8523   1.175   1.619   4.657
 2842WAT     OW 8524   6.421   1.409   0.970
 2842WAT    HW1 8525   6.346   1.351   0.965
 2842WAT    HW2 8526   6.445   1.425   0.879
 2843WAT     OW 8527   4.544   5.473   3.405
 2843WAT    HW1 8528   4.532   5.381   3.384
 2843WAT    HW2 8529   4.456   5.506   3.424
 2844WAT     OW 8530   3.184   3.225   4.000
 2844WAT    HW1 8531   3.181   3.142   3.951
 2844WAT    HW2 8532   3.275   3.232   4.029
 2845WAT     OW 8533   0.208   4.353   5.070
 2845WAT    HW1 8534   0.222   4.259   5.073
 2845WAT    HW2 8535   0.296   4.391   5.070
 2846WAT     OW 8536   3.270   2.494   5.540
 2846WAT    HW1 8537   3.175   2.496   5.549
 2846WAT    HW2 8538   3.292   2.577   5.498
 2847WAT     OW 8539   2.314   4.533   0.356
 2847WAT    HW1 8540   2.256   4.480   0.302
 2847WAT    HW2 8541   2.401   4.523   0.317
 2848WAT     OW 8542   0.742   6.701   4.588
 2848WAT    HW1 8543   0.769   6.610   4.596
 2848WAT    HW2 8544   0.821   6.751   4.610
 2849WAT     OW 8545   5.995   0.100   3.730
 2849WAT    HW1 8546   5.913   0.051   3.735
 2849WAT    HW2 8547   6.003   0.126   3.638
 2850WAT     OW 8548   2.808   0.661   6.242
 2850WAT    HW1 8549   2.828   0.584   6.295
 2850WAT    HW2 8550   2.721   0.688   6.270
 2851WAT     OW 8551   6.254   5.284   2.918
 2851WAT    HW1 8552   6.271   5.299   3.011
 2851WAT    HW2 8553   6.159   5.296   2.909
 2852WAT     OW 8554   0.553   2.197   5.629
 2852WAT    HW1 8555   0.512   2.252   5.562
 2852WAT    HW2 8556   0.561   2.111   5.587
 2853WAT     OW 8557   4.581   0.997   3.931
 2853WAT    HW1 8558   4.636   1.054   3.878
 2853WAT    HW2 8559   4.543   1.056   3.997
 2854WAT     OW 8560   2.476   1.277   4.188
 2854WAT    HW1 8561   2.480   1.332   4.266
 2854WAT    HW2 8562   2.494   1.189   4.219
 2855WAT     OW 8563   4.479   4.655   5.584
 2855WAT    HW1 8564   4.418   4.644   5.512
 2855WAT    HW2 8565   4.551   4.707   5.548
 2856WAT     OW 8566   3.537   6.234   6.438
 2856WAT    HW1 8567   3.536   6.142   6.463
 2856WAT    HW2 8568   3.583   6.278   6.509
 2857WAT     OW 8569   0.003   0.112   5.174
 2857WAT    HW1 8570   0.087   0.132   5.132
 2857WAT    HW2 8571   0.027   0.070   5.256
 2858WAT     OW 8572   5.814   4.905   2.613
 2858WAT    HW1 8573   5.853   4.951   2.687
 2858WAT    HW2 8574   5.831   4.812   2.631
 2859WAT     OW 8575   2.578   0.957   1.386
 2859WAT    HW1 8576   2.531   0.874   1.374
 2859WAT    HW2 8577   2.670   0.932   1.394
 2860WAT     OW 8578   5.276   4.474   2.924
 2860WAT    HW1 8579   5.217   4.464   2.998
 2860WAT    HW2 8580   5.239   4.546   2.872
 2861WAT     OW 8581   2.838   0.757   3.010
 2861WAT    HW1 8582   2.861   0.804   2.930
 2861WAT    HW2 8583   2.921   0.719   3.040
 2862WAT     OW 8584   2.349   0.108   1.515
 2862WAT    HW1 8585   2.406   0.112   1.592
 2862WAT    HW2 8586   2.399   0.153   1.446
 2863WAT     OW 8587   6.584   0.649   3.556
 2863WAT    HW1 8588   6.625   0.565   3.534
 2863WAT    HW2 8589   6.560   0.641   3.648
 2864WAT     OW 8590   1.197   3.107   1.093
 2864WAT    HW1 8591   1.271   3.109   1.032
 2864WAT    HW2 8592   1.204   3.190   1.141
 2865WAT     OW 8593   4.038   3.732   0.970
 2865WAT    HW1 8594   4.110   3.795   0.961
 2865WAT    HW2 8595   4.052   3.670   0.898
 2866WAT     OW 8596   4.353   5.850   4.284
 2866WAT    HW1 8597   4.324   5.886   4.200
 2866WAT    HW2 8598   4.275   5.811   4.322
 2867WAT     OW 8599   1.866   4.580   2.395
 2867WAT    HW1 8600   1.864   4.667   2.435
 2867WAT    HW2 8601   1.940   4.582   2.334
 2868WAT     OW 8602   4.277   0.298   6.121
 2868WAT    HW1 8603   4.265   0.294   6.026
 2868WAT    HW2 8604   4.189   0.308   6.156
 2869WAT     OW 8605   3.735   0.020   1.644
 2869WAT    HW1 8606   3.754   0.098   1.697
 2869WAT    HW2 8607   3.644  -0.001   1.665
 2870WAT     OW 8608   1.264   5.090   1.151
 2870WAT    HW1 8609   1.277   4.999   1.125
 2870WAT    HW2 8610   1.188   5.119   1.101
 2871WAT     OW 8611   3.203   5.732   0.756
 2871WAT    HW1 8612   3.222   5.642   0.730
 2871WAT    HW2 8613   3.172   5.774   0.676
 2872WAT     OW 8614   3.387   3.141   1.085
 2872WAT    HW1 8615   3.464   3.157   1.031
 2872WAT    HW2 8616   3.326   3.094   1.027
 2873WAT     OW 8617   1.523   0.417   3.653
 2873WAT    HW1 8618   1.448   0.418   3.594
 2873WAT    HW2 8619   1.509   0.493   3.710
 2874WAT     OW 8620   4.444   0.205   4.199
 2874WAT    HW1 8621   4.394   0.156   4.134
 2874WAT    HW2 8622   4.532   0.211   4.162
 2875WAT     OW 8623   5.382   2.758   3.405
 2875WAT    HW1 8624   5.367   2.722   3.492
 2875WAT    HW2 8625   5.310   2.724   3.352
 2876WAT     OW 8626   2.698   1.182   1.602
 2876WAT    HW1 8627   2.646   1.197   1.523
 2876WAT    HW2 8628   2.665   1.099   1.637
 2877WAT     OW 8629   1.578   6.231   0.253
 2877WAT    HW1 8630   1.548   6.213   0.164
 2877WAT    HW2 8631   1.513   6.189   0.310
 2878WAT     OW 8632   6.055   2.298   6.643
 2878WAT    HW1 8633   6.040   2.388   6.616
 2878WAT    HW2 8634   6.029   2.297   6.736
 2879WAT     OW 8635   1.970   6.058   6.266
 2879WAT    HW1 8636   1.990   6.086   6.355
 2879WAT    HW2 8637   1.983   5.963   6.267
 2880WAT     OW 8638   1.310   1.988   5.272
 2880WAT    HW1 8639   1.330   2.056   5.338
 2880WAT    HW2 8640   1.358   2.017   5.194
 2881WAT     OW 8641   0.325   2.257   0.484
 2881WAT    HW1 8642   0.351   2.178   0.533
 2881WAT    HW2 8643   0.337   2.329   0.546
 2882WAT     OW 8644   1.356   0.091   1.970
 2882WAT    HW1 8645   1.450   0.079   1.974
 2882WAT    HW2 8646   1.331   0.062   1.882
 2883WAT     OW 8647   2.806   2.679   5.960
 2883WAT    HW1 8648   2.839   2.656   5.874
 2883WAT    HW2 8649   2.830   2.605   6.016
 2884WAT     OW 8650   6.083   6.236   0.750
 2884WAT    HW1 8651   5.997   6.208   0.780
 2884WAT    HW2 8652   6.105   6.311   0.804
 2885WAT     OW 8653   6.070   0.223   2.791
 2885WAT    HW1 8654   6.002   0.290   2.796
 2885WAT    HW2 8655   6.034   0.147   2.837
 2886WAT     OW 8656   1.939   0.179   4.143
 2886WAT    HW1 8657   1.898   0.093   4.157
 2886WAT    HW2 8658   2.015   0.160   4.088
 2887WAT     OW 8659   2.280   2.449   2.734
 2887WAT    HW1 8660   2.368   2.457   2.768
 2887WAT    HW2 8661   2.275   2.514   2.663
 2888WAT     OW 8662   6.276   2.556   5.760
 2888WAT    HW1 8663   6.252   2.612   5.686
 2888WAT    HW2 8664   6.293   2.616   5.832
 2889WAT     OW 8665   6.294   4.029   2.418
 2889WAT    HW1 8666   6.345   4.110   2.421
 2889WAT    HW2 8667   6.349   3.965   2.463
 2890WAT     OW 8668   5.804   3.478   1.814
 2890WAT    HW1 8669   5.799   3.453   1.722
 2890WAT    HW2 8670   5.770   3.403   1.862
 2891WAT     OW 8671   2.982   1.728   5.195
 2891WAT    HW1 8672   2.948   1.756   5.279
 2891WAT    HW2 8673   3.072   1.758   5.193
 2892WAT     OW 8674   1.639   4.333   2.233
 2892WAT    HW1 8675   1.719   4.355   2.186
 2892WAT    HW2 8676   1.578   4.305   2.165
 2893WAT     OW 8677   2.359   3.517   1.791
 2893WAT    HW1 8678   2.299   3.573   1.741
 2893WAT    HW2 8679   2.441   3.521   1.742
 2894WAT     OW 8680   2.049   4.984   1.182
 2894WAT    HW1 8681   2.002   4.980   1.099
 2894WAT    HW2 8682   1.981   4.969   1.249
 2895WAT     OW 8683   5.425   6.393   1.352
 2895WAT    HW1 8684   5.520   6.392   1.361
 2895WAT    HW2 8685   5.397   6.309   1.389
 2896WAT     OW 8686   4.473   2.433   0.812
 2896WAT    HW1 8687   4.416   2.428   0.736
 2896WAT    HW2 8688   4.429   2.492   0.873
 2897WAT     OW 8689   0.075   2.111   2.444
 2897WAT    HW1 8690   0.035   2.028   2.470
 2897WAT    HW2 8691   0.149   2.086   2.390
 2898WAT     OW 8692   3.237   3.675   3.609
 2898WAT    HW1 8693   3.269   3.617   3.540
 2898WAT    HW2 8694   3.269   3.762   3.584
 2899WAT     OW 8695   2.482   6.432   3.704
 2899WAT    HW1 8696   2.433   6.373   3.761
 2899WAT    HW2 8697   2.551   6.467   3.760
 2900WAT     OW 8698   2.009   3.664   2.131
 2900WAT    HW1 8699   2.067   3.604   2.084
 2900WAT    HW2 8700   2.018   3.748   2.086
 2901WAT     OW 8701   6.176   1.528   5.823
 2901WAT    HW1 8702   6.112   1.457   5.816
 2901WAT    HW2 8703   6.257   1.491   5.788
 2902WAT     OW 8704   3.951   1.059   2.511
 2902WAT    HW1 8705   4.026   1.032   2.457
 2902WAT    HW2 8706   3.949   1.154   2.503
 2903WAT     OW 8707   1.281   6.342   0.910
 2903WAT    HW1 8708   1.295   6.416   0.969
 2903WAT    HW2 8709   1.300   6.265   0.963
 2904WAT     OW 8710   1.308   1.432   1.627
 2904WAT    HW1 8711   1.259   1.453   1.707
 2904WAT    HW2 8712   1.399   1.428   1.655
 2905WAT     OW 8713   4.299   5.179   4.054
 2905WAT    HW1 8714   4.356   5.138   3.989
 2905WAT    HW2 8715   4.211   5.149   4.031
 2906WAT     OW 8716   0.039   5.574   1.588
 2906WAT    HW1 8717   0.082   5.488   1.591
 2906WAT    HW2 8718   0.044   5.599   1.495
 2907WAT     OW 8719   4.840   4.989   2.016
 2907WAT    HW1 8720   4.835   4.904   2.060
 2907WAT    HW2 8721   4.773   4.984   1.947
 2908WAT     OW 8722   0.729   4.010   0.714
 2908WAT    HW1 8723   0.681   4.091   0.733
 2908WAT    HW2 8724   0.819   4.028   0.741
 2909WAT     OW 8725   0.103   0.822   3.009
 2909WAT    HW1 8726   0.110   0.888   3.079
 2909WAT    HW2 8727   0.067   0.745   3.053
 2910WAT     OW 8728   6.553   2.962   2.882
 2910WAT    HW1 8729   6.459   2.985   2.882
 2910WAT    HW2 8730   6.567   2.921   2.797
 2911WAT     OW 8731   5.552   1.291   4.760
 2911WAT    HW1 8732   5.621   1.276   4.825
 2911WAT    HW2 8733   5.537   1.385   4.764
 2912WAT     OW 8734   4.293   0.463   4.722
 2912WAT    HW1 8735   4.342   0.489   4.800
 2912WAT    HW2 8736   4.201   0.474   4.747
 2913WAT     OW 8737   1.693   1.707   1.267
 2913WAT    HW1 8738   1.767   1.664   1.309
 2913WAT    HW2 8739   1.684   1.663   1.183
 2914WAT     OW 8740   3.698   1.693   1.873
 2914WAT    HW1 8741   3.675   1.601   1.884
 2914WAT    HW2 8742   3.730   1.699   1.783
 2915WAT     OW 8743   0.351   2.971   5.606
 2915WAT    HW1 8744   0.371   2.883   5.575
 2915WAT    HW2 8745   0.367   2.967   5.700
 2916WAT     OW 8746   4.783   2.635   3.471
 2916WAT    HW1 8747   4.845   2.569   3.502
 2916WAT    HW2 8748   4.836   2.696   3.420
 2917WAT     OW 8749   5.949   3.334   5.388
 2917WAT    HW1 8750   5.920   3.422   5.410
 2917WAT    HW2 8751   5.873   3.278   5.406
 2918WAT     OW 8752   5.139   5.873   5.582
 2918WAT    HW1 8753   5.101   5.785   5.580
 2918WAT    HW2 8754   5.107   5.915   5.502
 2919WAT     OW 8755   5.337   1.781   1.873
 2919WAT    HW1 8756   5.296   1.865   1.856
 2919WAT    HW2 8757   5.344   1.740   1.786
 2920WAT     OW 8758   1.369   2.653   5.451
 2920WAT    HW1 8759   1.286   2.649   5.404
 2920WAT    HW2 8760   1.431   2.691   5.388
 2921WAT     OW 8761   5.322   4.392   5.625
 2921WAT    HW1 8762   5.234   4.366   5.599
 2921WAT    HW2 8763   5.320   4.487   5.628
 2922WAT     OW 8764   2.450   2.102   0.522
 2922WAT    HW1 8765   2.474   2.111   0.614
 2922WAT    HW2 8766   2.359   2.075   0.523
 2923WAT     OW 8767   2.550   2.969   4.969
 2923WAT    HW1 8768   2.608   2.920   4.910
 2923WAT    HW2 8769   2.524   3.046   4.918
 2924WAT     OW 8770   3.716   6.361   4.875
 2924WAT    HW1 8771   3.693   6.270   4.889
 2924WAT    HW2 8772   3.785   6.379   4.939
 2925WAT     OW 8773   5.067   4.101   4.462
 2925WAT    HW1 8774   5.098   4.021   4.505
 2925WAT    HW2 8775   5.146   4.154   4.450
 2926WAT     OW 8776   3.773   0.264   3.790
 2926WAT    HW1 8777   3.857   0.227   3.816
 2926WAT    HW2 8778   3.746   0.212   3.714
 2927WAT     OW 8779   1.973   1.564   5.895
 2927WAT    HW1 8780   1.913   1.490   5.890
 2927WAT    HW2 8781   2.059   1.525   5.910
 2928WAT     OW 8782   4.709   0.376   0.448
 2928WAT    HW1 8783   4.641   0.420   0.397
 2928WAT    HW2 8784   4.685   0.283   0.445
 2929WAT     OW 8785   4.698   2.149   6.648
 2929WAT    HW1 8786   4.646   2.209   6.594
 2929WAT    HW2 8787   4.788   2.179   6.637
 2930WAT     OW 8788   2.505   1.972   1.435
 2930WAT    HW1 8789   2.443   2.044   1.446
 2930WAT    HW2 8790   2.590   2.012   1.455
 2931WAT     OW 8791   3.208   0.314   2.323
 2931WAT    HW1 8792   3.276   0.354   2.269
 2931WAT    HW2 8793   3.136   0.378   2.322
 2932WAT     OW 8794   4.192   6.027   3.682
 2932WAT    HW1 8795   4.258   6.058   3.744
 2932WAT    HW2 8796   4.237   6.027   3.597
 2933WAT     OW 8797   3.677   5.075   4.733
 2933WAT    HW1 8798   3.640   5.058   4.820
 2933WAT    HW2 8799   3.719   5.161   4.741
 2934WAT     OW 8800   2.443   5.168   0.763
 2934WAT    HW1 8801   2.403   5.238   0.815
 2934WAT    HW2 8802   2.414   5.186   0.673
 2935WAT     OW 8803   3.754   4.062   3.746
 2935WAT    HW1 8804   3.716   3.976   3.762
 2935WAT    HW2 8805   3.774   4.062   3.653
 2936WAT     OW 8806   4.441   4.790   5.827
 2936WAT    HW1 8807   4.501   4.863   5.811
 2936WAT    HW2 8808   4.447   4.737   5.748
 2937WAT     OW 8809   2.464   0.633   4.409
 2937WAT    HW1 8810   2.466   0.541   4.435
 2937WAT    HW2 8811   2.427   0.679   4.485
 2938WAT     OW 8812   6.721   6.024   3.723
 2938WAT    HW1 8813   6.682   6.095   3.672
 2938WAT    HW2 8814   6.805   6.008   3.681
 2939WAT     OW 8815   0.028   5.997   6.058
 2939WAT    HW1 8816   0.009   6.072   6.001
 2939WAT    HW2 8817  -0.055   5.952   6.067
 2940WAT     OW 8818   3.417   5.306   6.510
 2940WAT    HW1 8819   3.498   5.257   6.528
 2940WAT    HW2 8820   3.408   5.365   6.584
 2941WAT     OW 8821   0.402   0.158   3.202
 2941WAT    HW1 8822   0.459   0.215   3.150
 2941WAT    HW2 8823   0.460   0.121   3.269
 2942WAT     OW 8824   5.028   1.511   4.816
 2942WAT    HW1 8825   5.092   1.524   4.746
 2942WAT    HW2 8826   5.073   1.453   4.878
 2943WAT     OW 8827   2.135   0.914   2.644
 2943WAT    HW1 8828   2.132   0.980   2.714
 2943WAT    HW2 8829   2.077   0.949   2.576
 2944WAT     OW 8830   2.721   3.717   5.366
 2944WAT    HW1 8831   2.635   3.715   5.408
 2944WAT    HW2 8832   2.783   3.717   5.439
 2945WAT     OW 8833   1.166   5.078   5.305
 2945WAT    HW1 8834   1.261   5.065   5.305
 2945WAT    HW2 8835   1.147   5.113   5.218
 2946WAT     OW 8836   4.854   5.725   4.216
 2946WAT    HW1 8837   4.784   5.665   4.239
 2946WAT    HW2 8838   4.881   5.765   4.299
 2947WAT     OW 8839   0.798   2.346   2.015
 2947WAT    HW1 8840   0.890   2.373   2.015
 2947WAT    HW2 8841   0.795   2.274   2.079
 2948WAT     OW 8842   4.699   0.846   4.666
 2948WAT    HW1 8843   4.706   0.798   4.584
 2948WAT    HW2 8844   4.633   0.799   4.716
 2949WAT     OW 8845   0.489   1.199   2.003
 2949WAT    HW1 8846   0.465   1.146   2.079
 2949WAT    HW2 8847   0.432   1.168   1.933
 2950WAT     OW 8848   3.205   0.223   4.898
 2950WAT    HW1 8849   3.279   0.251   4.952
 2950WAT    HW2 8850   3.242   0.164   4.834
 2951WAT     OW 8851   1.177   3.200   2.601
 2951WAT    HW1 8852   1.132   3.164   2.525
 2951WAT    HW2 8853   1.133   3.283   2.619
 2952WAT     OW 8854   1.332   6.025   3.906
 2952WAT    HW1 8855   1.239   6.002   3.902
 2952WAT    HW2 8856   1.337   6.098   3.967
 2953WAT     OW 8857   5.645   5.278   0.311
 2953WAT    HW1 8858   5.708   5.350   0.306
 2953WAT    HW2 8859   5.559   5.321   0.302
 2954WAT     OW 8860   3.598   1.046   2.708
 2954WAT    HW1 8861   3.661   1.077   2.773
 2954WAT    HW2 8862   3.516   1.089   2.733
 2955WAT     OW 8863   5.651   4.111   5.395
 2955WAT    HW1 8864   5.677   4.023   5.423
 2955WAT    HW2 8865   5.731   4.151   5.362
 2956WAT     OW 8866   6.327   6.709   2.261
 2956WAT    HW1 8867   6.383   6.650   2.312
 2956WAT    HW2 8868   6.331   6.675   2.172
 2957WAT     OW 8869   5.520   3.712   6.293
 2957WAT    HW1 8870   5.427   3.690   6.282
 2957WAT    HW2 8871   5.541   3.685   6.382
 2958WAT     OW 8872   5.196   2.278   6.098
 2958WAT    HW1 8873   5.272   2.312   6.051
 2958WAT    HW2 8874   5.221   2.284   6.191
 2959WAT     OW 8875   2.708   4.136   2.489
 2959WAT    HW1 8876   2.786   4.170   2.534
 2959WAT    HW2 8877   2.647   4.209   2.489
 2960WAT     OW 8878   5.229   3.375   1.422
 2960WAT    HW1 8879   5.160   3.431   1.458
 2960WAT    HW2 8880   5.185   3.293   1.401
 2961WAT     OW 8881   2.289   2.641   2.538
 2961WAT    HW1 8882   2.271   2.733   2.560
 2961WAT    HW2 8883   2.254   2.631   2.450
 2962WAT     OW 8884   1.716   1.963   4.521
 2962WAT    HW1 8885   1.741   2.000   4.436
 2962WAT    HW2 8886   1.661   1.888   4.499
 2963WAT     OW 8887   0.867   2.929   2.519
 2963WAT    HW1 8888   0.934   2.985   2.479
 2963WAT    HW2 8889   0.888   2.841   2.489
 2964WAT     OW 8890   5.131   4.672   3.880
 2964WAT    HW1 8891   5.074   4.685   3.804
 2964WAT    HW2 8892   5.190   4.601   3.854
 2965WAT     OW 8893   4.718   5.917   5.917
 2965WAT    HW1 8894   4.797   5.871   5.944
 2965WAT    HW2 8895   4.748   6.006   5.897
 2966WAT     OW 8896   1.730   2.803   2.173
 2966WAT    HW1 8897   1.825   2.798   2.173
 2966WAT    HW2 8898   1.705   2.803   2.081
 2967WAT     OW 8899   3.183   3.886   6.162
 2967WAT    HW1 8900   3.208   3.796   6.142
 2967WAT    HW2 8901   3.212   3.937   6.087
 2968WAT     OW 8902   5.564   1.500   0.052
 2968WAT    HW1 8903   5.564   1.579   0.106
 2968WAT    HW2 8904   5.656   1.486   0.030
 2969WAT     OW 8905   0.609   3.408   0.625
 2969WAT    HW1 8906   0.559   3.421   0.545
 2969WAT    HW2 8907   0.543   3.401   0.694
 2970WAT     OW 8908   6.527   0.655   3.824
 2970WAT    HW1 8909   6.437   0.674   3.796
 2970WAT    HW2 8910   6.517   0.622   3.913
 2971WAT     OW 8911   3.458   5.727   5.351
 2971WAT    HW1 8912   3.512   5.712   5.429
 2971WAT    HW2 8913   3.422   5.815   5.363
 2972WAT     OW 8914   5.296   1.934   4.935
 2972WAT    HW1 8915   5.263   1.894   4.855
 2972WAT    HW2 8916   5.226   1.994   4.962
 2973WAT     OW 8917   2.089   1.262   2.372
 2973WAT    HW1 8918   2.179   1.244   2.399
 2973WAT    HW2 8919   2.098   1.312   2.291
 2974WAT     OW 8920   3.325   6.200   5.838
 2974WAT    HW1 8921   3.240   6.230   5.804
 2974WAT    HW2 8922   3.340   6.254   5.916
 2975WAT     OW 8923   5.411   3.086   5.559
 2975WAT    HW1 8924   5.434   3.015   5.499
 2975WAT    HW2 8925   5.484   3.089   5.621
 2976WAT     OW 8926   5.134   0.204   0.531
 2976WAT    HW1 8927   5.076   0.246   0.468
 2976WAT    HW2 8928   5.080   0.193   0.610
 2977WAT     OW 8929   1.889   5.936   2.038
 2977WAT    HW1 8930   1.867   5.848   2.069
 2977WAT    HW2 8931   1.982   5.946   2.058
 2978WAT     OW 8932   5.537   5.040   2.088
 2978WAT    HW1 8933   5.595   5.039   2.012
 2978WAT    HW2 8934   5.562   5.119   2.136
 2979WAT     OW 8935   1.431   5.785   2.915
 2979WAT    HW1 8936   1.361   5.844   2.890
 2979WAT    HW2 8937   1.391   5.724   2.976
 2980WAT     OW 8938   4.673   6.106   3.157
 2980WAT    HW1 8939   4.611   6.148   3.218
 2980WAT    HW2 8940   4.697   6.024   3.201
 2981WAT     OW 8941   4.418   4.195   4.522
 2981WAT    HW1 8942   4.494   4.155   4.481
 2981WAT    HW2 8943   4.347   4.183   4.459
 2982WAT     OW 8944   2.065   6.676   5.734
 2982WAT    HW1 8945   1.998   6.705   5.795
 2982WAT    HW2 8946   2.037   6.712   5.649
 2983WAT     OW 8947   3.130   5.902   2.513
 2983WAT    HW1 8948   3.160   5.847   2.441
 2983WAT    HW2 8949   3.169   5.862   2.591
 2984WAT     OW 8950   5.311   1.643   6.344
 2984WAT    HW1 8951   5.239   1.687   6.389
 2984WAT    HW2 8952   5.356   1.594   6.414
 2985WAT     OW 8953   3.004   2.036   4.870
 2985WAT    HW1 8954   2.924   2.070   4.830
 2985WAT    HW2 8955   2.997   1.941   4.859
 2986WAT     OW 8956   0.379   5.776   0.251
 2986WAT    HW1 8957   0.302   5.805   0.299
 2986WAT    HW2 8958   0.440   5.850   0.257
 2987WAT     OW 8959   3.287   2.404   4.907
 2987WAT    HW1 8960   3.264   2.384   4.998
 2987WAT    HW2 8961   3.288   2.318   4.863
 2988WAT     OW 8962   5.785   2.864   2.722
 2988WAT    HW1 8963   5.725   2.811   2.775
 2988WAT    HW2 8964   5.781   2.825   2.635
 2989WAT     OW 8965   3.930   4.104   1.736
 2989WAT    HW1 8966   3.973   4.189   1.725
 2989WAT    HW2 8967   3.859   4.121   1.797
 2990WAT     OW 8968   4.065   0.114   6.630
 2990WAT    HW1 8969   4.016   0.181   6.676
 2990WAT    HW2 8970   4.025   0.111   6.543
 2991WAT     OW 8971   2.548   5.068   3.148
 2991WAT    HW1 8972   2.536   4.999   3.213
 2991WAT    HW2 8973   2.633   5.048   3.107
 2992WAT     OW 8974   1.735   6.493   2.446
 2992WAT    HW1 8975   1.689   6.558   2.394
 2992WAT    HW2 8976   1.674   6.420   2.455
 2993WAT     OW 8977   1.091   5.722   0.529
 2993WAT    HW1 8978   1.029   5.794   0.518
 2993WAT    HW2 8979   1.135   5.715   0.444
 2994WAT     OW 8980   5.929   0.352   0.553
 2994WAT    HW1 8981   6.017   0.365   0.519
 2994WAT    HW2 8982   5.898   0.440   0.576
 2995WAT     OW 8983   6.023   4.309   2.895
 2995WAT    HW1 8984   6.038   4.217   2.917
 2995WAT    HW2 8985   5.998   4.308   2.803
 2996WAT     OW 8986   3.611   4.376   2.903
 2996WAT    HW1 8987   3.665   4.383   2.824
 2996WAT    HW2 8988   3.531   4.423   2.880
 2997WAT     OW 8989   5.000   3.732   0.522
 2997WAT    HW1 8990   4.908   3.759   0.531
 2997WAT    HW2 8991   5.006   3.653   0.576
 2998WAT     OW 8992   0.770   1.902   4.720
 2998WAT    HW1 8993   0.766   1.808   4.739
 2998WAT    HW2 8994   0.835   1.936   4.781
 2999WAT     OW 8995   3.891   0.455   5.092
 2999WAT    HW1 8996   3.860   0.365   5.104
 2999WAT    HW2 8997   3.851   0.483   5.010
 3000WAT     OW 8998   3.507   1.039   6.599
 3000WAT    HW1 8999   3.584   1.085   6.565
 3000WAT    HW2 9000   3.433   1.075   6.549
 3001WAT     OW 9001   3.280   2.954   0.897
 3001WAT    HW1 9002   3.307   2.955   0.805
 3001WAT    HW2 9003   3.317   2.874   0.933
 3002WAT     OW 9004   2.752   1.001   0.489
 3002WAT    HW1 9005   2.689   1.043   0.548
 3002WAT    HW2 9006   2.751   1.055   0.410
 3003WAT     OW 9007   4.791   6.256   0.451
 3003WAT    HW1 9008   4.764   6.171   0.417
 3003WAT    HW2 9009   4.733   6.272   0.525
 3004WAT     OW 9010   2.701   0.843   5.316
 3004WAT    HW1 9011   2.756   0.770   5.288
 3004WAT    HW2 9012   2.612   0.816   5.292
 3005WAT     OW 9013   3.711   2.167   4.144
 3005WAT    HW1 9014   3.671   2.126   4.220
 3005WAT    HW2 9015   3.648   2.233   4.116
 3006WAT     OW 9016   6.547   2.283   1.332
 3006WAT    HW1 9017   6.565   2.191   1.351
 3006WAT    HW2 9018   6.590   2.299   1.248
 3007WAT     OW 9019   5.451   2.435   3.249
 3007WAT    HW1 9020   5.394   2.359   3.239
 3007WAT    HW2 9021   5.460   2.445   3.344
 3008WAT     OW 9022   6.709   5.062   3.334
 3008WAT    HW1 9023   6.737   5.153   3.327
 3008WAT    HW2 9024   6.787   5.011   3.312
 3009WAT     OW 9025   5.150   2.469   5.842
 3009WAT    HW1 9026   5.127   2.379   5.818
 3009WAT    HW2 9027   5.227   2.489   5.789
 3010WAT     OW 9028   0.623   0.217   0.803
 3010WAT    HW1 9029   0.543   0.169   0.827
 3010WAT    HW2 9030   0.633   0.200   0.709
 3011WAT     OW 9031   3.100   4.384   2.554
 3011WAT    HW1 9032   3.037   4.316   2.574
 3011WAT    HW2 9033   3.084   4.452   2.619
 3012WAT     OW 9034   5.387   1.941   4.504
 3012WAT    HW1 9035   5.418   2.023   4.465
 3012WAT    HW2 9036   5.329   1.904   4.437
 3013WAT     OW 9037   4.321   4.605   6.530
 3013WAT    HW1 9038   4.232   4.616   6.564
 3013WAT    HW2 9039   4.361   4.542   6.590
 3014WAT     OW 9040   4.475   5.446   6.014
 3014WAT    HW1 9041   4.557   5.495   6.007
 3014WAT    HW2 9042   4.445   5.461   6.103
 3015WAT     OW 9043   5.640   4.643   1.269
 3015WAT    HW1 9044   5.614   4.555   1.241
 3015WAT    HW2 9045   5.650   4.636   1.364
 3016WAT     OW 9046   0.706   5.449   5.417
 3016WAT    HW1 9047   0.695   5.354   5.411
 3016WAT    HW2 9048   0.720   5.477   5.326
 3017WAT     OW 9049   4.582   3.738   0.146
 3017WAT    HW1 9050   4.596   3.807   0.211
 3017WAT    HW2 9051   4.529   3.779   0.078
 3018WAT     OW 9052   4.783   5.591   3.858
 3018WAT    HW1 9053   4.692   5.582   3.883
 3018WAT    HW2 9054   4.786   5.560   3.767
 3019WAT     OW 9055   4.617   3.422   1.279
 3019WAT    HW1 9056   4.642   3.388   1.365
 3019WAT    HW2 9057   4.550   3.361   1.247
 3020WAT     OW 9058   5.865   2.928   5.851
 3020WAT    HW1 9059   5.936   2.964   5.905
 3020WAT    HW2 9060   5.798   2.901   5.913
 3021WAT     OW 9061   6.485   1.035   4.225
 3021WAT    HW1 9062   6.492   0.941   4.207
 3021WAT    HW2 9063   6.466   1.074   4.139
 3022WAT     OW 9064   4.105   5.355   5.308
 3022WAT    HW1 9065   4.125   5.268   5.341
 3022WAT    HW2 9066   4.149   5.360   5.224
 3023WAT     OW 9067   2.862   1.813   5.424
 3023WAT    HW1 9068   2.818   1.732   5.451
 3023WAT    HW2 9069   2.793   1.879   5.429
 3024WAT     OW 9070   0.588   2.905   1.755
 3024WAT    HW1 9071   0.569   2.813   1.738
 3024WAT    HW2 9072   0.562   2.950   1.675
 3025WAT     OW 9073   2.035   4.166   2.788
 3025WAT    HW1 9074   1.999   4.136   2.871
 3025WAT    HW2 9075   1.976   4.132   2.721
 3026WAT     OW 9076   5.090   1.413   3.228
 3026WAT    HW1 9077   5.073   1.321   3.213
 3026WAT    HW2 9078   5.163   1.434   3.169
 3027WAT     OW 9079   0.395   3.480   3.010
 3027WAT    HW1 9080   0.383   3.387   3.030
 3027WAT    HW2 9081   0.329   3.498   2.943
 3028WAT     OW 9082   0.887   3.119   6.225
 3028WAT    HW1 9083   0.869   3.087   6.136
 3028WAT    HW2 9084   0.818   3.182   6.243
 3029WAT     OW 9085   2.344   6.549   0.831
 3029WAT    HW1 9086   2.343   6.569   0.737
 3029WAT    HW2 9087   2.348   6.634   0.874
 3030WAT     OW 9088   1.408   5.575   3.373
 3030WAT    HW1 9089   1.451   5.503   3.420
 3030WAT    HW2 9090   1.465   5.591   3.297
 3031WAT     OW 9091   1.199   5.626   6.573
 3031WAT    HW1 9092   1.159   5.710   6.550
 3031WAT    HW2 9093   1.138   5.560   6.539
 3032WAT     OW 9094   4.173   5.630   5.746
 3032WAT    HW1 9095   4.135   5.603   5.662
 3032WAT    HW2 9096   4.101   5.672   5.792
 3033WAT     OW 9097   0.509   1.295   6.457
 3033WAT    HW1 9098   0.538   1.249   6.536
 3033WAT    HW2 9099   0.579   1.281   6.394
 3034WAT     OW 9100   0.082   2.768   0.770
 3034WAT    HW1 9101   0.016   2.701   0.789
 3034WAT    HW2 9102   0.082   2.774   0.674
 3035WAT     OW 9103   3.230   2.844   4.729
 3035WAT    HW1 9104   3.179   2.884   4.658
 3035WAT    HW2 9105   3.225   2.907   4.801
 3036WAT     OW 9106   6.214   0.011   3.091
 3036WAT    HW1 9107   6.295   0.044   3.052
 3036WAT    HW2 9108   6.194   0.073   3.161
 3037WAT     OW 9109   1.776   2.218   1.114
 3037WAT    HW1 9110   1.727   2.234   1.033
 3037WAT    HW2 9111   1.845   2.157   1.089
 3038WAT     OW 9112   4.025   6.612   4.499
 3038WAT    HW1 9113   4.105   6.571   4.531
 3038WAT    HW2 9114   3.981   6.644   4.578
 3039WAT     OW 9115   5.398   3.713   5.145
 3039WAT    HW1 9116   5.485   3.736   5.113
 3039WAT    HW2 9117   5.375   3.633   5.097
 3040WAT     OW 9118   0.347   0.700   0.398
 3040WAT    HW1 9119   0.411   0.651   0.450
 3040WAT    HW2 9120   0.272   0.712   0.457
 3041WAT     OW 9121   0.864   5.136   4.160
 3041WAT    HW1 9122   0.891   5.092   4.080
 3041WAT    HW2 9123   0.918   5.097   4.229
 3042WAT     OW 9124   0.831   5.846   3.856
 3042WAT    HW1 9125   0.787   5.789   3.920
 3042WAT    HW2 9126   0.767   5.857   3.786
 3043WAT     OW 9127   1.748   3.995   4.695
 3043WAT    HW1 9128   1.704   4.019   4.614
 3043WAT    HW2 9129   1.729   3.901   4.706
 3044WAT     OW 9130   2.956   4.773   3.475
 3044WAT    HW1 9131   2.912   4.794   3.393
 3044WAT    HW2 9132   2.889   4.731   3.529
 3045WAT     OW 9133   5.145   3.166   5.476
 3045WAT    HW1 9134   5.172   3.239   5.420
 3045WAT    HW2 9135   5.227   3.131   5.511
 3046WAT     OW 9136   1.046   2.817   3.176
 3046WAT    HW1 9137   0.989   2.742   3.156
 3046WAT    HW2 9138   1.002   2.863   3.247
 3047WAT     OW 9139   5.870   1.618   6.504
 3047WAT    HW1 9140   5.856   1.576   6.419
 3047WAT    HW2 9141   5.962   1.643   6.503
 3048WAT     OW 9142   5.845   0.890   0.184
 3048WAT    HW1 9143   5.754   0.868   0.201
 3048WAT    HW2 9144   5.845   0.986   0.178
 3049WAT     OW 9145   3.907   2.005   0.078
 3049WAT    HW1 9146   3.960   1.955   0.141
 3049WAT    HW2 9147   3.915   2.096   0.107
 3050WAT     OW 9148   0.260   1.896   5.758
 3050WAT    HW1 9149   0.346   1.858   5.739
 3050WAT    HW2 9150   0.223   1.840   5.826
 3051WAT     OW 9151   0.063   5.205   2.623
 3051WAT    HW1 9152   0.040   5.216   2.530
 3051WAT    HW2 9153   0.103   5.119   2.628
 3052WAT     OW 9154   2.000   6.307   3.875
 3052WAT    HW1 9155   2.048   6.295   3.957
 3052WAT    HW2 9156   2.045   6.251   3.812
 3053WAT     OW 9157   4.561   4.628   3.460
 3053WAT    HW1 9158   4.593   4.562   3.399
 3053WAT    HW2 9159   4.615   4.618   3.538
 3054WAT     OW 9160   2.736   2.870   5.612
 3054WAT    HW1 9161   2.748   2.963   5.629
 3054WAT    HW2 9162   2.671   2.867   5.541
 3055WAT     OW 9163   5.774   0.027   0.085
 3055WAT    HW1 9164   5.702  -0.036   0.080
 3055WAT    HW2 9165   5.741   0.105   0.040
 3056WAT     OW 9166   2.365   2.757   1.102
 3056WAT    HW1 9167   2.331   2.800   1.181
 3056WAT    HW2 9168   2.287   2.732   1.053
 3057WAT     OW 9169   4.875   3.989   4.304
 3057WAT    HW1 9170   4.917   3.972   4.220
 3057WAT    HW2 9171   4.940   4.038   4.354
 3058WAT     OW 9172   1.134   2.190   1.789
 3058WAT    HW1 9173   1.063   2.131   1.764
 3058WAT    HW2 9174   1.191   2.136   1.844
 3059WAT     OW 9175   3.187   1.232   1.847
 3059WAT    HW1 9176   3.215   1.285   1.921
 3059WAT    HW2 9177   3.252   1.249   1.779
 3060WAT     OW 9178   1.019   1.865   6.458
 3060WAT    HW1 9179   1.092   1.816   6.420
 3060WAT    HW2 9180   0.945   1.848   6.400
 3061WAT     OW 9181   6.421   3.551   0.907
 3061WAT    HW1 9182   6.458   3.496   0.976
 3061WAT    HW2 9183   6.399   3.490   0.837
 3062WAT     OW 9184   6.452   0.807   4.587
 3062WAT    HW1 9185   6.403   0.771   4.661
 3062WAT    HW2 9186   6.405   0.776   4.509
 3063WAT     OW 9187   4.522   2.806   5.376
 3063WAT    HW1 9188   4.537   2.720   5.336
 3063WAT    HW2 9189   4.610   2.839   5.396
 3064WAT     OW 9190   3.627   3.693   1.989
 3064WAT    HW1 9191   3.685   3.644   1.930
 3064WAT    HW2 9192   3.676   3.773   2.009
 3065WAT     OW 9193   3.261   4.681   2.654
 3065WAT    HW1 9194   3.235   4.709   2.566
 3065WAT    HW2 9195   3.180   4.656   2.697
 3066WAT     OW 9196   3.404   1.345   0.669
 3066WAT    HW1 9197   3.385   1.408   0.738
 3066WAT    HW2 9198   3.379   1.260   0.706
 3067WAT     OW 9199   5.492   5.592   2.399
 3067WAT    HW1 9200   5.563   5.555   2.452
 3067WAT    HW2 9201   5.439   5.517   2.373
 3068WAT     OW 9202   1.537   4.130   4.850
 3068WAT    HW1 9203   1.490   4.198   4.802
 3068WAT    HW2 9204   1.617   4.116   4.800
 3069WAT     OW 9205   4.155   6.399   5.941
 3069WAT    HW1 9206   4.077   6.453   5.930
 3069WAT    HW2 9207   4.217   6.457   5.986
 3070WAT     OW 9208   5.071   6.707   3.125
 3070WAT    HW1 9209   5.009   6.653   3.076
 3070WAT    HW2 9210   5.148   6.652   3.138
 3071WAT     OW 9211   2.664   1.376   0.243
 3071WAT    HW1 9212   2.694   1.289   0.215
 3071WAT    HW2 9213   2.701   1.387   0.330
 3072WAT     OW 9214   5.809   1.834   4.803
 3072WAT    HW1 9215   5.878   1.832   4.737
 3072WAT    HW2 9216   5.737   1.882   4.763
 3073WAT     OW 9217   1.017   1.719   0.839
 3073WAT    HW1 9218   0.967   1.715   0.758
 3073WAT    HW2 9219   0.980   1.792   0.887
 3074WAT     OW 9220   5.235   4.529   4.551
 3074WAT    HW1 9221   5.216   4.622   4.565
 3074WAT    HW2 9222   5.292   4.505   4.624
 3075WAT     OW 9223   5.314   5.551   1.387
 3075WAT    HW1 9224   5.241   5.535   1.446
 3075WAT    HW2 9225   5.314   5.477   1.327
 3076WAT     OW 9226   3.638   6.580   6.309
 3076WAT    HW1 9227   3.684   6.530   6.243
 3076WAT    HW2 9228   3.699   6.586   6.383
 3077WAT     OW 9229   0.875   4.791   2.585
 3077WAT    HW1 9230   0.875   4.705   2.627
 3077WAT    HW2 9231   0.904   4.773   2.495
 3078WAT     OW 9232   6.317   3.530   4.933
 3078WAT    HW1 9233   6.252   3.460   4.929
 3078WAT    HW2 9234   6.401   3.485   4.925
 3079WAT     OW 9235   0.139   2.104   0.866
 3079WAT    HW1 9236   0.142   2.078   0.774
 3079WAT    HW2 9237   0.082   2.181   0.867
 3080WAT     OW 9238   2.544   2.504   2.802
 3080WAT    HW1 9239   2.545   2.554   2.884
 3080WAT    HW2 9240   2.614   2.440   2.812
 3081WAT     OW 9241   5.157   0.532   0.694
 3081WAT    HW1 9242   5.206   0.614   0.700
 3081WAT    HW2 9243   5.225   0.465   0.683
 3082WAT     OW 9244   2.400   3.155   4.436
 3082WAT    HW1 9245   2.340   3.168   4.510
 3082WAT    HW2 9246   2.465   3.094   4.469
 3083WAT     OW 9247   1.043   3.848   5.033
 3083WAT    HW1 9248   0.978   3.882   5.094
 3083WAT    HW2 9249   1.097   3.788   5.085
 3084WAT     OW 9250   5.838   4.634   4.850
 3084WAT    HW1 9251   5.899   4.621   4.924
 3084WAT    HW2 9252   5.866   4.716   4.810
 3085WAT     OW 9253   0.242   0.468   2.996
 3085WAT    HW1 9254   0.192   0.454   2.916
 3085WAT    HW2 9255   0.320   0.515   2.968
 3086WAT     OW 9256   3.903   3.139   3.870
 3086WAT    HW1 9257   3.914   3.085   3.792
 3086WAT    HW2 9258   3.925   3.228   3.841
 3087WAT     OW 9259   0.678   0.482   2.787
 3087WAT    HW1 9260   0.706   0.505   2.698
 3087WAT    HW2 9261   0.757   0.448   2.829
 3088WAT     OW 9262   0.040   2.542   4.243
 3088WAT    HW1 9263  -0.012   2.622   4.235
 3088WAT    HW2 9264  -0.025   2.472   4.242
 3089WAT     OW 9265   0.439   0.913   3.502
 3089WAT    HW1 9266   0.484   0.993   3.473
 3089WAT    HW2 9267   0.480   0.891   3.585
 3090WAT     OW 9268   0.021   6.541   0.872
 3090WAT    HW1 9269   0.022   6.450   0.844
 3090WAT    HW2 9270   0.006   6.591   0.791
 3091WAT     OW 9271   3.176   5.114   2.939
 3091WAT    HW1 9272   3.146   5.024   2.929
 3091WAT    HW2 9273   3.117   5.165   2.883
 3092WAT     OW 9274   2.737   6.155   3.855
 3092WAT    HW1 9275   2.723   6.163   3.761
 3092WAT    HW2 9276   2.787   6.074   3.865
 3093WAT     OW 9277   4.608   5.758   0.041
 3093WAT    HW1 9278   4.590   5.664   0.049
 3093WAT    HW2 9279   4.581   5.795   0.125
 3094WAT     OW 9280   1.424   5.351   2.414
 3094WAT    HW1 9281   1.493   5.372   2.477
 3094WAT    HW2 9282   1.442   5.261   2.387
 3095WAT     OW 9283   0.877   6.615   1.525
 3095WAT    HW1 9284   0.858   6.524   1.548
 3095WAT    HW2 9285   0.942   6.643   1.589
 3096WAT     OW 9286   3.747   4.694   2.696
 3096WAT    HW1 9287   3.667   4.714   2.744
 3096WAT    HW2 9288   3.738   4.741   2.614
 3097WAT     OW 9289   6.489   1.109   1.682
 3097WAT    HW1 9290   6.398   1.115   1.709
 3097WAT    HW2 9291   6.502   1.016   1.661
 3098WAT     OW 9292   5.562   1.089   3.346
 3098WAT    HW1 9293   5.539   1.161   3.405
 3098WAT    HW2 9294   5.613   1.130   3.276
 3099WAT     OW 9295   4.400   3.404   2.000
 3099WAT    HW1 9296   4.312   3.433   2.023
 3099WAT    HW2 9297   4.386   3.325   1.948
 3100WAT     OW 9298   0.038   3.750   6.174
 3100WAT    HW1 9299   0.077   3.796   6.100
 3100WAT    HW2 9300  -0.018   3.815   6.216
 3101WAT     OW 9301   0.392   2.878   3.605
 3101WAT    HW1 9302   0.337   2.904   3.678
 3101WAT    HW2 9303   0.338   2.817   3.555
 3102WAT     OW 9304   4.525   2.060   3.467
 3102WAT    HW1 9305   4.430   2.074   3.473
 3102WAT    HW2 9306   4.556   2.128   3.408
 3103WAT     OW 9307   2.587   4.860   4.800
 3103WAT    HW1 9308   2.560   4.931   4.742
 3103WAT    HW2 9309   2.625   4.904   4.876
 3104WAT     OW 9310   5.034   4.936   4.451
 3104WAT    HW1 9311   4.970   4.990   4.498
 3104WAT    HW2 9312   4.985   4.900   4.377
 3105WAT     OW 9313   3.222   4.267   1.457
 3105WAT    HW1 9314   3.226   4.321   1.378
 3105WAT    HW2 9315   3.310   4.273   1.495
 3106WAT     OW 9316   3.178   0.545   1.320
 3106WAT    HW1 9317   3.126   0.573   1.396
 3106WAT    HW2 9318   3.269   0.560   1.347
 3107WAT     OW 9319   5.836   4.448   3.299
 3107WAT    HW1 9320   5.772   4.482   3.362
 3107WAT    HW2 9321   5.791   4.455   3.215
 3108WAT     OW 9322   4.429   2.114   4.053
 3108WAT    HW1 9323   4.440   2.106   4.147
 3108WAT    HW2 9324   4.419   2.209   4.038
 3109WAT     OW 9325   0.459   0.604   2.897
 3109WAT    HW1 9326   0.497   0.615   2.984
 3109WAT    HW2 9327   0.525   0.556   2.847
 3110WAT     OW 9328   4.174   4.404   3.447
 3110WAT    HW1 9329   4.231   4.360   3.384
 3110WAT    HW2 9330   4.208   4.378   3.532
 3111WAT     OW 9331   4.050   0.213   1.683
 3111WAT    HW1 9332   4.033   0.242   1.594
 3111WAT    HW2 9333   3.969   0.232   1.730
 3112WAT     OW 9334   5.032   3.488   0.635
 3112WAT    HW1 9335   5.038   3.452   0.724
 3112WAT    HW2 9336   5.059   3.415   0.579
 3113WAT     OW 9337   2.173   3.137   6.074
 3113WAT    HW1 9338   2.091   3.099   6.105
 3113WAT    HW2 9339   2.209   3.071   6.015
 3114WAT     OW 9340   2.122   6.713   2.937
 3114WAT    HW1 9341   2.104   6.780   2.871
 3114WAT    HW2 9342   2.036   6.680   2.962
 3115WAT     OW 9343   0.060   3.499   4.017
 3115WAT    HW1 9344   0.107   3.448   3.951
 3115WAT    HW2 9345  -0.032   3.482   3.999
 3116WAT     OW 9346   1.075   5.319   1.490
 3116WAT    HW1 9347   1.005   5.384   1.496
 3116WAT    HW2 9348   1.055   5.257   1.561
 3117WAT     OW 9349   4.250   5.959   0.941
 3117WAT    HW1 9350   4.172   5.992   0.896
 3117WAT    HW2 9351   4.318   5.960   0.874
 3118WAT     OW 9352   2.654   4.160   6.669
 3118WAT    HW1 9353   2.573   4.151   6.618
 3118WAT    HW2 9354   2.624   4.170   6.759
 3119WAT     OW 9355   0.346   3.872   4.898
 3119WAT    HW1 9356   0.402   3.823   4.837
 3119WAT    HW2 9357   0.324   3.808   4.966
 3120WAT     OW 9358   4.671   0.961   6.120
 3120WAT    HW1 9359   4.680   0.985   6.212
 3120WAT    HW2 9360   4.584   0.992   6.095
 3121WAT     OW 9361   6.379   1.820   4.369
 3121WAT    HW1 9362   6.364   1.742   4.315
 3121WAT    HW2 9363   6.374   1.789   4.459
 3122WAT     OW 9364   1.858   3.957   1.414
 3122WAT    HW1 9365   1.805   4.021   1.462
 3122WAT    HW2 9366   1.945   3.997   1.410
 3123WAT     OW 9367   4.722   4.701   4.428
 3123WAT    HW1 9368   4.720   4.607   4.408
 3123WAT    HW2 9369   4.733   4.705   4.523
 3124WAT     OW 9370   0.960   4.316   3.601
 3124WAT    HW1 9371   1.030   4.300   3.665
 3124WAT    HW2 9372   0.933   4.406   3.617
 3125WAT     OW 9373   2.583   0.411   2.049
 3125WAT    HW1 9374   2.651   0.409   2.116
 3125WAT    HW2 9375   2.576   0.319   2.021
 3126WAT     OW 9376   0.842   0.151   2.672
 3126WAT    HW1 9377   0.909   0.212   2.640
 3126WAT    HW2 9378   0.881   0.112   2.750
 3127WAT     OW 9379   0.067   5.035   5.084
 3127WAT    HW1 9380  -0.021   5.058   5.055
 3127WAT    HW2 9381   0.096   5.110   5.135
 3128WAT     OW 9382   4.450   6.323   0.204
 3128WAT    HW1 9383   4.389   6.394   0.226
 3128WAT    HW2 9384   4.536   6.360   0.223
 3129WAT     OW 9385   3.892   5.621   2.189
 3129WAT    HW1 9386   3.824   5.598   2.252
 3129WAT    HW2 9387   3.903   5.716   2.198
 3130WAT     OW 9388   4.058   3.725   3.969
 3130WAT    HW1 9389   4.075   3.812   4.007
 3130WAT    HW2 9390   4.085   3.664   4.038
 3131WAT     OW 9391   2.620   4.534   4.457
 3131WAT    HW1 9392   2.564   4.567   4.528
 3131WAT    HW2 9393   2.622   4.605   4.393
 3132WAT     OW 9394   2.942   2.202   6.144
 3132WAT    HW1 9395   2.866   2.148   6.163
 3132WAT    HW2 9396   3.013   2.164   6.197
 3133WAT     OW 9397   5.985   4.067   3.846
 3133WAT    HW1 9398   5.902   4.030   3.814
 3133WAT    HW2 9399   5.963   4.105   3.931
 3134WAT     OW 9400   3.867   1.543   6.578
 3134WAT    HW1 9401   3.933   1.539   6.509
 3134WAT    HW2 9402   3.915   1.574   6.655
 3135WAT     OW 9403   3.768   2.322   5.561
 3135WAT    HW1 9404   3.703   2.317   5.490
 3135WAT    HW2 9405   3.767   2.414   5.588
 3136WAT     OW 9406   0.157   5.605   1.836
 3136WAT    HW1 9407   0.115   5.604   1.750
 3136WAT    HW2 9408   0.182   5.696   1.849
 3137WAT     OW 9409   5.413   4.001   1.425
 3137WAT    HW1 9410   5.339   4.015   1.365
 3137WAT    HW2 9411   5.372   3.976   1.508
 3138WAT     OW 9412   1.704   2.490   2.856
 3138WAT    HW1 9413   1.755   2.433   2.914
 3138WAT    HW2 9414   1.630   2.436   2.829
 3139WAT     OW 9415   3.115   6.715   0.654
 3139WAT    HW1 9416   3.091   6.631   0.614
 3139WAT    HW2 9417   3.043   6.733   0.715
 3140WAT     OW 9418   2.338   2.741   0.740
 3140WAT    HW1 9419   2.342   2.660   0.690
 3140WAT    HW2 9420   2.274   2.724   0.809
 3141WAT     OW 9421   5.434   5.116   6.348
 3141WAT    HW1 9422   5.408   5.168   6.424
 3141WAT    HW2 9423   5.352   5.076   6.318
 3142WAT     OW 9424   3.996   1.613   5.530
 3142WAT    HW1 9425   3.906   1.584   5.540
 3142WAT    HW2 9426   4.048   1.548   5.577
 3143WAT     OW 9427   4.544   0.446   3.614
 3143WAT    HW1 9428   4.582   0.534   3.621
 3143WAT    HW2 9429   4.566   0.404   3.697
 3144WAT     OW 9430   0.529   3.896   2.602
 3144WAT    HW1 9431   0.565   3.908   2.690
 3144WAT    HW2 9432   0.583   3.951   2.546
 3145WAT     OW 9433   4.360   0.594   1.057
 3145WAT    HW1 9434   4.342   0.511   1.101
 3145WAT    HW2 9435   4.386   0.653   1.127
 3146WAT     OW 9436   6.226   2.975   1.581
 3146WAT    HW1 9437   6.310   2.935   1.602
 3146WAT    HW2 9438   6.174   2.967   1.661
 3147WAT     OW 9439   1.173   1.655   6.712
 3147WAT    HW1 9440   1.157   1.712   6.787
 3147WAT    HW2 9441   1.221   1.710   6.650
 3148WAT     OW 9442   5.393   6.445   0.987
 3148WAT    HW1 9443   5.483   6.467   0.963
 3148WAT    HW2 9444   5.376   6.496   1.067
 3149WAT     OW 9445   2.560   2.970   4.563
 3149WAT    HW1 9446   2.495   2.900   4.571
 3149WAT    HW2 9447   2.610   2.948   4.484
 3150WAT     OW 9448   5.876   0.526   5.265
 3150WAT    HW1 9449   5.824   0.578   5.204
 3150WAT    HW2 9450   5.900   0.448   5.216
 3151WAT     OW 9451   3.572   2.248   5.063
 3151WAT    HW1 9452   3.482   2.279   5.066
 3151WAT    HW2 9453   3.613   2.297   4.992
 3152WAT     OW 9454   4.728   3.454   3.644
 3152WAT    HW1 9455   4.681   3.401   3.709
 3152WAT    HW2 9456   4.665   3.466   3.573
 3153WAT     OW 9457   6.039   2.902   2.820
 3153WAT    HW1 9458   5.947   2.892   2.794
 3153WAT    HW2 9459   6.088   2.860   2.749
 3154WAT     OW 9460   5.077   1.437   3.778
 3154WAT    HW1 9461   5.061   1.420   3.685
 3154WAT    HW2 9462   5.043   1.525   3.793
 3155WAT     OW 9463   5.040   3.620   4.257
 3155WAT    HW1 9464   4.973   3.577   4.310
 3155WAT    HW2 9465   4.995   3.648   4.178
 3156WAT     OW 9466   5.625   2.642   3.979
 3156WAT    HW1 9467   5.588   2.695   3.908
 3156WAT    HW2 9468   5.673   2.704   4.033
 3157WAT     OW 9469   6.681   1.210   5.917
 3157WAT    HW1 9470   6.703   1.290   5.965
 3157WAT    HW2 9471   6.764   1.164   5.907
 3158WAT     OW 9472   4.048   3.703   2.621
 3158WAT    HW1 9473   4.130   3.720   2.573
 3158WAT    HW2 9474   3.985   3.682   2.552
 3159WAT     OW 9475   1.624   0.882   4.208
 3159WAT    HW1 9476   1.681   0.806   4.217
 3159WAT    HW2 9477   1.622   0.920   4.296
 3160WAT     OW 9478   1.869   5.014   0.975
 3160WAT    HW1 9479   1.815   4.936   0.958
 3160WAT    HW2 9480   1.807   5.079   1.007
 3161WAT     OW 9481   3.773   5.053   3.549
 3161WAT    HW1 9482   3.857   5.096   3.535
 3161WAT    HW2 9483   3.796   4.964   3.576
 3162WAT     OW 9484   2.194   6.270   4.084
 3162WAT    HW1 9485   2.248   6.204   4.127
 3162WAT    HW2 9486   2.165   6.327   4.155
 3163WAT     OW 9487   3.404   2.452   6.513
 3163WAT    HW1 9488   3.416   2.475   6.606
 3163WAT    HW2 9489   3.315   2.481   6.493
 3164WAT     OW 9490   0.034   4.397   5.679
 3164WAT    HW1 9491   0.116   4.356   5.707
 3164WAT    HW2 9492  -0.008   4.425   5.761
 3165WAT     OW 9493   5.610   5.485   4.506
 3165WAT    HW1 9494   5.540   5.547   4.527
 3165WAT    HW2 9495   5.633   5.505   4.415
 3166WAT     OW 9496   1.950   5.170   3.483
 3166WAT    HW1 9497   2.012   5.239   3.459
 3166WAT    HW2 9498   1.882   5.215   3.533
 3167WAT     OW 9499   3.956   1.156   4.080
 3167WAT    HW1 9500   4.008   1.115   4.150
 3167WAT    HW2 9501   4.021   1.181   4.014
 3168WAT     OW 9502   6.276   0.582   3.322
 3168WAT    HW1 9503   6.231   0.666   3.314
 3168WAT    HW2 9504   6.368   0.602   3.303
 3169WAT     OW 9505   2.809   0.424   1.094
 3169WAT    HW1 9506   2.844   0.492   1.037
 3169WAT    HW2 9507   2.809   0.464   1.181
 3170WAT     OW 9508   6.638   6.654   5.622
 3170WAT    HW1 9509   6.685   6.594   5.680
 3170WAT    HW2 9510   6.591   6.712   5.681
 3171WAT     OW 9511   5.752   6.470   3.380
 3171WAT    HW1 9512   5.842   6.462   3.348
 3171WAT    HW2 9513   5.742   6.563   3.399
 3172WAT     OW 9514   6.067   0.091   4.731
 3172WAT    HW1 9515   5.997   0.128   4.786
 3172WAT    HW2 9516   6.029   0.011   4.695
 3173WAT     OW 9517   4.513   4.315   3.973
 3173WAT    HW1 9518   4.421   4.333   3.990
 3173WAT    HW2 9519   4.528   4.349   3.884
 3174WAT     OW 9520   5.948   0.086   0.301
 3174WAT    HW1 9521   5.883   0.054   0.238
 3174WAT    HW2 9522   5.930   0.037   0.381
 3175WAT     OW 9523   4.995   3.268   5.899
 3175WAT    HW1 9524   4.914   3.299   5.940
 3175WAT    HW2 9525   4.976   3.266   5.806
 3176WAT     OW 9526   3.525   3.611   5.248
 3176WAT    HW1 9527   3.586   3.675   5.214
 3176WAT    HW2 9528   3.508   3.552   5.175
 3177WAT     OW 9529   0.339   4.803   5.394
 3177WAT    HW1 9530   0.363   4.750   5.471
 3177WAT    HW2 9531   0.407   4.784   5.330
 3178WAT     OW 9532   0.841   3.248   5.658
 3178WAT    HW1 9533   0.843   3.223   5.565
 3178WAT    HW2 9534   0.771   3.196   5.696
 3179WAT     OW 9535   0.919   2.193   1.313
 3179WAT    HW1 9536   1.000   2.244   1.311
 3179WAT    HW2 9537   0.947   2.102   1.300
 3180WAT     OW 9538   1.525   4.798   6.706
 3180WAT    HW1 9539   1.516   4.840   6.792
 3180WAT    HW2 9540   1.476   4.855   6.647
 3181WAT     OW 9541   0.962   0.762   1.434
 3181WAT    HW1 9542   0.952   0.667   1.438
 3181WAT    HW2 9543   1.056   0.776   1.436
 3182WAT     OW 9544   0.342   6.245   0.261
 3182WAT    HW1 9545   0.328   6.187   0.186
 3182WAT    HW2 9546   0.437   6.251   0.270
 3183WAT     OW 9547   0.600   6.684   1.183
 3183WAT    HW1 9548   0.618   6.675   1.277
 3183WAT    HW2 9549   0.686   6.698   1.144
 3184WAT     OW 9550   5.219   3.387   5.334
 3184WAT    HW1 9551   5.307   3.378   5.297
 3184WAT    HW2 9552   5.227   3.462   5.394
 3185WAT     OW 9553   4.873   2.037   3.086
 3185WAT    HW1 9554   4.856   2.092   3.163
 3185WAT    HW2 9555   4.965   2.054   3.065
 3186WAT     OW 9556   4.731   4.351   2.383
 3186WAT    HW1 9557   4.806   4.293   2.395
 3186WAT    HW2 9558   4.656   4.299   2.410
 3187WAT     OW 9559   1.446   3.175   2.688
 3187WAT    HW1 9560   1.445   3.245   2.752
 3187WAT    HW2 9561   1.356   3.171   2.655
 3188WAT     OW 9562   3.739   1.790   6.067
 3188WAT    HW1 9563   3.647   1.810   6.050
 3188WAT    HW2 9564   3.775   1.869   6.107
 3189WAT     OW 9565   5.320   6.596   1.213
 3189WAT    HW1 9566   5.355   6.527   1.269
 3189WAT    HW2 9567   5.367   6.675   1.240
 3190WAT     OW 9568   4.457   3.504   0.223
 3190WAT    HW1 9569   4.374   3.536   0.188
 3190WAT    HW2 9570   4.519   3.574   0.205
 3191WAT     OW 9571   2.846   0.404   1.518
 3191WAT    HW1 9572   2.920   0.373   1.570
 3191WAT    HW2 9573   2.829   0.492   1.549
 3192WAT     OW 9574   5.648   3.957   5.862
 3192WAT    HW1 9575   5.710   3.892   5.829
 3192WAT    HW2 9576   5.648   3.944   5.957
 3193WAT     OW 9577   6.643   4.201   0.325
 3193WAT    HW1 9578   6.586   4.222   0.251
 3193WAT    HW2 9579   6.680   4.115   0.303
 3194WAT     OW 9580   1.827   4.285   3.926
 3194WAT    HW1 9581   1.769   4.352   3.889
 3194WAT    HW2 9582   1.830   4.216   3.860
 3195WAT     OW 9583   2.420   3.598   6.003
 3195WAT    HW1 9584   2.422   3.503   5.992
 3195WAT    HW2 9585   2.328   3.618   6.021
 3196WAT     OW 9586   6.243   5.858   6.137
 3196WAT    HW1 9587   6.148   5.863   6.123
 3196WAT    HW2 9588   6.252   5.816   6.223
 3197WAT     OW 9589   0.711   3.339   4.361
 3197WAT    HW1 9590   0.775   3.347   4.431
 3197WAT    HW2 9591   0.752   3.283   4.296
 3198WAT     OW 9592   0.808   3.029   5.977
 3198WAT    HW1 9593   0.756   3.060   5.903
 3198WAT    HW2 9594   0.798   2.933   5.975
 3199WAT     OW 9595   0.566   1.266   2.441
 3199WAT    HW1 9596   0.584   1.181   2.480
 3199WAT    HW2 9597   0.471   1.269   2.433
 3200WAT     OW 9598   6.323   1.520   0.511
 3200WAT    HW1 9599   6.382   1.485   0.577
 3200WAT    HW2 9600   6.346   1.612   0.504
 3201WAT     OW 9601   0.602   3.566   2.845
 3201WAT    HW1 9602   0.537   3.539   2.910
 3201WAT    HW2 9603   0.676   3.597   2.897
 3202WAT     OW 9604   6.556   0.306   5.268
 3202WAT    HW1 9605   6.609   0.238   5.226
 3202WAT    HW2 9606   6.469   0.268   5.276
 3203WAT     OW 9607   1.092   3.777   6.067
 3203WAT    HW1 9608   1.141   3.707   6.111
 3203WAT    HW2 9609   1.088   3.749   5.975
 3204WAT     OW 9610   0.968   3.644   6.536
 3204WAT    HW1 9611   0.967   3.730   6.493
 3204WAT    HW2 9612   0.920   3.587   6.477
 3205WAT     OW 9613   1.949   3.114   2.582
 3205WAT    HW1 9614   2.018   3.138   2.643
 3205WAT    HW2 9615   1.869   3.150   2.621
 3206WAT     OW 9616   3.444   5.281   2.501
 3206WAT    HW1 9617   3.419   5.329   2.580
 3206WAT    HW2 9618   3.409   5.334   2.429
 3207WAT     OW 9619   2.694   1.809   0.752
 3207WAT    HW1 9620   2.652   1.878   0.804
 3207WAT    HW2 9621   2.678   1.834   0.661
 3208WAT     OW 9622   5.855   2.595   6.158
 3208WAT    HW1 9623   5.874   2.689   6.164
 3208WAT    HW2 9624   5.938   2.555   6.135
 3209WAT     OW 9625   2.132   2.609   4.049
 3209WAT    HW1 9626   2.121   2.516   4.028
 3209WAT    HW2 9627   2.091   2.655   3.976
 3210WAT     OW 9628   5.612   4.701   0.529
 3210WAT    HW1 9629   5.626   4.650   0.609
 3210WAT    HW2 9630   5.684   4.676   0.471
 3211WAT     OW 9631   1.355   2.461   0.129
 3211WAT    HW1 9632   1.341   2.488   0.038
 3211WAT    HW2 9633   1.267   2.457   0.167
 3212WAT     OW 9634   0.600   5.894   6.475
 3212WAT    HW1 9635   0.643   5.849   6.402
 3212WAT    HW2 9636   0.604   5.987   6.453
 3213WAT     OW 9637   3.752   2.576   5.666
 3213WAT    HW1 9638   3.738   2.664   5.629
 3213WAT    HW2 9639   3.676   2.561   5.722
 3214WAT     OW 9640   1.456   3.353   2.249
 3214WAT    HW1 9641   1.510   3.312   2.316
 3214WAT    HW2 9642   1.486   3.444   2.246
 3215WAT     OW 9643   4.758   0.488   5.510
 3215WAT    HW1 9644   4.722   0.542   5.580
 3215WAT    HW2 9645   4.822   0.431   5.554
 3216WAT     OW 9646   2.377   0.048   0.996
 3216WAT    HW1 9647   2.340   0.127   1.034
 3216WAT    HW2 9648   2.396  -0.008   1.071
 3217WAT     OW 9649   4.985   1.665   3.295
 3217WAT    HW1 9650   5.013   1.579   3.263
 3217WAT    HW2 9651   4.923   1.696   3.228
 3218WAT     OW 9652   0.270   2.548   4.709
 3218WAT    HW1 9653   0.249   2.525   4.618
 3218WAT    HW2 9654   0.286   2.642   4.707
 3219WAT     OW 9655   6.698   0.035   3.108
 3219WAT    HW1 9656   6.787   0.010   3.132
 3219WAT    HW2 9657   6.684   0.119   3.152
 3220WAT     OW 9658   6.153   5.704   5.718
 3220WAT    HW1 9659   6.134   5.798   5.727
 3220WAT    HW2 9660   6.083   5.671   5.662
 3221WAT     OW 9661   3.813   4.537   4.376
 3221WAT    HW1 9662   3.841   4.602   4.312
 3221WAT    HW2 9663   3.894   4.511   4.420
 3222WAT     OW 9664   6.570   3.719   0.531
 3222WAT    HW1 9665   6.631   3.716   0.458
 3222WAT    HW2 9666   6.490   3.678   0.498
 3223WAT     OW 9667   6.531   3.380   1.094
 3223WAT    HW1 9668   6.605   3.358   1.038
 3223WAT    HW2 9669   6.560   3.357   1.182
 3224WAT     OW 9670   0.434   5.534   6.043
 3224WAT    HW1 9671   0.379   5.590   5.989
 3224WAT    HW2 9672   0.493   5.491   5.980
 3225WAT     OW 9673   6.163   5.018   1.191
 3225WAT    HW1 9674   6.073   5.020   1.224
 3225WAT    HW2 9675   6.217   5.045   1.265
 3226WAT     OW 9676   6.504   0.521   4.074
 3226WAT    HW1 9677   6.437   0.458   4.048
 3226WAT    HW2 9678   6.585   0.471   4.074
 3227WAT     OW 9679   0.137   3.038   0.805
 3227WAT    HW1 9680   0.113   2.946   0.798
 3227WAT    HW2 9681   0.197   3.053   0.732
 3228WAT     OW 9682   5.882   6.146   6.313
 3228WAT    HW1 9683   5.864   6.222   6.258
 3228WAT    HW2 9684   5.839   6.073   6.268
 3229WAT     OW 9685   1.190   0.651   4.552
 3229WAT    HW1 9686   1.158   0.687   4.634
 3229WAT    HW2 9687   1.127   0.681   4.486
 3230WAT     OW 9688   5.745   0.379   5.452
 3230WAT    HW1 9689   5.713   0.308   5.396
 3230WAT    HW2 9690   5.788   0.439   5.391
 3231WAT     OW 9691   5.681   0.653   6.543
 3231WAT    HW1 9692   5.758   0.651   6.599
 3231WAT    HW2 9693   5.713   0.627   6.457
 3232WAT     OW 9694   4.816   0.390   5.062
 3232WAT    HW1 9695   4.793   0.447   4.988
 3232WAT    HW2 9696   4.910   0.403   5.073
 3233WAT     OW 9697   2.774   3.051   2.488
 3233WAT    HW1 9698   2.810   2.991   2.423
 3233WAT    HW2 9699   2.845   3.067   2.550
 3234WAT     OW 9700   1.575   1.392   1.679
 3234WAT    HW1 9701   1.623   1.390   1.597
 3234WAT    HW2 9702   1.577   1.301   1.711
 3235WAT     OW 9703   3.197   5.730   5.709
 3235WAT    HW1 9704   3.150   5.811   5.691
 3235WAT    HW2 9705   3.141   5.661   5.674
 3236WAT     OW 9706   0.228   2.672   6.432
 3236WAT    HW1 9707   0.171   2.740   6.397
 3236WAT    HW2 9708   0.172   2.594   6.438
 3237WAT     OW 9709   5.792   6.210   1.732
 3237WAT    HW1 9710   5.840   6.137   1.693
 3237WAT    HW2 9711   5.700   6.184   1.724
 3238WAT     OW 9712   5.343   3.475   2.696
 3238WAT    HW1 9713   5.347   3.481   2.791
 3238WAT    HW2 9714   5.371   3.386   2.675
 3239WAT     OW 9715   5.823   4.391   4.720
 3239WAT    HW1 9716   5.811   4.322   4.786
 3239WAT    HW2 9717   5.825   4.472   4.770
 3240WAT     OW 9718   3.080   3.307   3.162
 3240WAT    HW1 9719   3.096   3.311   3.257
 3240WAT    HW2 9720   3.004   3.249   3.154
 3241WAT     OW 9721   4.804   1.904   4.702
 3241WAT    HW1 9722   4.793   1.879   4.794
 3241WAT    HW2 9723   4.815   1.822   4.655
 3242WAT     OW 9724   3.509   6.035   1.437
 3242WAT    HW1 9725   3.539   6.087   1.362
 3242WAT    HW2 9726   3.498   6.098   1.507
 3243WAT     OW 9727   1.459   1.060   0.123
 3243WAT    HW1 9728   1.377   1.014   0.101
 3243WAT    HW2 9729   1.509   0.997   0.174
 3244WAT     OW 9730   6.337   5.335   2.663
 3244WAT    HW1 9731   6.320   5.323   2.756
 3244WAT    HW2 9732   6.250   5.345   2.624
 3245WAT     OW 9733   3.519   5.331   1.338
 3245WAT    HW1 9734   3.500   5.240   1.361
 3245WAT    HW2 9735   3.441   5.360   1.290
 3246WAT     OW 9736   2.436   1.464   5.497
 3246WAT    HW1 9737   2.403   1.374   5.489
 3246WAT    HW2 9738   2.485   1.479   5.417
 3247WAT     OW 9739   4.501   3.012   0.047
 3247WAT    HW1 9740   4.501   3.094   0.095
 3247WAT    HW2 9741   4.568   2.958   0.089
 3248WAT     OW 9742   1.264   2.263   2.119
 3248WAT    HW1 9743   1.350   2.235   2.088
 3248WAT    HW2 9744   1.284   2.323   2.192
 3249WAT     OW 9745   1.925   3.480   2.702
 3249WAT    HW1 9746   1.876   3.449   2.626
 3249WAT    HW2 9747   2.017   3.473   2.677
 3250WAT     OW 9748   2.291   0.933   3.042
 3250WAT    HW1 9749   2.241   0.991   2.984
 3250WAT    HW2 9750   2.235   0.921   3.118
 3251WAT     OW 9751   3.913   4.337   4.810
 3251WAT    HW1 9752   3.824   4.340   4.775
 3251WAT    HW2 9753   3.915   4.258   4.865
 3252WAT     OW 9754   3.826   6.153   6.610
 3252WAT    HW1 9755   3.806   6.072   6.658
 3252WAT    HW2 9756   3.863   6.124   6.528
 3253WAT     OW 9757   6.479   0.835   5.733
 3253WAT    HW1 9758   6.423   0.758   5.723
 3253WAT    HW2 9759   6.567   0.799   5.745
 3254WAT     OW 9760   5.791   5.304   6.372
 3254WAT    HW1 9761   5.757   5.306   6.462
 3254WAT    HW2 9762   5.714   5.313   6.317
 3255WAT     OW 9763   2.214   0.822   5.542
 3255WAT    HW1 9764   2.184   0.737   5.509
 3255WAT    HW2 9765   2.168   0.886   5.489
 3256WAT     OW 9766   3.853   0.363   2.427
 3256WAT    HW1 9767   3.825   0.371   2.518
 3256WAT    HW2 9768   3.809   0.284   2.395
 3257WAT     OW 9769   3.715   1.790   0.941
 3257WAT    HW1 9770   3.626   1.773   0.971
 3257WAT    HW2 9771   3.765   1.801   1.022
 3258WAT     OW 9772   0.236   3.966   1.714
 3258WAT    HW1 9773   0.234   4.017   1.634
 3258WAT    HW2 9774   0.157   3.913   1.712
 3259WAT     OW 9775   3.629   6.054   5.015
 3259WAT    HW1 9776   3.555   6.028   4.960
 3259WAT    HW2 9777   3.647   5.978   5.070
 3260WAT     OW 9778   6.134   3.497   1.488
 3260WAT    HW1 9779   6.085   3.562   1.539
 3260WAT    HW2 9780   6.138   3.420   1.544
 3261WAT     OW 9781   4.005   5.306   0.403
 3261WAT    HW1 9782   4.068   5.249   0.447
 3261WAT    HW2 9783   3.966   5.358   0.474
 3262WAT     OW 9784   4.145   6.338   0.626
 3262WAT    HW1 9785   4.079   6.388   0.675
 3262WAT    HW2 9786   4.103   6.322   0.541
 3263WAT     OW 9787   2.171   4.371   0.189
 3263WAT    HW1 9788   2.205   4.369   0.099
 3263WAT    HW2 9789   2.085   4.413   0.181
 3264WAT     OW 9790   1.545   2.772   5.276
 3264WAT    HW1 9791   1.552   2.858   5.317
 3264WAT    HW2 9792   1.556   2.789   5.183
 3265WAT     OW 9793   0.197   6.437   4.693
 3265WAT    HW1 9794   0.247   6.359   4.715
 3265WAT    HW2 9795   0.111   6.423   4.733
 3266WAT     OW 9796   6.680   0.640   1.085
 3266WAT    HW1 9797   6.645   0.644   0.996
 3266WAT    HW2 9798   6.726   0.724   1.096
 3267WAT     OW 9799   4.259   2.278   5.620
 3267WAT    HW1 9800   4.199   2.205   5.605
 3267WAT    HW2 9801   4.344   2.245   5.592
 3268WAT     OW 9802   5.276   6.514   3.812
 3268WAT    HW1 9803   5.286   6.477   3.724
 3268WAT    HW2 9804   5.307   6.444   3.870
 3269WAT     OW 9805   5.667   0.673   6.037
 3269WAT    HW1 9806   5.663   0.736   5.965
 3269WAT    HW2 9807   5.735   0.611   6.011
 3270WAT     OW 9808   5.558   6.383   0.487
 3270WAT    HW1 9809   5.611   6.453   0.446
 3270WAT    HW2 9810   5.468   6.406   0.464
 3271WAT     OW 9811   0.512   5.112   6.223
 3271WAT    HW1 9812   0.425   5.073   6.224
 3271WAT    HW2 9813   0.554   5.079   6.303
 3272WAT     OW 9814   4.126   6.666   0.473
 3272WAT    HW1 9815   4.156   6.754   0.452
 3272WAT    HW2 9816   4.131   6.660   0.568
 3273WAT     OW 9817   3.512   2.261   2.020
 3273WAT    HW1 9818   3.467   2.203   2.081
 3273WAT    HW2 9819   3.472   2.347   2.035
 3274WAT     OW 9820   4.547   3.387   2.967
 3274WAT    HW1 9821   4.563   3.314   2.907
 3274WAT    HW2 9822   4.460   3.370   3.003
 3275WAT     OW 9823   5.017   0.189   5.423
 3275WAT    HW1 9824   4.938   0.215   5.376
 3275WAT    HW2 9825   4.993   0.106   5.465
 3276WAT     OW 9826   0.717   0.864   5.473
 3276WAT    HW1 9827   0.686   0.775   5.483
 3276WAT    HW2 9828   0.645   0.919   5.504
 3277WAT     OW 9829   4.103   1.474   4.606
 3277WAT    HW1 9830   4.111   1.569   4.597
 3277WAT    HW2 9831   4.191   1.445   4.630
 3278WAT     OW 9832   3.530   1.133   4.384
 3278WAT    HW1 9833   3.623   1.113   4.392
 3278WAT    HW2 9834   3.503   1.088   4.303
 3279WAT     OW 9835   6.163   1.029   2.299
 3279WAT    HW1 9836   6.203   0.952   2.340
 3279WAT    HW2 9837   6.216   1.103   2.330
 3280WAT     OW 9838   4.516   1.224   4.086
 3280WAT    HW1 9839   4.543   1.289   4.021
 3280WAT    HW2 9840   4.488   1.276   4.162
 3281WAT     OW 9841   5.794   3.310   1.294
 3281WAT    HW1 9842   5.802   3.215   1.296
 3281WAT    HW2 9843   5.732   3.327   1.223
 3282WAT     OW 9844   6.519   5.200   1.563
 3282WAT    HW1 9845   6.504   5.263   1.634
 3282WAT    HW2 9846   6.587   5.241   1.509
 3283WAT     OW 9847   6.030   5.846   1.237
 3283WAT    HW1 9848   5.992   5.768   1.275
 3283WAT    HW2 9849   5.981   5.919   1.276
 3284WAT     OW 9850   5.102   4.931   5.208
 3284WAT    HW1 9851   5.180   4.890   5.244
 3284WAT    HW2 9852   5.129   4.962   5.121
 3285WAT     OW 9853   6.551   3.381   4.926
 3285WAT    HW1 9854   6.571   3.383   5.019
 3285WAT    HW2 9855   6.636   3.387   4.882
 3286WAT     OW 9856   1.535   3.081   5.848
 3286WAT    HW1 9857   1.578   3.032   5.778
 3286WAT    HW2 9858   1.449   3.040   5.857
 3287WAT     OW 9859   1.812   1.500   4.496
 3287WAT    HW1 9860   1.777   1.560   4.562
 3287WAT    HW2 9861   1.846   1.426   4.546
 3288WAT     OW 9862   4.799   0.121   4.991
 3288WAT    HW1 9863   4.806   0.214   5.014
 3288WAT    HW2 9864   4.720   0.116   4.937
 3289WAT     OW 9865   5.048   0.343   5.904
 3289WAT    HW1 9866   5.108   0.406   5.863
 3289WAT    HW2 9867   5.087   0.326   5.990
 3290WAT     OW 9868   0.451   6.722   1.678
 3290WAT    HW1 9869   0.490   6.688   1.598
 3290WAT    HW2 9870   0.507   6.796   1.703
 3291WAT     OW 9871   2.736   0.814   3.261
 3291WAT    HW1 9872   2.661   0.873   3.250
 3291WAT    HW2 9873   2.769   0.801   3.172
 3292WAT     OW 9874   2.567   0.425   1.535
 3292WAT    HW1 9875   2.660   0.411   1.523
 3292WAT    HW2 9876   2.558   0.454   1.626
 3293WAT     OW 9877   1.192   5.132   4.516
 3293WAT    HW1 9878   1.266   5.072   4.524
 3293WAT    HW2 9879   1.222   5.200   4.456
 3294WAT     OW 9880   5.426   2.328   1.552
 3294WAT    HW1 9881   5.518   2.352   1.539
 3294WAT    HW2 9882   5.394   2.306   1.465
 3295WAT     OW 9883   4.398   1.583   0.252
 3295WAT    HW1 9884   4.368   1.511   0.196
 3295WAT    HW2 9885   4.462   1.629   0.198
 3296WAT     OW 9886   4.217   0.960   1.879
 3296WAT    HW1 9887   4.267   1.040   1.895
 3296WAT    HW2 9888   4.280   0.889   1.891
 3297WAT     OW 9889   5.561   6.402   2.601
 3297WAT    HW1 9890   5.554   6.331   2.664
 3297WAT    HW2 9891   5.470   6.429   2.585
 3298WAT     OW 9892   4.872   4.247   4.583
 3298WAT    HW1 9893   4.942   4.204   4.533
 3298WAT    HW2 9894   4.816   4.175   4.611
 3299WAT     OW 9895   6.302   1.251   1.295
 3299WAT    HW1 9896   6.393   1.278   1.305
 3299WAT    HW2 9897   6.285   1.254   1.201
 3300WAT     OW 9898   5.445   5.202   4.166
 3300WAT    HW1 9899   5.381   5.224   4.233
 3300WAT    HW2 9900   5.499   5.134   4.205
 3301WAT     OW 9901   1.990   4.869   2.715
 3301WAT    HW1 9902   2.079   4.903   2.721
 3301WAT    HW2 9903   1.999   4.776   2.734
 3302WAT     OW 9904   0.737   1.635   4.766
 3302WAT    HW1 9905   0.760   1.619   4.858
 3302WAT    HW2 9906   0.754   1.551   4.722
 3303WAT     OW 9907   2.752   0.010   5.264
 3303WAT    HW1 9908   2.844   0.029   5.247
 3303WAT    HW2 9909   2.753  -0.045   5.342
 3304WAT     OW 9910   4.526   6.310   5.886
 3304WAT    HW1 9911   4.523   6.350   5.972
 3304WAT    HW2 9912   4.602   6.252   5.889
 3305WAT     OW 9913   3.051   1.205   0.823
 3305WAT    HW1 9914   3.012   1.140   0.882
 3305WAT    HW2 9915   3.139   1.171   0.806
 3306WAT     OW 9916   0.338   3.779   0.064
 3306WAT    HW1 9917   0.301   3.865   0.083
 3306WAT    HW2 9918   0.411   3.770   0.126
 3307WAT     OW 9919   3.069   4.268   0.756
 3307WAT    HW1 9920   3.024   4.331   0.701
 3307WAT    HW2 9921   3.001   4.233   0.814
 3308WAT     OW 9922   2.640   1.896   0.505
 3308WAT    HW1 9923   2.580   1.968   0.486
 3308WAT    HW2 9924   2.677   1.873   0.419
 3309WAT     OW 9925   5.855   3.402   3.165
 3309WAT    HW1 9926   5.935   3.393   3.216
 3309WAT    HW2 9927   5.825   3.312   3.151
 3310WAT     OW 9928   1.483   5.418   6.677
 3310WAT    HW1 9929   1.503   5.378   6.761
 3310WAT    HW2 9930   1.395   5.388   6.656
 3311WAT     OW 9931   0.767   2.301   1.743
 3311WAT    HW1 9932   0.789   2.327   1.832
 3311WAT    HW2 9933   0.674   2.280   1.746
 3312WAT     OW 9934   1.520   5.309   1.485
 3312WAT    HW1 9935   1.480   5.373   1.545
 3312WAT    HW2 9936   1.446   5.256   1.454
 3313WAT     OW 9937   6.358   4.041   6.593
 3313WAT    HW1 9938   6.323   4.049   6.682
 3313WAT    HW2 9939   6.291   4.080   6.537
 3314WAT     OW 9940   0.764   1.660   6.072
 3314WAT    HW1 9941   0.730   1.719   6.004
 3314WAT    HW2 9942   0.811   1.592   6.023
 3315WAT     OW 9943   5.268   4.602   0.321
 3315WAT    HW1 9944   5.281   4.677   0.262
 3315WAT    HW2 9945   5.255   4.528   0.262
 3316WAT     OW 9946   5.173   6.277   1.538
 3316WAT    HW1 9947   5.156   6.332   1.461
 3316WAT    HW2 9948   5.250   6.225   1.514
 3317WAT     OW 9949   3.860   0.296   5.999
 3317WAT    HW1 9950   3.898   0.353   5.932
 3317WAT    HW2 9951   3.915   0.311   6.077
 3318WAT     OW 9952   6.144   5.893   4.146
 3318WAT    HW1 9953   6.237   5.916   4.143
 3318WAT    HW2 9954   6.103   5.964   4.196
 3319WAT     OW 9955   6.201   2.752   5.573
 3319WAT    HW1 9956   6.196   2.721   5.482
 3319WAT    HW2 9957   6.253   2.832   5.568
 3320WAT     OW 9958   0.119   0.933   2.243
 3320WAT    HW1 9959   0.101   0.850   2.287
 3320WAT    HW2 9960   0.121   0.910   2.150
 3321WAT     OW 9961   3.089   4.314   3.407
 3321WAT    HW1 9962   2.994   4.312   3.419
 3321WAT    HW2 9963   3.112   4.223   3.386
 3322WAT     OW 9964   1.108   4.877   6.445
 3322WAT    HW1 9965   1.103   4.908   6.536
 3322WAT    HW2 9966   1.018   4.881   6.413
 3323WAT     OW 9967   3.647   0.425   2.913
 3323WAT    HW1 9968   3.613   0.503   2.958
 3323WAT    HW2 9969   3.639   0.355   2.977
 3324WAT     OW 9970   1.791   2.082   4.289
 3324WAT    HW1 9971   1.848   2.020   4.244
 3324WAT    HW2 9972   1.848   2.156   4.310
 3325WAT     OW 9973   6.199   1.295   5.450
 3325WAT    HW1 9974   6.173   1.224   5.508
 3325WAT    HW2 9975   6.294   1.297   5.455
 3326WAT     OW 9976   0.923   0.465   4.305
 3326WAT    HW1 9977   0.941   0.558   4.319
 3326WAT    HW2 9978   0.871   0.462   4.225
 3327WAT     OW 9979   4.862   4.804   5.284
 3327WAT    HW1 9980   4.794   4.797   5.217
 3327WAT    HW2 9981   4.935   4.849   5.240
 3328WAT     OW 9982   5.861   5.708   4.337
 3328WAT    HW1 9983   5.922   5.638   4.312
 3328WAT    HW2 9984   5.776   5.678   4.306
 3329WAT     OW 9985   1.880   6.618   0.949
 3329WAT    HW1 9986   1.813   6.573   1.000
 3329WAT    HW2 9987   1.883   6.707   0.985
 3330WAT     OW 9988   5.347   0.629   0.473
 3330WAT    HW1 9989   5.365   0.682   0.551
 3330WAT    HW2 9990   5.259   0.653   0.446
 3331WAT     OW 9991   2.331   1.274   2.822
 3331WAT    HW1 9992   2.293   1.360   2.805
 3331WAT    HW2 9993   2.386   1.287   2.900
 3332WAT     OW 9994   0.744   4.150   3.652
 3332WAT    HW1 9995   0.711   4.125   3.566
 3332WAT    HW2 9996   0.819   4.208   3.633
 3333WAT     OW 9997   4.288   6.313   1.891
 3333WAT    HW1 9998   4.364   6.258   1.872
 3333WAT    HW2 9999   4.268   6.356   1.809
 3334WAT     OW10000   6.673   3.000   5.153
 3334WAT    HW110001   6.695   3.041   5.070
 3334WAT    HW210002   6.676   2.906   5.135
 3335WAT     OW10003   2.953   5.765   1.701
 3335WAT    HW110004   2.916   5.745   1.787
 3335WAT    HW210005   2.910   5.846   1.673
 3336WAT     OW10006   5.310   1.696   5.072
 3336WAT    HW110007   5.397   1.678   5.107
 3336WAT    HW210008   5.316   1.784   5.034
 3337WAT     OW10009   2.407   2.871   0.106
 3337WAT    HW110010   2.439   2.786   0.137
 3337WAT    HW210011   2.345   2.850   0.036
 3338WAT     OW10012   0.021   4.430   1.250
 3338WAT    HW110013   0.011   4.468   1.337
 3338WAT    HW210014   0.023   4.336   1.265
 3339WAT     OW10015   2.701   1.187   5.697
 3339WAT    HW110016   2.730   1.134   5.772
 3339WAT    HW210017   2.663   1.124   5.636
 3340WAT     OW10018   0.926   2.579   3.099
 3340WAT    HW110019   0.891   2.508   3.153
 3340WAT    HW210020   0.986   2.535   3.039
 3341WAT     OW10021   0.130   3.734   2.714
 3341WAT    HW110022   0.056   3.722   2.654
 3341WAT    HW210023   0.187   3.797   2.670
 3342WAT     OW10024   2.684   6.497   4.623
 3342WAT    HW110025   2.685   6.549   4.542
 3342WAT    HW210026   2.774   6.502   4.655
 3343WAT     OW10027   6.326   6.325   3.621
 3343WAT    HW110028   6.352   6.324   3.529
 3343WAT    HW210029   6.309   6.233   3.642
 3344WAT     OW10030   0.762   1.931   5.065
 3344WAT    HW110031   0.681   1.968   5.030
 3344WAT    HW210032   0.831   1.966   5.008
 3345WAT     OW10033   4.287   4.659   3.485
 3345WAT    HW110034   4.381   4.645   3.471
 3345WAT    HW210035   4.247   4.575   3.461
 3346WAT     OW10036   2.959   0.979   6.335
 3346WAT    HW110037   2.986   0.957   6.246
 3346WAT    HW210038   2.980   0.901   6.387
 3347WAT     OW10039   3.904   1.310   3.716
 3347WAT    HW110040   3.973   1.266   3.766
 3347WAT    HW210041   3.951   1.367   3.656
 3348WAT     OW10042   0.946   4.362   2.334
 3348WAT    HW110043   0.872   4.340   2.391
 3348WAT    HW210044   1.003   4.415   2.389
 3349WAT     OW10045   5.327   4.629   3.471
 3349WAT    HW110046   5.272   4.697   3.431
 3349WAT    HW210047   5.275   4.549   3.464
 3350WAT     OW10048   4.545   4.762   6.507
 3350WAT    HW110049   4.599   4.713   6.446
 3350WAT    HW210050   4.463   4.713   6.511
 3351WAT     OW10051   4.541   2.452   2.909
 3351WAT    HW110052   4.536   2.356   2.900
 3351WAT    HW210053   4.587   2.481   2.830
 3352WAT     OW10054   2.140   4.083   5.390
 3352WAT    HW110055   2.090   4.162   5.412
 3352WAT    HW210056   2.220   4.116   5.349
 3353WAT     OW10057   6.182   0.407   0.450
 3353WAT    HW110058   6.232   0.461   0.512
 3353WAT    HW210059   6.249   0.357   0.404
 3354WAT     OW10060   6.089   6.121   4.907
 3354WAT    HW110061   6.056   6.123   4.817
 3354WAT    HW210062   6.040   6.190   4.952
 3355WAT     OW10063   1.099   2.578   5.859
 3355WAT    HW110064   1.043   2.632   5.803
 3355WAT    HW210065   1.079   2.608   5.948
 3356WAT     OW10066   2.086   3.539   0.437
 3356WAT    HW110067   2.153   3.476   0.411
 3356WAT    HW210068   2.115   3.571   0.522
 3357WAT     OW10069   1.784   0.670   4.279
 3357WAT    HW110070   1.832   0.592   4.254
 3357WAT    HW210071   1.717   0.639   4.339
 3358WAT     OW10072   5.570   5.757   3.252
 3358WAT    HW110073   5.609   5.788   3.333
 3358WAT    HW210074   5.618   5.677   3.231
 3359WAT     OW10075   2.477   4.325   5.999
 3359WAT    HW110076   2.481   4.266   6.074
 3359WAT    HW210077   2.434   4.274   5.930
 3360WAT     OW10078   2.295   0.097   3.743
 3360WAT    HW110079   2.335   0.035   3.682
 3360WAT    HW210080   2.238   0.151   3.687
 3361WAT     OW10081   4.409   1.771   3.678
 3361WAT    HW110082   4.313   1.769   3.675
 3361WAT    HW210083   4.436   1.774   3.586
 3362WAT     OW10084   1.519   2.170   2.057
 3362WAT    HW110085   1.599   2.193   2.010
 3362WAT    HW210086   1.539   2.187   2.149
 3363WAT     OW10087   4.758   1.977   5.698
 3363WAT    HW110088   4.839   1.963   5.745
 3363WAT    HW210089   4.699   2.018   5.762
 3364WAT     OW10090   1.347   4.505   3.351
 3364WAT    HW110091   1.304   4.570   3.296
 3364WAT    HW210092   1.278   4.442   3.372
 3365WAT     OW10093   5.914   4.700   5.286
 3365WAT    HW110094   5.884   4.629   5.342
 3365WAT    HW210095   5.956   4.761   5.346
 3366WAT     OW10096   1.206   4.488   6.709
 3366WAT    HW110097   1.296   4.496   6.741
 3366WAT    HW210098   1.207   4.533   6.624
 3367WAT     OW10099   2.214   6.699   4.497
 3367WAT    HW110100   2.129   6.679   4.458
 3367WAT    HW210101   2.268   6.621   4.478
 3368WAT     OW10102   0.456   6.231   6.572
 3368WAT    HW110103   0.510   6.194   6.502
 3368WAT    HW210104   0.410   6.304   6.530
 3369WAT     OW10105   6.695   1.439   5.465
 3369WAT    HW110106   6.736   1.352   5.463
 3369WAT    HW210107   6.763   1.497   5.500
 3370WAT     OW10108   1.310   2.842   6.595
 3370WAT    HW110109   1.326   2.928   6.634
 3370WAT    HW210110   1.261   2.861   6.515
 3371WAT     OW10111   2.914   2.001   3.466
 3371WAT    HW110112   2.874   1.915   3.479
 3371WAT    HW210113   2.865   2.040   3.393
 3372WAT     OW10114   0.802   1.341   1.555
 3372WAT    HW110115   0.832   1.297   1.476
 3372WAT    HW210116   0.847   1.426   1.554
 3373WAT     OW10117   4.958   2.206   4.376
 3373WAT    HW110118   4.872   2.219   4.335
 3373WAT    HW210119   5.011   2.165   4.307
 3374WAT     OW10120   2.321   1.147   0.685
 3374WAT    HW110121   2.293   1.057   0.674
 3374WAT    HW210122   2.416   1.144   0.675
 3375WAT     OW10123   3.673   1.820   0.664
 3375WAT    HW110124   3.680   1.831   0.759
 3375WAT    HW210125   3.635   1.733   0.651
 3376WAT     OW10126   5.238   3.599   5.503
 3376WAT    HW110127   5.223   3.599   5.597
 3376WAT    HW210128   5.329   3.629   5.494
 3377WAT     OW10129   1.320   6.544   1.099
 3377WAT    HW110130   1.299   6.629   1.060
 3377WAT    HW210131   1.415   6.548   1.113
 3378WAT     OW10132   0.552   5.979   0.344
 3378WAT    HW110133   0.578   6.057   0.295
 3378WAT    HW210134   0.527   6.013   0.430
 3379WAT     OW10135   4.203   4.018   5.509
 3379WAT    HW110136   4.267   4.058   5.450
 3379WAT    HW210137   4.118   4.050   5.477
 3380WAT     OW10138   3.479   2.740   3.842
 3380WAT    HW110139   3.396   2.704   3.814
 3380WAT    HW210140   3.456   2.806   3.908
 3381WAT     OW10141   1.519   4.635   4.216
 3381WAT    HW110142   1.592   4.689   4.185
 3381WAT    HW210143   1.552   4.545   4.213
 3382WAT     OW10144   6.343   2.617   6.335
 3382WAT    HW110145   6.434   2.639   6.316
 3382WAT    HW210146   6.328   2.534   6.289
 3383WAT     OW10147   6.692   1.693   2.274
 3383WAT    HW110148   6.630   1.627   2.303
 3383WAT    HW210149   6.772   1.644   2.256
 3384WAT     OW10150   3.473   0.079   5.982
 3384WAT    HW110151   3.462   0.087   6.076
 3384WAT    HW210152   3.389   0.108   5.946
 3385WAT     OW10153   0.898   1.619   1.548
 3385WAT    HW110154   0.916   1.579   1.463
 3385WAT    HW210155   0.916   1.712   1.535
 3386WAT     OW10156   2.394   6.643   3.560
 3386WAT    HW110157   2.418   6.566   3.612
 3386WAT    HW210158   2.475   6.670   3.518
 3387WAT     OW10159   5.408   3.444   2.968
 3387WAT    HW110160   5.482   3.492   2.931
 3387WAT    HW210161   5.422   3.447   3.062
 3388WAT     OW10162   2.332   6.257   3.849
 3388WAT    HW110163   2.264   6.219   3.792
 3388WAT    HW210164   2.287   6.275   3.931
 3389WAT     OW10165   0.509   2.979   0.453
 3389WAT    HW110166   0.507   3.004   0.360
 3389WAT    HW210167   0.602   2.974   0.474
 3390WAT     OW10168   0.624   6.319   3.560
 3390WAT    HW110169   0.669   6.335   3.477
 3390WAT    HW210170   0.666   6.379   3.622
 3391WAT     OW10171   4.950   1.143   5.466
 3391WAT    HW110172   5.032   1.191   5.475
 3391WAT    HW210173   4.884   1.200   5.505
 3392WAT     OW10174   4.946   6.535   0.579
 3392WAT    HW110175   4.960   6.523   0.673
 3392WAT    HW210176   4.994   6.464   0.538
 3393WAT     OW10177   3.787   1.123   0.481
 3393WAT    HW110178   3.838   1.182   0.536
 3393WAT    HW210179   3.764   1.175   0.404
 3394WAT     OW10180   1.971   1.168   1.026
 3394WAT    HW110181   2.039   1.182   1.093
 3394WAT    HW210182   1.966   1.073   1.017
 3395WAT     OW10183   3.694   2.573   2.853
 3395WAT    HW110184   3.683   2.653   2.801
 3395WAT    HW210185   3.608   2.532   2.854
 3396WAT     OW10186   3.747   1.513   5.570
 3396WAT    HW110187   3.702   1.492   5.652
 3396WAT    HW210188   3.766   1.428   5.530
 3397WAT     OW10189   0.786   6.583   0.197
 3397WAT    HW110190   0.790   6.509   0.257
 3397WAT    HW210191   0.778   6.660   0.253
 3398WAT     OW10192   4.973   5.236   4.361
 3398WAT    HW110193   4.930   5.190   4.432
 3398WAT    HW210194   4.966   5.329   4.385
 3399WAT     OW10195   0.130   1.041   4.783
 3399WAT    HW110196   0.041   1.054   4.751
 3399WAT    HW210197   0.140   0.946   4.790
 3400WAT     OW10198   2.574   3.791   0.040
 3400WAT    HW110199   2.509   3.848   0.081
 3400WAT    HW210200   2.601   3.730   0.109
 3401WAT     OW10201   2.441   6.249   5.204
 3401WAT    HW110202   2.486   6.329   5.232
 3401WAT    HW210203   2.385   6.225   5.278
 3402WAT     OW10204   5.201   4.087   1.069
 3402WAT    HW110205   5.162   4.137   0.998
 3402WAT    HW210206   5.227   4.004   1.029
 3403WAT     OW10207   3.441   5.487   2.033
 3403WAT    HW110208   3.495   5.566   2.043
 3403WAT    HW210209   3.498   5.425   1.987
 3404WAT     OW10210   5.201   3.128   0.600
 3404WAT    HW110211   5.168   3.198   0.545
 3404WAT    HW210212   5.296   3.136   0.595
 3405WAT     OW10213   4.095   4.513   5.608
 3405WAT    HW110214   4.061   4.600   5.628
 3405WAT    HW210215   4.144   4.488   5.686
 3406WAT     OW10216   1.513   2.343   2.711
 3406WAT    HW110217   1.491   2.413   2.650
 3406WAT    HW210218   1.576   2.289   2.665
 3407WAT     OW10219   4.037   4.683   5.998
 3407WAT    HW110220   4.039   4.594   5.964
 3407WAT    HW210221   4.008   4.673   6.089
 3408WAT     OW10222   0.547   0.873   2.183
 3408WAT    HW110223   0.483   0.942   2.202
 3408WAT    HW210224   0.501   0.792   2.205
 3409WAT     OW10225   3.514   0.228   1.242
 3409WAT    HW110226   3.498   0.268   1.328
 3409WAT    HW210227   3.518   0.302   1.182
 3410WAT     OW10228   6.469   4.396   1.448
 3410WAT    HW110229   6.494   4.311   1.486
 3410WAT    HW210230   6.545   4.452   1.465
 3411WAT     OW10231   6.144   2.407   0.762
 3411WAT    HW110232   6.146   2.314   0.740
 3411WAT    HW210233   6.111   2.449   0.682
 3412WAT     OW10234   2.419   1.479   0.968
 3412WAT    HW110235   2.497   1.494   0.915
 3412WAT    HW210236   2.347   1.508   0.913
 3413WAT     OW10237   3.540   4.589   4.424
 3413WAT    HW110238   3.633   4.586   4.400
 3413WAT    HW210239   3.527   4.510   4.476
 3414WAT     OW10240   5.025   2.993   2.721
 3414WAT    HW110241   5.039   2.978   2.627
 3414WAT    HW210242   4.936   2.963   2.737
 3415WAT     OW10243   6.320   5.596   5.527
 3415WAT    HW110244   6.336   5.671   5.470
 3415WAT    HW210245   6.273   5.632   5.602
 3416WAT     OW10246   0.146   4.556   2.115
 3416WAT    HW110247   0.160   4.509   2.197
 3416WAT    HW210248   0.140   4.488   2.049
 3417WAT     OW10249   4.653   5.228   3.748
 3417WAT    HW110250   4.669   5.176   3.669
 3417WAT    HW210251   4.735   5.223   3.797
 3418WAT     OW10252   5.519   1.412   3.220
 3418WAT    HW110253   5.581   1.346   3.190
 3418WAT    HW210254   5.563   1.495   3.205
 3419WAT     OW10255   2.263   0.623   5.954
 3419WAT    HW110256   2.319   0.699   5.937
 3419WAT    HW210257   2.212   0.612   5.873
 3420WAT     OW10258   0.865   1.508   0.936
 3420WAT    HW110259   0.933   1.568   0.907
 3420WAT    HW210260   0.888   1.425   0.894
 3421WAT     OW10261   6.048   4.791   0.412
 3421WAT    HW110262   6.099   4.782   0.493
 3421WAT    HW210263   6.110   4.772   0.342
 3422WAT     OW10264   1.676   4.716   3.447
 3422WAT    HW110265   1.607   4.657   3.476
 3422WAT    HW210266   1.742   4.712   3.516
 3423WAT     OW10267   6.700   0.545   4.397
 3423WAT    HW110268   6.768   0.496   4.442
 3423WAT    HW210269   6.738   0.631   4.381
 3424WAT     OW10270   4.710   2.992   3.774
 3424WAT    HW110271   4.736   3.033   3.691
 3424WAT    HW210272   4.717   2.898   3.757
 3425WAT     OW10273   0.232   4.946   3.268
 3425WAT    HW110274   0.307   4.967   3.213
 3425WAT    HW210275   0.210   4.855   3.246
 3426WAT     OW10276   5.233   1.858   5.390
 3426WAT    HW110277   5.152   1.809   5.376
 3426WAT    HW210278   5.284   1.804   5.449
 3427WAT     OW10279   3.498   3.383   3.793
 3427WAT    HW110280   3.425   3.438   3.820
 3427WAT    HW210281   3.464   3.294   3.797
 3428WAT     OW10282   3.349   2.686   0.582
 3428WAT    HW110283   3.406   2.667   0.656
 3428WAT    HW210284   3.338   2.781   0.583
 3429WAT     OW10285   0.403   3.829   1.314
 3429WAT    HW110286   0.314   3.862   1.321
 3429WAT    HW210287   0.394   3.734   1.317
 3430WAT     OW10288   6.283   2.091   3.866
 3430WAT    HW110289   6.280   2.081   3.961
 3430WAT    HW210290   6.236   2.015   3.832
 3431WAT     OW10291   0.154   5.623   0.528
 3431WAT    HW110292   0.244   5.591   0.521
 3431WAT    HW210293   0.155   5.708   0.485
 3432WAT     OW10294   6.512   1.090   0.233
 3432WAT    HW110295   6.564   1.010   0.227
 3432WAT    HW210296   6.424   1.064   0.207
 3433WAT     OW10297   2.251   3.387   0.793
 3433WAT    HW110298   2.294   3.322   0.737
 3433WAT    HW210299   2.258   3.351   0.881
 3434WAT     OW10300   0.504   6.153   1.845
 3434WAT    HW110301   0.599   6.143   1.847
 3434WAT    HW210302   0.477   6.144   1.937
 3435WAT     OW10303   1.221   3.939   6.260
 3435WAT    HW110304   1.169   3.888   6.198
 3435WAT    HW210305   1.289   3.980   6.207
 3436WAT     OW10306   0.636   4.923   2.650
 3436WAT    HW110307   0.655   5.016   2.663
 3436WAT    HW210308   0.721   4.884   2.628
 3437WAT     OW10309   5.158   2.343   0.281
 3437WAT    HW110310   5.177   2.339   0.375
 3437WAT    HW210311   5.085   2.404   0.274
 3438WAT     OW10312   5.022   1.385   3.502
 3438WAT    HW110313   5.065   1.410   3.421
 3438WAT    HW210314   5.052   1.295   3.519
 3439WAT     OW10315   1.069   0.941   5.934
 3439WAT    HW110316   1.122   1.015   5.903
 3439WAT    HW210317   1.010   0.922   5.862
 3440WAT     OW10318   3.115   6.080   1.702
 3440WAT    HW110319   3.026   6.056   1.677
 3440WAT    HW210320   3.154   6.117   1.623
 3441WAT     OW10321   1.022   5.436   4.698
 3441WAT    HW110322   0.942   5.398   4.734
 3441WAT    HW210323   1.092   5.376   4.725
 3442WAT     OW10324   3.881   5.530   6.039
 3442WAT    HW110325   3.844   5.484   5.964
 3442WAT    HW210326   3.814   5.522   6.107
 3443WAT     OW10327   4.041   6.464   6.291
 3443WAT    HW110328   4.091   6.385   6.310
 3443WAT    HW210329   4.107   6.532   6.276
 3444WAT     OW10330   1.286   3.614   3.443
 3444WAT    HW110331   1.259   3.591   3.532
 3444WAT    HW210332   1.230   3.561   3.386
 3445WAT     OW10333   0.781   3.752   3.679
 3445WAT    HW110334   0.731   3.696   3.739
 3445WAT    HW210335   0.835   3.805   3.737
 3446WAT     OW10336   3.361   1.130   5.911
 3446WAT    HW110337   3.277   1.169   5.938
 3446WAT    HW210338   3.347   1.036   5.918
 3447WAT     OW10339   2.504   0.246   4.826
 3447WAT    HW110340   2.483   0.200   4.745
 3447WAT    HW210341   2.592   0.217   4.849
 3448WAT     OW10342   0.107   0.994   3.224
 3448WAT    HW110343   0.127   0.972   3.315
 3448WAT    HW210344   0.094   1.089   3.225
 3449WAT     OW10345   0.974   0.211   6.190
 3449WAT    HW110346   0.947   0.247   6.274
 3449WAT    HW210347   1.045   0.269   6.161
 3450WAT     OW10348   6.231   5.632   4.189
 3450WAT    HW110349   6.197   5.720   4.176
 3450WAT    HW210350   6.153   5.576   4.192
 3451WAT     OW10351   3.833   0.535   0.790
 3451WAT    HW110352   3.749   0.513   0.749
 3451WAT    HW210353   3.847   0.627   0.770
 3452WAT     OW10354   4.025   3.379   6.142
 3452WAT    HW110355   4.119   3.387   6.125
 3452WAT    HW210356   3.996   3.469   6.159
 3453WAT     OW10357   6.446   0.086   2.964
 3453WAT    HW110358   6.537   0.072   2.991
 3453WAT    HW210359   6.429   0.017   2.900
 3454WAT     OW10360   3.398   5.213   5.959
 3454WAT    HW110361   3.434   5.302   5.956
 3454WAT    HW210362   3.434   5.170   5.882
 3455WAT     OW10363   5.989   2.733   0.582
 3455WAT    HW110364   5.922   2.745   0.515
 3455WAT    HW210365   6.020   2.644   0.570
 3456WAT     OW10366   6.710   4.156   1.287
 3456WAT    HW110367   6.767   4.079   1.287
 3456WAT    HW210368   6.657   4.147   1.208
 3457WAT     OW10369   2.371   4.225   2.338
 3457WAT    HW110370   2.434   4.273   2.393
 3457WAT    HW210371   2.373   4.136   2.372
 3458WAT     OW10372   2.770   6.042   0.438
 3458WAT    HW110373   2.677   6.020   0.445
 3458WAT    HW210374   2.810   6.003   0.516
 3459WAT     OW10375   0.032   6.306   3.022
 3459WAT    HW110376   0.011   6.246   3.094
 3459WAT    HW210377  -0.033   6.375   3.028
 3460WAT     OW10378   1.903   4.067   0.930
 3460WAT    HW110379   1.877   4.149   0.970
 3460WAT    HW210380   1.987   4.086   0.888
 3461WAT     OW10381   6.177   3.256   0.281
 3461WAT    HW110382   6.110   3.324   0.290
 3461WAT    HW210383   6.170   3.227   0.190
 3462WAT     OW10384   5.387   0.904   2.971
 3462WAT    HW110385   5.469   0.952   2.956
 3462WAT    HW210386   5.348   0.896   2.884
 3463WAT     OW10387   5.690   2.430   2.463
 3463WAT    HW110388   5.600   2.398   2.469
 3463WAT    HW210389   5.737   2.380   2.529
 3464WAT     OW10390   4.583   3.290   3.811
 3464WAT    HW110391   4.517   3.314   3.876
 3464WAT    HW210392   4.548   3.212   3.769
 3465WAT     OW10393   2.926   4.160   3.671
 3465WAT    HW110394   2.988   4.146   3.742
 3465WAT    HW210395   2.915   4.255   3.666
 3466WAT     OW10396   3.489   5.911   6.147
 3466WAT    HW110397   3.436   5.909   6.068
 3466WAT    HW210398   3.517   6.002   6.156
 3467WAT     OW10399   6.535   2.251   2.700
 3467WAT    HW110400   6.629   2.263   2.681
 3467WAT    HW210401   6.532   2.226   2.792
 3468WAT     OW10402   3.868   4.255   5.185
 3468WAT    HW110403   3.895   4.347   5.177
 3468WAT    HW210404   3.784   4.260   5.231
 3469WAT     OW10405   2.693   1.756   3.929
 3469WAT    HW110406   2.709   1.787   4.019
 3469WAT    HW210407   2.705   1.834   3.875
 3470WAT     OW10408   1.381   0.184   1.402
 3470WAT    HW110409   1.307   0.139   1.443
 3470WAT    HW210410   1.437   0.114   1.370
 3471WAT     OW10411   6.312   3.678   1.147
 3471WAT    HW110412   6.363   3.759   1.139
 3471WAT    HW210413   6.325   3.634   1.063
 3472WAT     OW10414   0.992   3.414   2.624
 3472WAT    HW110415   0.920   3.466   2.589
 3472WAT    HW210416   0.959   3.380   2.708
 3473WAT     OW10417   2.779   4.827   5.670
 3473WAT    HW110418   2.776   4.820   5.575
 3473WAT    HW210419   2.745   4.914   5.690
 3474WAT     OW10420   0.567   0.057   3.402
 3474WAT    HW110421   0.560   0.021   3.490
 3474WAT    HW210422   0.590  -0.018   3.347
 3475WAT     OW10423   5.024   0.708   0.993
 3475WAT    HW110424   4.964   0.778   0.965
 3475WAT    HW210425   4.985   0.628   0.958
 3476WAT     OW10426   0.537   1.468   3.670
 3476WAT    HW110427   0.503   1.512   3.593
 3476WAT    HW210428   0.630   1.455   3.652
 3477WAT     OW10429   2.571   0.538   1.790
 3477WAT    HW110430   2.489   0.587   1.802
 3477WAT    HW210431   2.584   0.494   1.874
 3478WAT     OW10432   1.596   2.475   3.772
 3478WAT    HW110433   1.515   2.480   3.721
 3478WAT    HW210434   1.614   2.566   3.797
 3479WAT     OW10435   3.037   0.342   1.708
 3479WAT    HW110436   3.093   0.273   1.744
 3479WAT    HW210437   3.072   0.423   1.745
 3480WAT     OW10438   1.884   3.452   4.593
 3480WAT    HW110439   1.934   3.533   4.587
 3480WAT    HW210440   1.850   3.437   4.505
 3481WAT     OW10441   3.556   6.053   0.650
 3481WAT    HW110442   3.567   6.048   0.745
 3481WAT    HW210443   3.466   6.082   0.638
 3482WAT     OW10444   0.689   3.257   3.604
 3482WAT    HW110445   0.776   3.294   3.614
 3482WAT    HW210446   0.702   3.177   3.553
 3483WAT     OW10447   1.998   1.450   3.835
 3483WAT    HW110448   2.061   1.393   3.791
 3483WAT    HW210449   2.039   1.469   3.920
 3484WAT     OW10450   4.120   3.570   0.753
 3484WAT    HW110451   4.089   3.620   0.678
 3484WAT    HW210452   4.066   3.492   0.755
 3485WAT     OW10453   6.007   3.582   2.670
 3485WAT    HW110454   6.039   3.583   2.580
 3485WAT    HW210455   5.955   3.662   2.678
 3486WAT     OW10456   1.983   6.373   0.882
 3486WAT    HW110457   1.965   6.466   0.899
 3486WAT    HW210458   2.078   6.364   0.896
 3487WAT     OW10459   5.583   5.268   2.235
 3487WAT    HW110460   5.607   5.245   2.325
 3487WAT    HW210461   5.499   5.312   2.243
 3488WAT     OW10462   2.841   5.937   0.695
 3488WAT    HW110463   2.856   5.850   0.733
 3488WAT    HW210464   2.749   5.955   0.713
 3489WAT     OW10465   4.501   3.134   1.597
 3489WAT    HW110466   4.535   3.048   1.621
 3489WAT    HW210467   4.448   3.118   1.519
 3490WAT     OW10468   5.452   2.760   1.415
 3490WAT    HW110469   5.387   2.810   1.464
 3490WAT    HW210470   5.484   2.821   1.348
 3491WAT     OW10471   3.848   3.158   3.126
 3491WAT    HW110472   3.771   3.138   3.073
 3491WAT    HW210473   3.913   3.189   3.063
 3492WAT     OW10474   6.527   1.616   1.123
 3492WAT    HW110475   6.584   1.591   1.197
 3492WAT    HW210476   6.506   1.532   1.081
 3493WAT     OW10477   1.580   1.747   3.463
 3493WAT    HW110478   1.638   1.694   3.408
 3493WAT    HW210479   1.529   1.684   3.514
 3494WAT     OW10480   3.143   0.327   0.040
 3494WAT    HW110481   3.148   0.282   0.124
 3494WAT    HW210482   3.085   0.401   0.056
 3495WAT     OW10483   2.355   5.918   1.963
 3495WAT    HW110484   2.393   6.006   1.953
 3495WAT    HW210485   2.280   5.931   2.020
 3496WAT     OW10486   0.888   4.630   5.370
 3496WAT    HW110487   0.947   4.564   5.405
 3496WAT    HW210488   0.931   4.713   5.388
 3497WAT     OW10489   3.983   0.956   2.761
 3497WAT    HW110490   3.969   0.997   2.675
 3497WAT    HW210491   4.015   0.868   2.741
 3498WAT     OW10492   2.405   3.784   0.763
 3498WAT    HW110493   2.497   3.781   0.790
 3498WAT    HW210494   2.361   3.830   0.835
 3499WAT     OW10495   2.870   0.119   0.370
 3499WAT    HW110496   2.854   0.056   0.440
 3499WAT    HW210497   2.800   0.102   0.306
 3500WAT     OW10498   4.686   5.265   1.516
 3500WAT    HW110499   4.779   5.268   1.494
 3500WAT    HW210500   4.667   5.173   1.530
 3501WAT     OW10501   5.788   3.138   3.116
 3501WAT    HW110502   5.779   3.145   3.021
 3501WAT    HW210503   5.839   3.059   3.130
 3502WAT     OW10504   3.730   2.522   0.747
 3502WAT    HW110505   3.766   2.479   0.824
 3502WAT    HW210506   3.653   2.569   0.779
 3503WAT     OW10507   6.320   1.706   1.705
 3503WAT    HW110508   6.372   1.675   1.631
 3503WAT    HW210509   6.382   1.754   1.760
 3504WAT     OW10510   2.059   2.523   2.888
 3504WAT    HW110511   2.138   2.495   2.842
 3504WAT    HW210512   2.008   2.443   2.899
 3505WAT     OW10513   5.421   5.077   1.714
 3505WAT    HW110514   5.369   5.051   1.790
 3505WAT    HW210515   5.378   5.034   1.640
 3506WAT     OW10516   2.321   2.012   3.978
 3506WAT    HW110517   2.340   2.104   3.956
 3506WAT    HW210518   2.381   1.993   4.051
 3507WAT     OW10519   4.010   3.699   2.887
 3507WAT    HW110520   4.025   3.699   2.793
 3507WAT    HW210521   4.078   3.757   2.922
 3508WAT     OW10522   4.808   3.067   3.520
 3508WAT    HW110523   4.758   3.045   3.440
 3508WAT    HW210524   4.899   3.047   3.497
 3509WAT     OW10525   1.160   6.337   0.520
 3509WAT    HW110526   1.243   6.303   0.555
 3509WAT    HW210527   1.174   6.342   0.426
 3510WAT     OW10528   4.706   6.399   5.283
 3510WAT    HW110529   4.728   6.475   5.230
 3510WAT    HW210530   4.739   6.324   5.232
 3511WAT     OW10531   4.264   6.611   1.197
 3511WAT    HW110532   4.204   6.630   1.269
 3511WAT    HW210533   4.340   6.668   1.213
 3512WAT     OW10534   1.270   4.048   5.843
 3512WAT    HW110535   1.355   4.004   5.835
 3512WAT    HW210536   1.255   4.053   5.938
 3513WAT     OW10537   3.104   4.579   3.328
 3513WAT    HW110538   3.059   4.627   3.397
 3513WAT    HW210539   3.103   4.488   3.358
 3514WAT     OW10540   2.756   2.387   0.540
 3514WAT    HW110541   2.843   2.423   0.560
 3514WAT    HW210542   2.770   2.336   0.460
 3515WAT     OW10543   1.332   5.909   5.013
 3515WAT    HW110544   1.302   5.921   5.103
 3515WAT    HW210545   1.378   5.991   4.992
 3516WAT     OW10546   5.634   6.058   4.819
 3516WAT    HW110547   5.639   5.988   4.884
 3516WAT    HW210548   5.602   6.014   4.740
 3517WAT     OW10549   4.053   2.263   6.652
 3517WAT    HW110550   3.993   2.278   6.726
 3517WAT    HW210551   3.998   2.269   6.574
 3518WAT     OW10552   5.931   0.565   0.881
 3518WAT    HW110553   5.900   0.577   0.792
 3518WAT    HW210554   5.898   0.479   0.908
 3519WAT     OW10555   6.174   5.977   5.331
 3519WAT    HW110556   6.150   5.954   5.241
 3519WAT    HW210557   6.101   5.947   5.384
 3520WAT     OW10558   1.827   2.700   0.984
 3520WAT    HW110559   1.763   2.713   1.054
 3520WAT    HW210560   1.825   2.781   0.934
 3521WAT     OW10561   5.838   4.642   2.671
 3521WAT    HW110562   5.766   4.597   2.627
 3521WAT    HW210563   5.843   4.602   2.757
 3522WAT     OW10564   2.617   1.497   5.283
 3522WAT    HW110565   2.652   1.413   5.254
 3522WAT    HW210566   2.674   1.524   5.355
 3523WAT     OW10567   0.910   5.773   4.338
 3523WAT    HW110568   0.943   5.687   4.363
 3523WAT    HW210569   0.987   5.820   4.304
 3524WAT     OW10570   4.194   6.547   3.383
 3524WAT    HW110571   4.234   6.583   3.304
 3524WAT    HW210572   4.133   6.614   3.412
 3525WAT     OW10573   0.545   1.967   5.478
 3525WAT    HW110574   0.603   1.968   5.402
 3525WAT    HW210575   0.457   1.978   5.442
 3526WAT     OW10576   2.919   5.447   0.288
 3526WAT    HW110577   2.851   5.504   0.326
 3526WAT    HW210578   2.894   5.359   0.317
 3527WAT     OW10579   3.040   4.532   5.073
 3527WAT    HW110580   2.991   4.470   5.020
 3527WAT    HW210581   3.129   4.496   5.075
 3528WAT     OW10582   5.379   4.398   6.481
 3528WAT    HW110583   5.468   4.418   6.454
 3528WAT    HW210584   5.352   4.474   6.533
 3529WAT     OW10585   2.712   2.913   4.349
 3529WAT    HW110586   2.746   2.827   4.370
 3529WAT    HW210587   2.687   2.907   4.257
 3530WAT     OW10588   2.935   3.806   0.940
 3530WAT    HW110589   2.997   3.878   0.949
 3530WAT    HW210590   2.949   3.751   1.017
 3531WAT     OW10591   1.031   3.118   2.379
 3531WAT    HW110592   0.949   3.167   2.377
 3531WAT    HW210593   1.034   3.071   2.295
 3532WAT     OW10594   5.887   6.218   1.988
 3532WAT    HW110595   5.844   6.226   1.903
 3532WAT    HW210596   5.978   6.195   1.968
 3533WAT     OW10597   4.447   5.782   5.213
 3533WAT    HW110598   4.541   5.784   5.232
 3533WAT    HW210599   4.431   5.693   5.182
 3534WAT     OW10600   1.773   1.005   3.326
 3534WAT    HW110601   1.762   1.100   3.329
 3534WAT    HW210602   1.814   0.984   3.410
 3535WAT     OW10603   1.818   2.482   2.336
 3535WAT    HW110604   1.834   2.504   2.428
 3535WAT    HW210605   1.731   2.518   2.317
 3536WAT     OW10606   0.933   6.181   2.750
 3536WAT    HW110607   0.863   6.116   2.742
 3536WAT    HW210608   0.926   6.214   2.839
 3537WAT     OW10609   1.216   6.721   4.724
 3537WAT    HW110610   1.226   6.673   4.807
 3537WAT    HW210611   1.245   6.809   4.744
 3538WAT     OW10612   6.363   3.758   2.101
 3538WAT    HW110613   6.299   3.771   2.171
 3538WAT    HW210614   6.421   3.689   2.134
 3539WAT     OW10615   4.804   4.913   1.311
 3539WAT    HW110616   4.850   4.940   1.231
 3539WAT    HW210617   4.866   4.855   1.356
 3540WAT     OW10618   5.738   1.238   4.948
 3540WAT    HW110619   5.805   1.305   4.935
 3540WAT    HW210620   5.785   1.165   4.987
 3541WAT     OW10621   2.904   4.264   6.621
 3541WAT    HW110622   2.815   4.231   6.634
 3541WAT    HW210623   2.892   4.348   6.575
 3542WAT     OW10624   0.320   5.784   3.894
 3542WAT    HW110625   0.342   5.869   3.932
 3542WAT    HW210626   0.287   5.733   3.968
 3543WAT     OW10627   2.104   2.094   2.082
 3543WAT    HW110628   2.028   2.051   2.120
 3543WAT    HW210629   2.165   2.103   2.155
 3544WAT     OW10630   5.000   1.776   2.226
 3544WAT    HW110631   5.077   1.740   2.182
 3544WAT    HW210632   4.981   1.856   2.177
 3545WAT     OW10633   5.997   5.240   4.136
 3545WAT    HW110634   6.071   5.210   4.083
 3545WAT    HW210635   6.004   5.189   4.217
 3546WAT     OW10636   2.171   3.639   5.706
 3546WAT    HW110637   2.152   3.705   5.773
 3546WAT    HW210638   2.181   3.689   5.625
 3547WAT     OW10639   2.061   1.894   1.450
 3547WAT    HW110640   1.982   1.861   1.493
 3547WAT    HW210641   2.127   1.826   1.467
 3548WAT     OW10642   3.650   3.615   0.453
 3548WAT    HW110643   3.616   3.661   0.375
 3548WAT    HW210644   3.699   3.682   0.500
 3549WAT     OW10645   4.511   0.206   6.230
 3549WAT    HW110646   4.425   0.236   6.200
 3549WAT    HW210647   4.572   0.273   6.200
 3550WAT     OW10648   4.030   6.338   3.706
 3550WAT    HW110649   3.935   6.352   3.704
 3550WAT    HW210650   4.052   6.310   3.617
 3551WAT     OW10651   4.955   2.776   5.216
 3551WAT    HW110652   4.869   2.750   5.184
 3551WAT    HW210653   4.958   2.746   5.307
 3552WAT     OW10654   2.548   4.171   0.204
 3552WAT    HW110655   2.486   4.099   0.193
 3552WAT    HW210656   2.572   4.169   0.296
 3553WAT     OW10657   4.334   1.858   3.186
 3553WAT    HW110658   4.376   1.942   3.169
 3553WAT    HW210659   4.267   1.850   3.119
 3554WAT     OW10660   0.493   5.752   2.107
 3554WAT    HW110661   0.408   5.718   2.135
 3554WAT    HW210662   0.483   5.768   2.013
 3555WAT     OW10663   4.969   2.912   1.073
 3555WAT    HW110664   5.034   2.958   1.020
 3555WAT    HW210665   4.903   2.882   1.010
 3556WAT     OW10666   1.818   2.666   5.955
 3556WAT    HW110667   1.726   2.642   5.941
 3556WAT    HW210668   1.867   2.587   5.931
 3557WAT     OW10669   4.426   1.035   6.010
 3557WAT    HW110670   4.447   1.123   5.977
 3557WAT    HW210671   4.339   1.045   6.050
 3558WAT     OW10672   1.996   4.233   1.548
 3558WAT    HW110673   2.043   4.170   1.493
 3558WAT    HW210674   1.980   4.308   1.490
 3559WAT     OW10675   4.546   0.679   5.171
 3559WAT    HW110676   4.471   0.648   5.121
 3559WAT    HW210677   4.533   0.643   5.259
 3560WAT     OW10678   3.930   2.924   4.041
 3560WAT    HW110679   3.917   2.854   3.977
 3560WAT    HW210680   3.933   3.004   3.988
 3561WAT     OW10681   2.278   0.583   4.848
 3561WAT    HW110682   2.254   0.520   4.780
 3561WAT    HW210683   2.196   0.629   4.868
 3562WAT     OW10684   5.220   1.809   3.844
 3562WAT    HW110685   5.137   1.761   3.842
 3562WAT    HW210686   5.256   1.789   3.930
 3563WAT     OW10687   0.661   2.997   4.883
 3563WAT    HW110688   0.639   2.936   4.813
 3563WAT    HW210689   0.731   2.953   4.932
 3564WAT     OW10690   0.679   5.022   3.805
 3564WAT    HW110691   0.652   5.023   3.713
 3564WAT    HW210692   0.623   4.957   3.846
 3565WAT     OW10693   5.359   1.421   1.814
 3565WAT    HW110694   5.430   1.467   1.859
 3565WAT    HW210695   5.337   1.348   1.872
 3566WAT     OW10696   3.914   4.678   0.108
 3566WAT    HW110697   3.843   4.618   0.130
 3566WAT    HW210698   3.980   4.663   0.175
 3567WAT     OW10699   4.812   0.862   1.270
 3567WAT    HW110700   4.778   0.815   1.346
 3567WAT    HW210701   4.762   0.828   1.196
 3568WAT     OW10702   2.936   6.334   0.821
 3568WAT    HW110703   2.856   6.308   0.866
 3568WAT    HW210704   2.970   6.406   0.874
 3569WAT     OW10705   5.415   1.353   5.653
 3569WAT    HW110706   5.495   1.339   5.602
 3569WAT    HW210707   5.435   1.427   5.709
 3570WAT     OW10708   4.607   5.571   4.943
 3570WAT    HW110709   4.547   5.594   4.872
 3570WAT    HW210710   4.550   5.557   5.019
 3571WAT     OW10711   1.581   2.598   2.275
 3571WAT    HW110712   1.540   2.561   2.196
 3571WAT    HW210713   1.625   2.677   2.243
 3572WAT     OW10714   0.727   5.726   2.463
 3572WAT    HW110715   0.747   5.644   2.418
 3572WAT    HW210716   0.739   5.706   2.556
 3573WAT     OW10717   3.139   1.176   6.709
 3573WAT    HW110718   3.134   1.185   6.614
 3573WAT    HW210719   3.053   1.205   6.741
 3574WAT     OW10720   5.414   3.165   6.601
 3574WAT    HW110721   5.461   3.195   6.679
 3574WAT    HW210722   5.415   3.070   6.607
 3575WAT     OW10723   6.472   5.530   0.741
 3575WAT    HW110724   6.407   5.504   0.676
 3575WAT    HW210725   6.522   5.599   0.698
 3576WAT     OW10726   5.713   2.726   1.508
 3576WAT    HW110727   5.621   2.716   1.483
 3576WAT    HW210728   5.720   2.680   1.592
 3577WAT     OW10729   2.537   1.028   4.284
 3577WAT    HW110730   2.475   0.962   4.254
 3577WAT    HW210731   2.542   1.015   4.379
 3578WAT     OW10732   0.797   1.579   2.107
 3578WAT    HW110733   0.791   1.497   2.057
 3578WAT    HW210734   0.866   1.628   2.062
 3579WAT     OW10735   3.148   5.587   4.211
 3579WAT    HW110736   3.063   5.578   4.169
 3579WAT    HW210737   3.167   5.501   4.248
 3580WAT     OW10738   3.169   0.241   0.541
 3580WAT    HW110739   3.159   0.155   0.582
 3580WAT    HW210740   3.158   0.224   0.447
 3581WAT     OW10741   4.442   0.636   1.467
 3581WAT    HW110742   4.384   0.658   1.540
 3581WAT    HW210743   4.433   0.541   1.457
 3582WAT     OW10744   0.489   1.417   2.922
 3582WAT    HW110745   0.487   1.512   2.936
 3582WAT    HW210746   0.535   1.406   2.838
 3583WAT     OW10747   5.702   0.887   4.928
 3583WAT    HW110748   5.771   0.934   4.974
 3583WAT    HW210749   5.702   0.924   4.840
 3584WAT     OW10750   0.656   5.596   3.692
 3584WAT    HW110751   0.640   5.690   3.688
 3584WAT    HW210752   0.682   5.572   3.603
 3585WAT     OW10753   2.161   1.243   1.215
 3585WAT    HW110754   2.154   1.213   1.305
 3585WAT    HW210755   2.137   1.336   1.219
 3586WAT     OW10756   5.914   1.850   2.614
 3586WAT    HW110757   5.866   1.804   2.682
 3586WAT    HW210758   5.944   1.931   2.656
 3587WAT     OW10759   2.455   1.701   2.893
 3587WAT    HW110760   2.479   1.747   2.813
 3587WAT    HW210761   2.379   1.648   2.869
 3588WAT     OW10762   2.757   1.819   0.264
 3588WAT    HW110763   2.726   1.754   0.201
 3588WAT    HW210764   2.837   1.780   0.300
 3589WAT     OW10765   5.907   5.985   1.627
 3589WAT    HW110766   5.967   5.935   1.682
 3589WAT    HW210767   5.846   5.920   1.592
 3590WAT     OW10768   0.195   5.657   4.121
 3590WAT    HW110769   0.112   5.703   4.135
 3590WAT    HW210770   0.221   5.626   4.208
 3591WAT     OW10771   5.943   5.027   0.506
 3591WAT    HW110772   5.973   4.949   0.459
 3591WAT    HW210773   5.849   5.032   0.487
 3592WAT     OW10774   4.187   2.515   2.124
 3592WAT    HW110775   4.249   2.524   2.052
 3592WAT    HW210776   4.107   2.482   2.081
 3593WAT     OW10777   5.401   6.134   1.462
 3593WAT    HW110778   5.477   6.114   1.407
 3593WAT    HW210779   5.349   6.054   1.461
 3594WAT     OW10780   6.605   1.988   5.644
 3594WAT    HW110781   6.529   2.007   5.589
 3594WAT    HW210782   6.667   1.945   5.585
 3595WAT     OW10783   1.138   6.125   1.265
 3595WAT    HW110784   1.132   6.221   1.268
 3595WAT    HW210785   1.135   6.098   1.357
 3596WAT     OW10786   4.105   6.332   0.161
 3596WAT    HW110787   4.169   6.399   0.187
 3596WAT    HW210788   4.065   6.304   0.244
 3597WAT     OW10789   2.551   1.415   5.743
 3597WAT    HW110790   2.516   1.447   5.660
 3597WAT    HW210791   2.611   1.345   5.718
 3598WAT     OW10792   0.188   0.226   3.821
 3598WAT    HW110793   0.188   0.309   3.773
 3598WAT    HW210794   0.098   0.218   3.854
 3599WAT     OW10795   5.656   4.874   4.660
 3599WAT    HW110796   5.749   4.871   4.683
 3599WAT    HW210797   5.640   4.966   4.639
 3600WAT     OW10798   1.863   2.233   1.543
 3600WAT    HW110799   1.948   2.192   1.559
 3600WAT    HW210800   1.873   2.322   1.575
 3601WAT     OW10801   6.559   4.512   3.121
 3601WAT    HW110802   6.580   4.420   3.111
 3601WAT    HW210803   6.467   4.513   3.147
 3602WAT     OW10804   5.274   3.984   3.186
 3602WAT    HW110805   5.216   3.989   3.110
 3602WAT    HW210806   5.301   3.892   3.189
 3603WAT     OW10807   1.218   0.327   2.087
 3603WAT    HW110808   1.279   0.259   2.058
 3603WAT    HW210809   1.244   0.405   2.039
 3604WAT     OW10810   1.629   5.906   5.605
 3604WAT    HW110811   1.608   5.909   5.699
 3604WAT    HW210812   1.721   5.881   5.602
 3605WAT     OW10813   2.312   2.918   2.608
 3605WAT    HW110814   2.399   2.942   2.638
 3605WAT    HW210815   2.315   2.931   2.513
 3606WAT     OW10816   2.342   3.667   0.199
 3606WAT    HW110817   2.320   3.607   0.128
 3606WAT    HW210818   2.427   3.636   0.231
 3607WAT     OW10819   1.513   3.476   1.145
 3607WAT    HW110820   1.577   3.539   1.110
 3607WAT    HW210821   1.523   3.483   1.240
 3608WAT     OW10822   1.465   3.539   3.091
 3608WAT    HW110823   1.419   3.618   3.063
 3608WAT    HW210824   1.508   3.563   3.173
 3609WAT     OW10825   0.147   5.467   0.779
 3609WAT    HW110826   0.137   5.515   0.697
 3609WAT    HW210827   0.221   5.408   0.764
 3610WAT     OW10828   0.644   3.529   4.155
 3610WAT    HW110829   0.566   3.584   4.169
 3610WAT    HW210830   0.645   3.470   4.230
 3611WAT     OW10831   5.856   2.259   2.017
 3611WAT    HW110832   5.810   2.178   2.042
 3611WAT    HW210833   5.819   2.325   2.076
 3612WAT     OW10834   5.300   6.440   5.415
 3612WAT    HW110835   5.264   6.496   5.484
 3612WAT    HW210836   5.245   6.457   5.339
 3613WAT     OW10837   5.684   0.014   2.439
 3613WAT    HW110838   5.629   0.078   2.484
 3613WAT    HW210839   5.756   0.066   2.403
 3614WAT     OW10840   2.034   5.918   2.738
 3614WAT    HW110841   2.074   5.840   2.698
 3614WAT    HW210842   1.995   5.885   2.819
 3615WAT     OW10843   5.698   2.989   1.893
 3615WAT    HW110844   5.709   2.900   1.927
 3615WAT    HW210845   5.701   2.980   1.798
 3616WAT     OW10846   6.050   1.521   5.509
 3616WAT    HW110847   6.116   1.590   5.508
 3616WAT    HW210848   6.100   1.441   5.489
 3617WAT     OW10849   1.496   4.891   6.397
 3617WAT    HW110850   1.510   4.928   6.310
 3617WAT    HW210851   1.438   4.952   6.442
 3618WAT     OW10852   1.764   0.427   3.535
 3618WAT    HW110853   1.682   0.413   3.583
 3618WAT    HW210854   1.738   0.476   3.457
 3619WAT     OW10855   1.442   4.366   6.470
 3619WAT    HW110856   1.444   4.453   6.430
 3619WAT    HW210857   1.354   4.333   6.451
 3620WAT     OW10858   3.421   1.906   3.670
 3620WAT    HW110859   3.339   1.923   3.623
 3620WAT    HW210860   3.461   1.833   3.623
 3621WAT     OW10861   3.338   3.370   4.664
 3621WAT    HW110862   3.311   3.384   4.574
 3621WAT    HW210863   3.430   3.345   4.658
 3622WAT     OW10864   0.137   3.924   1.296
 3622WAT    HW110865   0.130   3.911   1.201
 3622WAT    HW210866   0.096   3.845   1.333
 3623WAT     OW10867   5.171   5.921   6.206
 3623WAT    HW110868   5.189   5.854   6.141
 3623WAT    HW210869   5.244   5.915   6.268
 3624WAT     OW10870   2.855   5.590   5.398
 3624WAT    HW110871   2.815   5.504   5.409
 3624WAT    HW210872   2.816   5.625   5.318
 3625WAT     OW10873   4.316   4.794   4.243
 3625WAT    HW110874   4.242   4.854   4.232
 3625WAT    HW210875   4.275   4.711   4.270
 3626WAT     OW10876   3.774   4.007   4.618
 3626WAT    HW110877   3.747   3.951   4.546
 3626WAT    HW210878   3.845   4.060   4.582
 3627WAT     OW10879   5.814   2.015   5.931
 3627WAT    HW110880   5.789   1.923   5.924
 3627WAT    HW210881   5.771   2.058   5.857
 3628WAT     OW10882   1.728   2.900   4.441
 3628WAT    HW110883   1.736   2.808   4.467
 3628WAT    HW210884   1.678   2.941   4.512
 3629WAT     OW10885   2.546   3.132   3.324
 3629WAT    HW110886   2.641   3.129   3.323
 3629WAT    HW210887   2.520   3.121   3.233
 3630WAT     OW10888   3.812   0.200   5.121
 3630WAT    HW110889   3.739   0.152   5.081
 3630WAT    HW210890   3.790   0.202   5.215
 3631WAT     OW10891   6.106   3.788   1.321
 3631WAT    HW110892   6.162   3.865   1.325
 3631WAT    HW210893   6.149   3.731   1.257
 3632WAT     OW10894   2.092   5.942   5.102
 3632WAT    HW110895   2.030   5.895   5.048
 3632WAT    HW210896   2.039   5.985   5.169
 3633WAT     OW10897   2.015   2.245   1.867
 3633WAT    HW110898   2.058   2.199   1.795
 3633WAT    HW210899   2.052   2.206   1.946
 3634WAT     OW10900   0.227   6.684   2.800
 3634WAT    HW110901   0.245   6.624   2.873
 3634WAT    HW210902   0.134   6.671   2.782
 3635WAT     OW10903   5.365   1.665   5.540
 3635WAT    HW110904   5.368   1.601   5.469
 3635WAT    HW210905   5.453   1.665   5.577
 3636WAT     OW10906   0.069   4.816   0.958
 3636WAT    HW110907   0.103   4.728   0.941
 3636WAT    HW210908   0.013   4.835   0.882
 3637WAT     OW10909   2.872   4.761   0.443
 3637WAT    HW110910   2.883   4.689   0.381
 3637WAT    HW210911   2.880   4.840   0.390
 3638WAT     OW10912   3.919   2.863   2.113
 3638WAT    HW110913   3.875   2.865   2.197
 3638WAT    HW210914   3.879   2.789   2.066
 3639WAT     OW10915   5.728   4.765   1.966
 3639WAT    HW110916   5.757   4.704   1.898
 3639WAT    HW210917   5.705   4.845   1.918
 3640WAT     OW10918   0.210   0.200   2.341
 3640WAT    HW110919   0.238   0.121   2.294
 3640WAT    HW210920   0.125   0.177   2.378
 3641WAT     OW10921   6.180   6.623   6.385
 3641WAT    HW110922   6.208   6.651   6.298
 3641WAT    HW210923   6.086   6.638   6.386
 3642WAT     OW10924   2.391   2.450   6.474
 3642WAT    HW110925   2.354   2.451   6.386
 3642WAT    HW210926   2.436   2.534   6.482
 3643WAT     OW10927   3.777   2.338   3.167
 3643WAT    HW110928   3.782   2.337   3.262
 3643WAT    HW210929   3.778   2.431   3.144
 3644WAT     OW10930   4.116   3.654   3.223
 3644WAT    HW110931   4.065   3.584   3.185
 3644WAT    HW210932   4.148   3.705   3.148
 3645WAT     OW10933   4.056   2.071   0.459
 3645WAT    HW110934   4.057   2.006   0.389
 3645WAT    HW210935   3.973   2.118   0.447
 3646WAT     OW10936   2.250   0.372   6.500
 3646WAT    HW110937   2.177   0.317   6.471
 3646WAT    HW210938   2.327   0.330   6.462
 3647WAT     OW10939   3.282   4.812   4.722
 3647WAT    HW110940   3.333   4.831   4.643
 3647WAT    HW210941   3.346   4.773   4.782
 3648WAT     OW10942   2.230   1.951   4.318
 3648WAT    HW110943   2.242   1.919   4.408
 3648WAT    HW210944   2.312   1.928   4.273
 3649WAT     OW10945   4.662   2.182   1.148
 3649WAT    HW110946   4.642   2.095   1.184
 3649WAT    HW210947   4.740   2.210   1.194
 3650WAT     OW10948   2.230   1.735   5.966
 3650WAT    HW110949   2.232   1.640   5.961
 3650WAT    HW210950   2.137   1.757   5.962
 3651WAT     OW10951   3.497   5.743   2.296
 3651WAT    HW110952   3.402   5.746   2.295
 3651WAT    HW210953   3.523   5.744   2.204
 3652WAT     OW10954   3.901   2.584   0.116
 3652WAT    HW110955   3.885   2.669   0.156
 3652WAT    HW210956   3.960   2.540   0.178
 3653WAT     OW10957   0.105   0.983   6.135
 3653WAT    HW110958   0.101   1.064   6.186
 3653WAT    HW210959   0.143   1.010   6.051
 3654WAT     OW10960   3.639   5.140   6.580
 3654WAT    HW110961   3.642   5.045   6.565
 3654WAT    HW210962   3.651   5.150   6.674
 3655WAT     OW10963   5.420   0.261   6.633
 3655WAT    HW110964   5.380   0.272   6.719
 3655WAT    HW210965   5.422   0.350   6.596
 3656WAT     OW10966   5.488   6.699   6.255
 3656WAT    HW110967   5.436   6.742   6.186
 3656WAT    HW210968   5.441   6.720   6.336
 3657WAT     OW10969   5.526   6.132   3.151
 3657WAT    HW110970   5.606   6.097   3.111
 3657WAT    HW210971   5.540   6.227   3.153
 3658WAT     OW10972   0.766   0.894   4.925
 3658WAT    HW110973   0.696   0.957   4.943
 3658WAT    HW210974   0.747   0.861   4.837
 3659WAT     OW10975   4.701   2.234   4.867
 3659WAT    HW110976   4.654   2.179   4.804
 3659WAT    HW210977   4.758   2.288   4.814
 3660WAT     OW10978   4.937   5.350   5.162
 3660WAT    HW110979   4.887   5.411   5.217
 3660WAT    HW210980   4.946   5.272   5.216
 3661WAT     OW10981   2.527   3.620   2.556
 3661WAT    HW110982   2.451   3.638   2.611
 3661WAT    HW210983   2.602   3.629   2.615
 3662WAT     OW10984   1.078   0.234   4.200
 3662WAT    HW110985   1.032   0.307   4.240
 3662WAT    HW210986   1.171   0.260   4.201
 3663WAT     OW10987   3.181   2.441   5.875
 3663WAT    HW110988   3.171   2.479   5.962
 3663WAT    HW210989   3.110   2.376   5.869
 3664WAT     OW10990   6.566   5.029   4.508
 3664WAT    HW110991   6.605   5.054   4.424
 3664WAT    HW210992   6.498   4.965   4.486
 3665WAT     OW10993   3.787   2.609   3.109
 3665WAT    HW110994   3.878   2.630   3.091
 3665WAT    HW210995   3.746   2.602   3.022
 3666WAT     OW10996   5.065   6.136   2.899
 3666WAT    HW110997   5.144   6.107   2.944
 3666WAT    HW210998   5.085   6.225   2.870
 3667WAT     OW10999   0.287   1.563   6.111
 3667WAT    HW111000   0.315   1.622   6.181
 3667WAT    HW211001   0.365   1.511   6.091
 3668WAT     OW11002   3.661   5.501   3.348
 3668WAT    HW111003   3.661   5.442   3.424
 3668WAT    HW211004   3.753   5.522   3.334
 3669WAT     OW11005   6.500   2.049   6.210
 3669WAT    HW111006   6.424   2.005   6.172
 3669WAT    HW211007   6.510   2.128   6.157
 3670WAT     OW11008   3.537   3.257   6.671
 3670WAT    HW111009   3.537   3.346   6.636
 3670WAT    HW211010   3.551   3.201   6.595
 3671WAT     OW11011   2.188   5.762   4.393
 3671WAT    HW111012   2.101   5.740   4.426
 3671WAT    HW211013   2.173   5.830   4.327
 3672WAT     OW11014   6.608   0.015   4.113
 3672WAT    HW111015   6.612   0.018   4.208
 3672WAT    HW211016   6.517  -0.004   4.092
 3673WAT     OW11017   0.517   3.347   5.422
 3673WAT    HW111018   0.559   3.334   5.337
 3673WAT    HW211019   0.586   3.384   5.478
 3674WAT     OW11020   4.883   3.603   5.728
 3674WAT    HW111021   4.884   3.693   5.695
 3674WAT    HW211022   4.845   3.553   5.656
 3675WAT     OW11023   6.167   1.276   0.967
 3675WAT    HW111024   6.091   1.270   1.025
 3675WAT    HW211025   6.148   1.213   0.897
 3676WAT     OW11026   4.465   2.637   4.204
 3676WAT    HW111027   4.376   2.605   4.213
 3676WAT    HW211028   4.519   2.577   4.255
 3677WAT     OW11029   3.424   4.828   4.003
 3677WAT    HW111030   3.432   4.831   3.908
 3677WAT    HW211031   3.427   4.734   4.025
 3678WAT     OW11032   0.947   1.139   6.171
 3678WAT    HW111033   0.894   1.072   6.127
 3678WAT    HW211034   0.968   1.101   6.256
 3679WAT     OW11035   6.511   1.114   3.951
 3679WAT    HW111036   6.465   1.077   3.876
 3679WAT    HW211037   6.598   1.075   3.948
 3680WAT     OW11038   6.671   4.318   6.657
 3680WAT    HW111039   6.760   4.299   6.688
 3680WAT    HW211040   6.614   4.293   6.730
 3681WAT     OW11041   5.821   2.500   0.246
 3681WAT    HW111042   5.889   2.435   0.227
 3681WAT    HW211043   5.752   2.482   0.182
 3682WAT     OW11044   0.061   3.711   4.911
 3682WAT    HW111045  -0.006   3.693   4.977
 3682WAT    HW211046   0.144   3.704   4.959
 3683WAT     OW11047   4.631   3.704   5.416
 3683WAT    HW111048   4.617   3.686   5.323
 3683WAT    HW211049   4.644   3.798   5.421
 3684WAT     OW11050   0.153   4.224   0.644
 3684WAT    HW111051   0.135   4.284   0.571
 3684WAT    HW211052   0.230   4.175   0.616
 3685WAT     OW11053   2.887   6.032   5.070
 3685WAT    HW111054   2.879   6.084   4.990
 3685WAT    HW211055   2.817   6.064   5.127
 3686WAT     OW11056   2.530   6.499   2.569
 3686WAT    HW111057   2.557   6.519   2.659
 3686WAT    HW211058   2.612   6.476   2.524
 3687WAT     OW11059   0.966   3.513   3.835
 3687WAT    HW111060   0.977   3.483   3.926
 3687WAT    HW211061   0.878   3.551   3.834
 3688WAT     OW11062   0.166   6.149   3.335
 3688WAT    HW111063   0.149   6.242   3.353
 3688WAT    HW211064   0.242   6.150   3.276
 3689WAT     OW11065   0.633   3.543   2.016
 3689WAT    HW111066   0.633   3.577   1.927
 3689WAT    HW211067   0.587   3.459   2.009
 3690WAT     OW11068   0.444   1.932   4.203
 3690WAT    HW111069   0.436   2.004   4.141
 3690WAT    HW211070   0.441   1.853   4.149
 3691WAT     OW11071   3.992   3.168   3.356
 3691WAT    HW111072   3.940   3.159   3.275
 3691WAT    HW211073   3.929   3.199   3.421
 3692WAT     OW11074   6.573   4.918   2.852
 3692WAT    HW111075   6.564   5.008   2.820
 3692WAT    HW211076   6.553   4.864   2.776
 3693WAT     OW11077   5.767   1.678   1.790
 3693WAT    HW111078   5.785   1.771   1.784
 3693WAT    HW211079   5.849   1.639   1.820
 3694WAT     OW11080   6.311   0.079   4.315
 3694WAT    HW111081   6.243   0.138   4.282
 3694WAT    HW211082   6.331   0.021   4.242
 3695WAT     OW11083   5.582   6.023   2.272
 3695WAT    HW111084   5.592   5.988   2.183
 3695WAT    HW211085   5.500   6.072   2.269
 3696WAT     OW11086   3.341   2.409   3.630
 3696WAT    HW111087   3.427   2.432   3.596
 3696WAT    HW211088   3.282   2.415   3.554
 3697WAT     OW11089   1.038   4.226   5.301
 3697WAT    HW111090   1.089   4.217   5.221
 3697WAT    HW211091   0.947   4.222   5.272
 3698WAT     OW11092   4.119   2.493   6.108
 3698WAT    HW111093   4.157   2.580   6.120
 3698WAT    HW211094   4.146   2.466   6.021
 3699WAT     OW11095   1.717   1.277   0.982
 3699WAT    HW111096   1.805   1.240   0.992
 3699WAT    HW211097   1.696   1.264   0.890
 3700WAT     OW11098   1.582   4.720   2.579
 3700WAT    HW111099   1.575   4.670   2.498
 3700WAT    HW211100   1.658   4.776   2.567
 3701WAT     OW11101   1.672   3.603   6.238
 3701WAT    HW111102   1.756   3.557   6.232
 3701WAT    HW211103   1.688   3.674   6.300
 3702WAT     OW11104   5.222   1.076   6.365
 3702WAT    HW111105   5.149   1.065   6.305
 3702WAT    HW211106   5.190   1.138   6.430
 3703WAT     OW11107   5.746   2.021   2.117
 3703WAT    HW111108   5.805   1.968   2.063
 3703WAT    HW211109   5.765   1.994   2.207
 3704WAT     OW11110   5.034   6.716   5.036
 3704WAT    HW111111   5.043   6.653   4.965
 3704WAT    HW211112   4.951   6.760   5.020
 3705WAT     OW11113   0.795   4.433   3.168
 3705WAT    HW111114   0.785   4.338   3.160
 3705WAT    HW211115   0.756   4.455   3.253
 3706WAT     OW11116   5.370   0.940   6.013
 3706WAT    HW111117   5.436   0.925   6.081
 3706WAT    HW211118   5.409   1.007   5.956
 3707WAT     OW11119   2.481   4.140   2.100
 3707WAT    HW111120   2.518   4.057   2.132
 3707WAT    HW211121   2.437   4.177   2.176
 3708WAT     OW11122   5.897   1.035   5.048
 3708WAT    HW111123   5.989   1.037   5.020
 3708WAT    HW211124   5.902   1.037   5.144
 3709WAT     OW11125   2.188   0.528   2.281
 3709WAT    HW111126   2.187   0.617   2.318
 3709WAT    HW211127   2.111   0.524   2.224
 3710WAT     OW11128   6.261   3.965   0.565
 3710WAT    HW111129   6.298   3.904   0.629
 3710WAT    HW211130   6.329   4.031   0.552
 3711WAT     OW11131   3.494   2.965   3.566
 3711WAT    HW111132   3.511   2.964   3.471
 3711WAT    HW211133   3.403   2.936   3.574
 3712WAT     OW11134   2.542   0.571   6.663
 3712WAT    HW111135   2.487   0.583   6.586
 3712WAT    HW211136   2.540   0.477   6.680
 3713WAT     OW11137   3.948   5.578   0.310
 3713WAT    HW111138   3.994   5.497   0.332
 3713WAT    HW211139   4.004   5.621   0.245
 3714WAT     OW11140   1.947   0.526   5.032
 3714WAT    HW111141   1.946   0.464   4.959
 3714WAT    HW211142   1.987   0.606   4.996
 3715WAT     OW11143   2.835   4.813   3.234
 3715WAT    HW111144   2.821   4.891   3.180
 3715WAT    HW211145   2.883   4.753   3.177
 3716WAT     OW11146   2.864   5.683   2.958
 3716WAT    HW111147   2.785   5.630   2.960
 3716WAT    HW211148   2.930   5.631   3.003
 3717WAT     OW11149   5.842   2.992   5.275
 3717WAT    HW111150   5.804   3.012   5.189
 3717WAT    HW211151   5.805   3.059   5.333
 3718WAT     OW11152   1.749   0.180   1.707
 3718WAT    HW111153   1.758   0.108   1.644
 3718WAT    HW211154   1.682   0.237   1.668
 3719WAT     OW11155   2.728   6.043   6.165
 3719WAT    HW111156   2.648   6.013   6.209
 3719WAT    HW211157   2.749   5.972   6.104
 3720WAT     OW11158   5.671   3.559   5.244
 3720WAT    HW111159   5.753   3.570   5.292
 3720WAT    HW211160   5.676   3.624   5.173
 3721WAT     OW11161   5.310   6.451   0.403
 3721WAT    HW111162   5.226   6.412   0.426
 3721WAT    HW211163   5.292   6.545   0.395
 3722WAT     OW11164   2.391   0.119   0.156
 3722WAT    HW111165   2.366   0.037   0.200
 3722WAT    HW211166   2.309   0.152   0.120
 3723WAT     OW11167   4.764   3.610   1.485
 3723WAT    HW111168   4.714   3.537   1.519
 3723WAT    HW211169   4.747   3.682   1.546
 3724WAT     OW11170   4.369   4.087   1.542
 3724WAT    HW111171   4.308   4.134   1.485
 3724WAT    HW211172   4.345   4.113   1.631
 3725WAT     OW11173   0.992   4.761   1.005
 3725WAT    HW111174   0.966   4.738   1.094
 3725WAT    HW211175   0.945   4.842   0.987
 3726WAT     OW11176   5.900   6.013   1.032
 3726WAT    HW111177   5.937   6.083   1.085
 3726WAT    HW211178   5.944   5.934   1.062
 3727WAT     OW11179   2.653   4.597   4.011
 3727WAT    HW111180   2.579   4.630   3.959
 3727WAT    HW211181   2.658   4.504   3.991
 3728WAT     OW11182   0.955   3.456   1.795
 3728WAT    HW111183   0.871   3.409   1.797
 3728WAT    HW211184   0.931   3.548   1.783
 3729WAT     OW11185   4.083   0.585   1.805
 3729WAT    HW111186   4.143   0.567   1.877
 3729WAT    HW211187   3.997   0.561   1.838
 3730WAT     OW11188   6.567   1.997   1.327
 3730WAT    HW111189   6.475   2.001   1.354
 3730WAT    HW211190   6.565   1.962   1.238
 3731WAT     OW11191   0.258   6.307   6.183
 3731WAT    HW111192   0.170   6.279   6.208
 3731WAT    HW211193   0.245   6.384   6.129
 3732WAT     OW11194   1.418   0.839   5.839
 3732WAT    HW111195   1.366   0.867   5.763
 3732WAT    HW211196   1.475   0.914   5.857
 3733WAT     OW11197   6.275   3.293   1.064
 3733WAT    HW111198   6.366   3.318   1.079
 3733WAT    HW211199   6.277   3.197   1.056
 3734WAT     OW11200   3.448   2.457   2.870
 3734WAT    HW111201   3.479   2.370   2.846
 3734WAT    HW211202   3.357   2.443   2.898
 3735WAT     OW11203   0.500   2.692   1.373
 3735WAT    HW111204   0.534   2.691   1.283
 3735WAT    HW211205   0.575   2.718   1.427
 3736WAT     OW11206   0.592   3.503   6.566
 3736WAT    HW111207   0.501   3.486   6.542
 3736WAT    HW211208   0.629   3.549   6.491
 3737WAT     OW11209   3.539   4.824   1.318
 3737WAT    HW111210   3.530   4.913   1.354
 3737WAT    HW211211   3.528   4.835   1.224
 3738WAT     OW11212   1.875   3.883   1.143
 3738WAT    HW111213   1.876   3.949   1.074
 3738WAT    HW211214   1.861   3.932   1.224
 3739WAT     OW11215   6.624   2.546   6.008
 3739WAT    HW111216   6.579   2.462   5.994
 3739WAT    HW211217   6.601   2.598   5.931
 3740WAT     OW11218   5.217   0.345   6.133
 3740WAT    HW111219   5.183   0.372   6.218
 3740WAT    HW211220   5.282   0.411   6.111
 3741WAT     OW11221   6.502   1.506   0.005
 3741WAT    HW111222   6.423   1.474  -0.038
 3741WAT    HW211223   6.544   1.427   0.040
 3742WAT     OW11224   5.226   6.011   3.506
 3742WAT    HW111225   5.260   5.925   3.528
 3742WAT    HW211226   5.303   6.061   3.478
 3743WAT     OW11227   4.784   1.343   5.832
 3743WAT    HW111228   4.873   1.325   5.800
 3743WAT    HW211229   4.797   1.406   5.903
 3744WAT     OW11230   4.634   2.631   6.291
 3744WAT    HW111231   4.697   2.560   6.305
 3744WAT    HW211232   4.585   2.604   6.213
 3745WAT     OW11233   1.293   0.599   6.138
 3745WAT    HW111234   1.245   0.517   6.131
 3745WAT    HW211235   1.384   0.573   6.147
 3746WAT     OW11236   4.524   3.828   5.826
 3746WAT    HW111237   4.472   3.816   5.905
 3746WAT    HW211238   4.513   3.747   5.777
 3747WAT     OW11239   4.056   4.441   4.479
 3747WAT    HW111240   4.111   4.464   4.554
 3747WAT    HW211241   4.106   4.468   4.403
 3748WAT     OW11242   5.347   3.176   2.162
 3748WAT    HW111243   5.378   3.266   2.150
 3748WAT    HW211244   5.416   3.133   2.211
 3749WAT     OW11245   1.229   3.690   1.816
 3749WAT    HW111246   1.209   3.704   1.724
 3749WAT    HW211247   1.174   3.752   1.863
 3750WAT     OW11248   2.673   3.354   4.394
 3750WAT    HW111249   2.676   3.420   4.463
 3750WAT    HW211250   2.720   3.278   4.431
 3751WAT     OW11251   3.995   2.579   1.255
 3751WAT    HW111252   3.914   2.627   1.234
 3751WAT    HW211253   3.971   2.524   1.330
 3752WAT     OW11254   6.040   4.353   5.123
 3752WAT    HW111255   6.023   4.438   5.082
 3752WAT    HW211256   6.092   4.305   5.059
 3753WAT     OW11257   0.016   2.323   3.653
 3753WAT    HW111258   0.078   2.348   3.721
 3753WAT    HW211259  -0.065   2.369   3.676
 3754WAT     OW11260   2.960   4.395   2.985
 3754WAT    HW111261   2.896   4.366   2.920
 3754WAT    HW211262   2.936   4.349   3.065
 3755WAT     OW11263   6.010   6.418   3.291
 3755WAT    HW111264   6.009   6.427   3.196
 3755WAT    HW211265   6.044   6.330   3.306
 3756WAT     OW11266   3.393   0.975   1.034
 3756WAT    HW111267   3.305   0.969   1.070
 3756WAT    HW211268   3.413   0.886   1.004
 3757WAT     OW11269   6.636   2.530   3.164
 3757WAT    HW111270   6.696   2.507   3.092
 3757WAT    HW211271   6.564   2.468   3.155
 3758WAT     OW11272   4.131   1.774   3.655
 3758WAT    HW111273   4.069   1.779   3.728
 3758WAT    HW211274   4.099   1.839   3.592
 3759WAT     OW11275   5.303   1.440   3.054
 3759WAT    HW111276   5.301   1.533   3.033
 3759WAT    HW211277   5.374   1.431   3.117
 3760WAT     OW11278   3.275   0.615   3.958
 3760WAT    HW111279   3.354   0.662   3.985
 3760WAT    HW211280   3.262   0.640   3.867
 3761WAT     OW11281   4.963   1.936   6.520
 3761WAT    HW111282   5.044   1.884   6.522
 3761WAT    HW211283   4.931   1.928   6.431
 3762WAT     OW11284   5.876   1.397   2.261
 3762WAT    HW111285   5.911   1.365   2.177
 3762WAT    HW211286   5.785   1.418   2.242
 3763WAT     OW11287   5.880   0.416   2.840
 3763WAT    HW111288   5.801   0.459   2.808
 3763WAT    HW211289   5.931   0.486   2.881
 3764WAT     OW11290   0.635   0.264   1.465
 3764WAT    HW111291   0.611   0.354   1.443
 3764WAT    HW211292   0.621   0.258   1.559
 3765WAT     OW11293   1.933   2.338   0.386
 3765WAT    HW111294   1.909   2.421   0.344
 3765WAT    HW211295   1.932   2.274   0.315
 3766WAT     OW11296   3.525   3.499   0.158
 3766WAT    HW111297   3.462   3.527   0.091
 3766WAT    HW211298   3.475   3.503   0.240
 3767WAT     OW11299   0.336   2.495   0.639
 3767WAT    HW111300   0.370   2.584   0.632
 3767WAT    HW211301   0.245   2.502   0.612
 3768WAT     OW11302   1.141   3.183   6.319
 3768WAT    HW111303   1.192   3.182   6.238
 3768WAT    HW211304   1.050   3.178   6.290
 3769WAT     OW11305   0.185   1.046   1.267
 3769WAT    HW111306   0.275   1.051   1.300
 3769WAT    HW211307   0.143   0.979   1.322
 3770WAT     OW11308   2.535   2.596   4.785
 3770WAT    HW111309   2.542   2.610   4.879
 3770WAT    HW211310   2.567   2.507   4.771
 3771WAT     OW11311   4.078   4.267   0.136
 3771WAT    HW111312   4.166   4.264   0.098
 3771WAT    HW211313   4.062   4.178   0.167
 3772WAT     OW11314   3.157   5.387   1.441
 3772WAT    HW111315   3.218   5.404   1.368
 3772WAT    HW211316   3.144   5.472   1.482
 3773WAT     OW11317   2.312   5.953   1.301
 3773WAT    HW111318   2.285   6.014   1.370
 3773WAT    HW211319   2.362   5.886   1.347
 3774WAT     OW11320   2.978   1.501   4.544
 3774WAT    HW111321   3.063   1.468   4.572
 3774WAT    HW211322   2.925   1.501   4.623
 3775WAT     OW11323   6.507   1.466   6.398
 3775WAT    HW111324   6.532   1.375   6.384
 3775WAT    HW211325   6.581   1.504   6.445
 3776WAT     OW11326   5.088   1.464   0.792
 3776WAT    HW111327   5.168   1.465   0.844
 3776WAT    HW211328   5.021   1.429   0.851
 3777WAT     OW11329   2.875   0.925   2.414
 3777WAT    HW111330   2.924   1.002   2.444
 3777WAT    HW211331   2.804   0.916   2.477
 3778WAT     OW11332   0.259   5.710   0.889
 3778WAT    HW111333   0.213   5.629   0.864
 3778WAT    HW211334   0.202   5.751   0.954
 3779WAT     OW11335   4.773   2.901   5.473
 3779WAT    HW111336   4.725   2.888   5.555
 3779WAT    HW211337   4.842   2.834   5.474
 3780WAT     OW11338   5.996   4.318   3.501
 3780WAT    HW111339   5.953   4.376   3.439
 3780WAT    HW211340   6.061   4.270   3.450
 3781WAT     OW11341   4.766   3.361   4.023
 3781WAT    HW111342   4.848   3.311   4.028
 3781WAT    HW211343   4.720   3.324   3.948
 3782WAT     OW11344   2.777   1.829   5.046
 3782WAT    HW111345   2.845   1.789   5.100
 3782WAT    HW211346   2.810   1.821   4.956
 3783WAT     OW11347   4.169   3.151   1.223
 3783WAT    HW111348   4.101   3.199   1.270
 3783WAT    HW211349   4.126   3.120   1.143
 3784WAT     OW11350   4.300   5.011   3.660
 3784WAT    HW111351   4.325   5.099   3.690
 3784WAT    HW211352   4.384   4.970   3.636
 3785WAT     OW11353   3.243   3.868   5.415
 3785WAT    HW111354   3.211   3.820   5.338
 3785WAT    HW211355   3.164   3.898   5.459
 3786WAT     OW11356   4.393   6.076   2.865
 3786WAT    HW111357   4.333   6.022   2.917
 3786WAT    HW211358   4.441   6.013   2.811
 3787WAT     OW11359   0.037   1.146   1.735
 3787WAT    HW111360   0.066   1.237   1.729
 3787WAT    HW211361  -0.055   1.148   1.708
 3788WAT     OW11362   3.514   0.593   0.396
 3788WAT    HW111363   3.429   0.560   0.423
 3788WAT    HW211364   3.541   0.533   0.326
 3789WAT     OW11365   5.855   2.495   5.625
 3789WAT    HW111366   5.921   2.434   5.593
 3789WAT    HW211367   5.898   2.580   5.624
 3790WAT     OW11368   1.481   2.521   2.028
 3790WAT    HW111369   1.445   2.602   1.993
 3790WAT    HW211370   1.497   2.466   1.951
 3791WAT     OW11371   6.150   2.164   6.257
 3791WAT    HW111372   6.082   2.135   6.318
 3791WAT    HW211373   6.110   2.155   6.171
 3792WAT     OW11374   4.855   3.022   1.301
 3792WAT    HW111375   4.893   2.985   1.221
 3792WAT    HW211376   4.761   3.010   1.291
 3793WAT     OW11377   5.897   4.179   1.414
 3793WAT    HW111378   5.973   4.145   1.463
 3793WAT    HW211379   5.823   4.164   1.473
 3794WAT     OW11380   5.924   1.065   5.321
 3794WAT    HW111381   5.885   0.983   5.352
 3794WAT    HW211382   5.892   1.131   5.384
 3795WAT     OW11383   1.759   6.555   5.774
 3795WAT    HW111384   1.791   6.485   5.830
 3795WAT    HW211385   1.786   6.636   5.818
 3796WAT     OW11386   1.137   2.625   5.248
 3796WAT    HW111387   1.068   2.579   5.296
 3796WAT    HW211388   1.104   2.629   5.157
 3797WAT     OW11389   0.888   3.574   0.488
 3797WAT    HW111390   0.960   3.521   0.523
 3797WAT    HW211391   0.852   3.618   0.565
 3798WAT     OW11392   0.269   1.453   5.317
 3798WAT    HW111393   0.355   1.411   5.312
 3798WAT    HW211394   0.218   1.412   5.247
 3799WAT     OW11395   0.448   4.194   1.296
 3799WAT    HW111396   0.452   4.213   1.202
 3799WAT    HW211397   0.540   4.193   1.324
 3800WAT     OW11398   1.770   3.894   5.383
 3800WAT    HW111399   1.794   3.952   5.455
 3800WAT    HW211400   1.695   3.845   5.417
 3801WAT     OW11401   3.930   0.786   3.825
 3801WAT    HW111402   3.895   0.699   3.841
 3801WAT    HW211403   3.952   0.786   3.731
 3802WAT     OW11404   2.804   0.470   4.495
 3802WAT    HW111405   2.832   0.392   4.542
 3802WAT    HW211406   2.757   0.437   4.418
 3803WAT     OW11407   1.349   5.446   2.167
 3803WAT    HW111408   1.381   5.420   2.253
 3803WAT    HW211409   1.306   5.531   2.182
 3804WAT     OW11410   1.332   4.304   5.756
 3804WAT    HW111411   1.309   4.216   5.784
 3804WAT    HW211412   1.341   4.298   5.661
 3805WAT     OW11413   0.701   0.812   4.673
 3805WAT    HW111414   0.620   0.829   4.625
 3805WAT    HW211415   0.706   0.717   4.679
 3806WAT     OW11416   2.527   2.853   5.433
 3806WAT    HW111417   2.436   2.880   5.424
 3806WAT    HW211418   2.570   2.887   5.355
 3807WAT     OW11419   5.895   0.260   5.643
 3807WAT    HW111420   5.831   0.244   5.711
 3807WAT    HW211421   5.846   0.304   5.573
 3808WAT     OW11422   1.917   2.136   0.202
 3808WAT    HW111423   1.911   2.114   0.109
 3808WAT    HW211424   1.973   2.069   0.240
 3809WAT     OW11425   4.116   1.916   6.219
 3809WAT    HW111426   4.155   1.968   6.150
 3809WAT    HW211427   4.024   1.941   6.219
 3810WAT     OW11428   3.705   1.164   6.454
 3810WAT    HW111429   3.767   1.222   6.410
 3810WAT    HW211430   3.661   1.118   6.382
 3811WAT     OW11431   1.857   6.640   4.133
 3811WAT    HW111432   1.890   6.629   4.043
 3811WAT    HW211433   1.800   6.564   4.147
 3812WAT     OW11434   0.660   3.751   1.226
 3812WAT    HW111435   0.572   3.784   1.244
 3812WAT    HW211436   0.681   3.699   1.304
 3813WAT     OW11437   5.744   6.695   2.886
 3813WAT    HW111438   5.743   6.648   2.802
 3813WAT    HW211439   5.837   6.705   2.906
 3814WAT     OW11440   3.867   4.733   4.170
 3814WAT    HW111441   3.942   4.723   4.112
 3814WAT    HW211442   3.796   4.687   4.126
 3815WAT     OW11443   4.376   2.642   0.975
 3815WAT    HW111444   4.346   2.726   0.941
 3815WAT    HW211445   4.295   2.596   0.998
 3816WAT     OW11446   1.546   4.508   6.098
 3816WAT    HW111447   1.557   4.505   6.003
 3816WAT    HW211448   1.475   4.446   6.116
 3817WAT     OW11449   0.506   1.714   4.036
 3817WAT    HW111450   0.508   1.642   4.099
 3817WAT    HW211451   0.592   1.755   4.043
 3818WAT     OW11452   0.324   1.775   6.291
 3818WAT    HW111453   0.300   1.844   6.230
 3818WAT    HW211454   0.255   1.776   6.357
 3819WAT     OW11455   1.681   4.407   0.097
 3819WAT    HW111456   1.655   4.355   0.173
 3819WAT    HW211457   1.679   4.345   0.024
 3820WAT     OW11458   1.847   5.285   0.232
 3820WAT    HW111459   1.822   5.346   0.163
 3820WAT    HW211460   1.855   5.201   0.189
 3821WAT     OW11461   4.409   5.030   0.542
 3821WAT    HW111462   4.441   5.053   0.630
 3821WAT    HW211463   4.481   5.053   0.484
 3822WAT     OW11464   3.310   2.932   0.100
 3822WAT    HW111465   3.282   2.841   0.110
 3822WAT    HW211466   3.392   2.926   0.051
 3823WAT     OW11467   6.672   6.633   2.291
 3823WAT    HW111468   6.598   6.585   2.329
 3823WAT    HW211469   6.743   6.569   2.289
 3824WAT     OW11470   2.335   0.624   6.434
 3824WAT    HW111471   2.304   0.539   6.464
 3824WAT    HW211472   2.280   0.644   6.358
 3825WAT     OW11473   1.831   1.329   5.901
 3825WAT    HW111474   1.823   1.247   5.852
 3825WAT    HW211475   1.879   1.305   5.980
 3826WAT     OW11476   1.936   2.454   1.705
 3826WAT    HW111477   1.975   2.388   1.763
 3826WAT    HW211478   1.858   2.484   1.752
 3827WAT     OW11479   5.897   1.671   5.696
 3827WAT    HW111480   5.935   1.601   5.643
 3827WAT    HW211481   5.971   1.729   5.715
 3828WAT     OW11482   0.797   2.105   2.187
 3828WAT    HW111483   0.776   2.055   2.266
 3828WAT    HW211484   0.893   2.114   2.189
 3829WAT     OW11485   4.177   6.582   6.573
 3829WAT    HW111486   4.118   6.510   6.593
 3829WAT    HW211487   4.132   6.660   6.607
 3830WAT     OW11488   2.297   6.168   4.514
 3830WAT    HW111489   2.215   6.189   4.561
 3830WAT    HW211490   2.365   6.210   4.566
 3831WAT     OW11491   5.887   4.256   5.589
 3831WAT    HW111492   5.916   4.165   5.601
 3831WAT    HW211493   5.967   4.308   5.602
 3832WAT     OW11494   0.633   6.317   1.385
 3832WAT    HW111495   0.682   6.327   1.467
 3832WAT    HW211496   0.701   6.309   1.318
 3833WAT     OW11497   1.921   5.204   3.077
 3833WAT    HW111498   1.898   5.153   2.999
 3833WAT    HW211499   1.974   5.276   3.044
 3834WAT     OW11500   2.051   2.928   5.118
 3834WAT    HW111501   2.145   2.941   5.102
 3834WAT    HW211502   2.008   2.996   5.066
 3835WAT     OW11503   6.305   2.610   2.976
 3835WAT    HW111504   6.354   2.528   2.979
 3835WAT    HW211505   6.328   2.650   2.892
 3836WAT     OW11506   6.368   6.021   2.881
 3836WAT    HW111507   6.377   5.978   2.966
 3836WAT    HW211508   6.298   5.972   2.837
 3837WAT     OW11509   2.190   3.619   0.678
 3837WAT    HW111510   2.217   3.536   0.717
 3837WAT    HW211511   2.263   3.678   0.697
 3838WAT     OW11512   6.617   2.579   0.844
 3838WAT    HW111513   6.528   2.583   0.810
 3838WAT    HW211514   6.607   2.591   0.939
 3839WAT     OW11515   3.226   4.008   6.408
 3839WAT    HW111516   3.216   3.965   6.323
 3839WAT    HW211517   3.138   4.011   6.444
 3840WAT     OW11518   1.777   2.908   1.695
 3840WAT    HW111519   1.855   2.963   1.702
 3840WAT    HW211520   1.798   2.847   1.624
 3841WAT     OW11521   0.725   4.311   6.247
 3841WAT    HW111522   0.734   4.401   6.214
 3841WAT    HW211523   0.804   4.296   6.297
 3842WAT     OW11524   1.283   1.777   4.054
 3842WAT    HW111525   1.276   1.858   4.005
 3842WAT    HW211526   1.323   1.802   4.138
 3843WAT     OW11527   2.470   4.253   5.045
 3843WAT    HW111528   2.474   4.185   4.977
 3843WAT    HW211529   2.522   4.325   5.010
 3844WAT     OW11530   1.494   1.298   3.723
 3844WAT    HW111531   1.589   1.310   3.724
 3844WAT    HW211532   1.466   1.325   3.810
 3845WAT     OW11533   5.675   3.938   4.327
 3845WAT    HW111534   5.625   3.861   4.356
 3845WAT    HW211535   5.634   3.963   4.244
 3846WAT     OW11536   4.677   6.021   1.363
 3846WAT    HW111537   4.747   6.012   1.298
 3846WAT    HW211538   4.664   6.115   1.371
 3847WAT     OW11539   3.003   2.488   0.582
 3847WAT    HW111540   3.060   2.521   0.513
 3847WAT    HW211541   2.995   2.561   0.643
 3848WAT     OW11542   0.669   6.104   0.794
 3848WAT    HW111543   0.639   6.184   0.836
 3848WAT    HW211544   0.621   6.101   0.711
 3849WAT     OW11545   0.561   1.075   4.946
 3849WAT    HW111546   0.505   1.042   5.016
 3849WAT    HW211547   0.511   1.059   4.866
 3850WAT     OW11548   0.548   5.324   1.928
 3850WAT    HW111549   0.464   5.340   1.885
 3850WAT    HW211550   0.532   5.343   2.020
 3851WAT     OW11551   1.651   6.650   3.276
 3851WAT    HW111552   1.663   6.745   3.285
 3851WAT    HW211553   1.595   6.626   3.350
 3852WAT     OW11554   1.191   2.901   5.222
 3852WAT    HW111555   1.193   2.929   5.130
 3852WAT    HW211556   1.187   2.806   5.218
 3853WAT     OW11557   3.991   6.712   3.481
 3853WAT    HW111558   3.911   6.679   3.442
 3853WAT    HW211559   3.986   6.807   3.471
 3854WAT     OW11560   2.858   1.971   1.085
 3854WAT    HW111561   2.921   1.910   1.047
 3854WAT    HW211562   2.870   1.963   1.179
 3855WAT     OW11563   6.238   2.150   3.405
 3855WAT    HW111564   6.302   2.181   3.469
 3855WAT    HW211565   6.225   2.225   3.347
 3856WAT     OW11566   3.475   4.405   5.737
 3856WAT    HW111567   3.537   4.335   5.757
 3856WAT    HW211568   3.529   4.473   5.696
 3857WAT     OW11569   1.333   2.468   5.985
 3857WAT    HW111570   1.259   2.499   5.933
 3857WAT    HW211571   1.297   2.457   6.073
 3858WAT     OW11572   3.256   5.070   4.401
 3858WAT    HW111573   3.315   5.089   4.473
 3858WAT    HW211574   3.181   5.026   4.442
 3859WAT     OW11575   0.570   0.536   1.409
 3859WAT    HW111576   0.636   0.585   1.361
 3859WAT    HW211577   0.495   0.532   1.349
 3860WAT     OW11578   5.507   0.215   3.860
 3860WAT    HW111579   5.489   0.175   3.776
 3860WAT    HW211580   5.421   0.238   3.895
 3861WAT     OW11581   0.658   2.431   4.770
 3861WAT    HW111582   0.584   2.373   4.785
 3861WAT    HW211583   0.635   2.512   4.815
 3862WAT     OW11584   1.487   0.748   1.595
 3862WAT    HW111585   1.508   0.788   1.679
 3862WAT    HW211586   1.562   0.768   1.539
 3863WAT     OW11587   2.520   5.237   3.528
 3863WAT    HW111588   2.590   5.179   3.498
 3863WAT    HW211589   2.442   5.203   3.485
 3864WAT     OW11590   1.131   2.343   5.719
 3864WAT    HW111591   1.113   2.421   5.770
 3864WAT    HW211592   1.212   2.362   5.672
 3865WAT     OW11593   1.907   2.344   5.470
 3865WAT    HW111594   1.821   2.301   5.466
 3865WAT    HW211595   1.937   2.330   5.560
 3866WAT     OW11596   2.182   6.376   1.272
 3866WAT    HW111597   2.189   6.459   1.318
 3866WAT    HW211598   2.088   6.354   1.277
 3867WAT     OW11599   1.250   3.992   0.632
 3867WAT    HW111600   1.241   4.011   0.538
 3867WAT    HW211601   1.199   3.912   0.645
 3868WAT     OW11602   6.080   6.148   3.316
 3868WAT    HW111603   5.987   6.131   3.306
 3868WAT    HW211604   6.114   6.070   3.360
 3869WAT     OW11605   1.659   2.257   5.369
 3869WAT    HW111606   1.567   2.238   5.384
 3869WAT    HW211607   1.661   2.349   5.342
 3870WAT     OW11608   6.150   3.239   3.614
 3870WAT    HW111609   6.154   3.240   3.710
 3870WAT    HW211610   6.153   3.331   3.589
 3871WAT     OW11611   3.168   2.496   3.414
 3871WAT    HW111612   3.231   2.543   3.360
 3871WAT    HW211613   3.128   2.564   3.469
 3872WAT     OW11614   1.463   2.335   0.360
 3872WAT    HW111615   1.534   2.285   0.319
 3872WAT    HW211616   1.428   2.390   0.289
 3873WAT     OW11617   3.064   4.995   1.597
 3873WAT    HW111618   3.066   4.913   1.547
 3873WAT    HW211619   2.997   4.980   1.665
 3874WAT     OW11620   5.829   5.186   3.702
 3874WAT    HW111621   5.903   5.146   3.656
 3874WAT    HW211622   5.755   5.126   3.685
 3875WAT     OW11623   5.203   1.668   2.081
 3875WAT    HW111624   5.166   1.584   2.053
 3875WAT    HW211625   5.248   1.702   2.004
 3876WAT     OW11626   3.451   2.009   0.044
 3876WAT    HW111627   3.357   2.008   0.030
 3876WAT    HW211628   3.487   2.049  -0.035
 3877WAT     OW11629   5.969   4.885   4.085
 3877WAT    HW111630   5.881   4.861   4.059
 3877WAT    HW211631   6.013   4.909   4.003
 3878WAT     OW11632   4.182   2.472   5.439
 3878WAT    HW111633   4.211   2.403   5.497
 3878WAT    HW211634   4.146   2.539   5.497
 3879WAT     OW11635   5.579   0.132   4.529
 3879WAT    HW111636   5.661   0.175   4.554
 3879WAT    HW211637   5.582   0.048   4.574
 3880WAT     OW11638   5.628   1.617   5.606
 3880WAT    HW111639   5.699   1.646   5.663
 3880WAT    HW211640   5.671   1.568   5.536
 3881WAT     OW11641   3.455   0.464   1.087
 3881WAT    HW111642   3.459   0.549   1.042
 3881WAT    HW211643   3.386   0.416   1.042
 3882WAT     OW11644   1.694   0.001   6.120
 3882WAT    HW111645   1.616  -0.002   6.065
 3882WAT    HW211646   1.696  -0.082   6.166
 3883WAT     OW11647   0.763   0.552   6.337
 3883WAT    HW111648   0.819   0.628   6.356
 3883WAT    HW211649   0.751   0.554   6.242
 3884WAT     OW11650   2.887   3.524   2.242
 3884WAT    HW111651   2.883   3.464   2.167
 3884WAT    HW211652   2.797   3.527   2.275
 3885WAT     OW11653   4.378   5.458   2.919
 3885WAT    HW111654   4.350   5.455   2.828
 3885WAT    HW211655   4.472   5.442   2.916
 3886WAT     OW11656   2.020   5.469   2.639
 3886WAT    HW111657   1.959   5.521   2.691
 3886WAT    HW211658   1.987   5.380   2.645
 3887WAT     OW11659   6.688   4.956   6.410
 3887WAT    HW111660   6.761   4.985   6.464
 3887WAT    HW211661   6.638   4.897   6.466
 3888WAT     OW11662   3.022   4.325   0.136
 3888WAT    HW111663   2.988   4.314   0.047
 3888WAT    HW211664   3.016   4.237   0.174
 3889WAT     OW11665   0.385   3.701   5.635
 3889WAT    HW111666   0.381   3.786   5.590
 3889WAT    HW211667   0.371   3.722   5.727
 3890WAT     OW11668   0.614   4.194   4.979
 3890WAT    HW111669   0.575   4.139   5.046
 3890WAT    HW211670   0.542   4.212   4.919
 3891WAT     OW11671   0.202   4.411   3.494
 3891WAT    HW111672   0.162   4.378   3.575
 3891WAT    HW211673   0.135   4.467   3.455
 3892WAT     OW11674   3.961   2.156   3.073
 3892WAT    HW111675   3.892   2.214   3.105
 3892WAT    HW211676   4.001   2.203   3.001
 3893WAT     OW11677   2.048   3.179   3.131
 3893WAT    HW111678   1.993   3.186   3.209
 3893WAT    HW211679   2.002   3.230   3.064
 3894WAT     OW11680   2.192   0.908   3.826
 3894WAT    HW111681   2.147   0.970   3.883
 3894WAT    HW211682   2.234   0.847   3.886
 3895WAT     OW11683   5.779   6.305   2.464
 3895WAT    HW111684   5.697   6.342   2.497
 3895WAT    HW211685   5.780   6.329   2.371
 3896WAT     OW11686   2.067   5.535   1.855
 3896WAT    HW111687   2.018   5.458   1.883
 3896WAT    HW211688   2.001   5.601   1.838
 3897WAT     OW11689   3.993   0.054   2.407
 3897WAT    HW111690   3.908   0.078   2.369
 3897WAT    HW211691   4.046   0.029   2.332
 3898WAT     OW11692   1.270   1.630   0.936
 3898WAT    HW111693   1.191   1.667   0.896
 3898WAT    HW211694   1.335   1.700   0.929
 3899WAT     OW11695   2.794   4.085   4.405
 3899WAT    HW111696   2.867   4.043   4.452
 3899WAT    HW211697   2.750   4.138   4.472
 3900WAT     OW11698   4.720   5.569   5.993
 3900WAT    HW111699   4.765   5.485   5.991
 3900WAT    HW211700   4.791   5.634   5.986
 3901WAT     OW11701   2.584   5.500   3.529
 3901WAT    HW111702   2.565   5.406   3.531
 3901WAT    HW211703   2.637   5.516   3.607
 3902WAT     OW11704   1.175   3.495   4.836
 3902WAT    HW111705   1.186   3.544   4.754
 3902WAT    HW211706   1.246   3.527   4.892
 3903WAT     OW11707   5.617   4.230   4.094
 3903WAT    HW111708   5.577   4.269   4.172
 3903WAT    HW211709   5.583   4.141   4.091
 3904WAT     OW11710   6.305   0.066   4.591
 3904WAT    HW111711   6.297   0.080   4.496
 3904WAT    HW211712   6.220   0.093   4.626
 3905WAT     OW11713   5.737   2.274   6.566
 3905WAT    HW111714   5.719   2.196   6.514
 3905WAT    HW211715   5.745   2.345   6.502
 3906WAT     OW11716   1.252   4.929   2.397
 3906WAT    HW111717   1.284   4.882   2.320
 3906WAT    HW211718   1.259   4.865   2.468
 3907WAT     OW11719   1.034   3.000   2.135
 3907WAT    HW111720   1.115   2.965   2.098
 3907WAT    HW211721   0.967   2.936   2.113
 3908WAT     OW11722   1.846   2.954   1.311
 3908WAT    HW111723   1.760   2.973   1.275
 3908WAT    HW211724   1.880   3.038   1.339
 3909WAT     OW11725   3.660   4.411   4.702
 3909WAT    HW111726   3.565   4.409   4.717
 3909WAT    HW211727   3.686   4.499   4.727
 3910WAT     OW11728   1.843   3.709   2.826
 3910WAT    HW111729   1.788   3.762   2.769
 3910WAT    HW211730   1.858   3.628   2.778
 3911WAT     OW11731   6.202   3.752   3.124
 3911WAT    HW111732   6.244   3.813   3.063
 3911WAT    HW211733   6.157   3.689   3.068
 3912WAT     OW11734   0.315   6.508   5.801
 3912WAT    HW111735   0.353   6.435   5.752
 3912WAT    HW211736   0.371   6.583   5.780
 3913WAT     OW11737   0.133   2.183   1.204
 3913WAT    HW111738   0.138   2.108   1.144
 3913WAT    HW211739   0.067   2.240   1.165
 3914WAT     OW11740   1.893   1.548   1.364
 3914WAT    HW111741   1.936   1.562   1.449
 3914WAT    HW211742   1.964   1.535   1.303
 3915WAT     OW11743   3.546   6.579   4.849
 3915WAT    HW111744   3.489   6.552   4.777
 3915WAT    HW211745   3.599   6.501   4.868
 3916WAT     OW11746   3.217   5.747   2.298
 3916WAT    HW111747   3.172   5.764   2.215
 3916WAT    HW211748   3.188   5.659   2.323
 3917WAT     OW11749   6.442   0.105   3.739
 3917WAT    HW111750   6.367   0.162   3.755
 3917WAT    HW211751   6.403   0.022   3.710
 3918WAT     OW11752   6.537   0.831   1.686
 3918WAT    HW111753   6.577   0.866   1.765
 3918WAT    HW211754   6.539   0.736   1.699
 3919WAT     OW11755   4.870   1.614   3.553
 3919WAT    HW111756   4.911   1.528   3.544
 3919WAT    HW211757   4.893   1.661   3.473
 3920WAT     OW11758   3.077   4.050   6.672
 3920WAT    HW111759   3.049   4.042   6.764
 3920WAT    HW211760   3.024   4.122   6.637
 3921WAT     OW11761   4.309   4.780   0.514
 3921WAT    HW111762   4.345   4.869   0.518
 3921WAT    HW211763   4.214   4.793   0.511
 3922WAT     OW11764   5.958   3.995   5.655
 3922WAT    HW111765   6.049   3.970   5.669
 3922WAT    HW211766   5.907   3.932   5.706
 3923WAT     OW11767   5.727   6.169   6.548
 3923WAT    HW111768   5.799   6.158   6.486
 3923WAT    HW211769   5.662   6.221   6.500
 3924WAT     OW11770   2.987   0.872   3.392
 3924WAT    HW111771   2.963   0.883   3.484
 3924WAT    HW211772   2.905   0.849   3.348
 3925WAT     OW11773   0.904   2.632   0.918
 3925WAT    HW111774   0.916   2.632   1.013
 3925WAT    HW211775   0.943   2.549   0.889
 3926WAT     OW11776   1.186   4.985   6.207
 3926WAT    HW111777   1.149   4.910   6.160
 3926WAT    HW211778   1.182   4.959   6.299
 3927WAT     OW11779   3.248   6.589   1.832
 3927WAT    HW111780   3.215   6.505   1.798
 3927WAT    HW211781   3.254   6.576   1.927
 3928WAT     OW11782   4.185   0.558   3.756
 3928WAT    HW111783   4.193   0.482   3.700
 3928WAT    HW211784   4.210   0.632   3.701
 3929WAT     OW11785   2.711   3.691   3.690
 3929WAT    HW111786   2.715   3.600   3.719
 3929WAT    HW211787   2.802   3.718   3.682
 3930WAT     OW11788   5.743   3.805   6.515
 3930WAT    HW111789   5.805   3.819   6.587
 3930WAT    HW211790   5.683   3.739   6.548
 3931WAT     OW11791   5.996   6.611   1.553
 3931WAT    HW111792   6.051   6.611   1.632
 3931WAT    HW211793   6.058   6.602   1.481
 3932WAT     OW11794   4.110   1.749   4.568
 3932WAT    HW111795   4.019   1.762   4.597
 3932WAT    HW211796   4.162   1.802   4.629
 3933WAT     OW11797   1.442   0.758   4.589
 3933WAT    HW111798   1.354   0.732   4.560
 3933WAT    HW211799   1.438   0.754   4.684
 3934WAT     OW11800   0.247   5.616   5.854
 3934WAT    HW111801   0.259   5.595   5.761
 3934WAT    HW211802   0.205   5.539   5.891
 3935WAT     OW11803   1.618   0.212   2.669
 3935WAT    HW111804   1.548   0.270   2.640
 3935WAT    HW211805   1.698   0.264   2.660
 3936WAT     OW11806   1.812   0.512   3.083
 3936WAT    HW111807   1.860   0.432   3.062
 3936WAT    HW211808   1.759   0.529   3.005
 3937WAT     OW11809   2.906   6.271   3.525
 3937WAT    HW111810   2.871   6.357   3.549
 3937WAT    HW211811   2.834   6.210   3.540
 3938WAT     OW11812   5.068   4.195   1.494
 3938WAT    HW111813   5.100   4.114   1.455
 3938WAT    HW211814   5.022   4.167   1.573
 3939WAT     OW11815   3.654   6.017   2.205
 3939WAT    HW111816   3.570   6.035   2.248
 3939WAT    HW211817   3.631   6.002   2.113
 3940WAT     OW11818   4.768   5.487   5.332
 3940WAT    HW111819   4.682   5.446   5.330
 3940WAT    HW211820   4.792   5.488   5.425
 3941WAT     OW11821   0.323   4.725   4.728
 3941WAT    HW111822   0.261   4.659   4.697
 3941WAT    HW211823   0.270   4.786   4.779
 3942WAT     OW11824   3.557   0.154   2.830
 3942WAT    HW111825   3.558   0.158   2.926
 3942WAT    HW211826   3.555   0.245   2.802
 3943WAT     OW11827   3.585   2.767   2.448
 3943WAT    HW111828   3.500   2.790   2.410
 3943WAT    HW211829   3.590   2.672   2.437
 3944WAT     OW11830   1.406   0.370   2.595
 3944WAT    HW111831   1.342   0.299   2.589
 3944WAT    HW211832   1.396   0.402   2.685
 3945WAT     OW11833   5.656   5.335   6.610
 3945WAT    HW111834   5.563   5.327   6.589
 3945WAT    HW211835   5.673   5.266   6.674
 3946WAT     OW11836   3.129   6.680   4.424
 3946WAT    HW111837   3.205   6.738   4.432
 3946WAT    HW211838   3.148   6.627   4.347
 3947WAT     OW11839   5.740   5.809   1.503
 3947WAT    HW111840   5.782   5.745   1.445
 3947WAT    HW211841   5.647   5.789   1.498
 3948WAT     OW11842   6.013   5.021   3.564
 3948WAT    HW111843   6.093   5.041   3.514
 3948WAT    HW211844   5.975   4.946   3.518
 3949WAT     OW11845   4.097   0.051   5.784
 3949WAT    HW111846   4.145  -0.006   5.725
 3949WAT    HW211847   4.049  -0.008   5.842
 3950WAT     OW11848   3.368   2.211   6.383
 3950WAT    HW111849   3.423   2.158   6.440
 3950WAT    HW211850   3.367   2.297   6.425
 3951WAT     OW11851   3.659   6.364   6.659
 3951WAT    HW111852   3.706   6.429   6.711
 3951WAT    HW211853   3.719   6.290   6.653
 3952WAT     OW11854   0.749   0.535   1.639
 3952WAT    HW111855   0.674   0.535   1.580
 3952WAT    HW211856   0.823   0.514   1.582
 3953WAT     OW11857   0.986   2.939   1.109
 3953WAT    HW111858   0.972   2.927   1.015
 3953WAT    HW211859   1.059   3.000   1.115
 3954WAT     OW11860   4.841   2.526   4.446
 3954WAT    HW111861   4.877   2.520   4.357
 3954WAT    HW211862   4.898   2.590   4.490
 3955WAT     OW11863   6.340   3.794   0.781
 3955WAT    HW111864   6.249   3.783   0.808
 3955WAT    HW211865   6.384   3.715   0.813
 3956WAT     OW11866   3.490   6.722   3.927
 3956WAT    HW111867   3.456   6.737   3.839
 3956WAT    HW211868   3.510   6.628   3.929
 3957WAT     OW11869   5.513   3.279   1.753
 3957WAT    HW111870   5.581   3.273   1.821
 3957WAT    HW211871   5.448   3.338   1.790
 3958WAT     OW11872   1.135   2.291   5.011
 3958WAT    HW111873   1.159   2.208   4.970
 3958WAT    HW211874   1.051   2.314   4.971
 3959WAT     OW11875   3.325   4.039   3.785
 3959WAT    HW111876   3.391   4.107   3.774
 3959WAT    HW211877   3.319   3.996   3.700
 3960WAT     OW11878   2.470   3.746   5.498
 3960WAT    HW111879   2.376   3.765   5.499
 3960WAT    HW211880   2.491   3.721   5.588
 3961WAT     OW11881   0.482   6.725   5.778
 3961WAT    HW111882   0.574   6.699   5.790
 3961WAT    HW211883   0.463   6.779   5.855
 3962WAT     OW11884   2.823   3.400   2.656
 3962WAT    HW111885   2.880   3.402   2.579
 3962WAT    HW211886   2.801   3.492   2.671
 3963WAT     OW11887   4.009   4.442   6.416
 3963WAT    HW111888   4.025   4.501   6.490
 3963WAT    HW211889   3.988   4.500   6.343
 3964WAT     OW11890   4.649   3.235   2.287
 3964WAT    HW111891   4.692   3.191   2.213
 3964WAT    HW211892   4.637   3.325   2.258
 3965WAT     OW11893   0.463   2.260   1.190
 3965WAT    HW111894   0.501   2.180   1.225
 3965WAT    HW211895   0.399   2.287   1.257
 3966WAT     OW11896   4.840   6.067   2.138
 3966WAT    HW111897   4.757   6.067   2.091
 3966WAT    HW211898   4.828   6.002   2.208
 3967WAT     OW11899   1.787   6.207   3.715
 3967WAT    HW111900   1.760   6.282   3.662
 3967WAT    HW211901   1.851   6.242   3.776
 3968WAT     OW11902   6.082   0.663   4.217
 3968WAT    HW111903   6.003   0.667   4.164
 3968WAT    HW211904   6.067   0.589   4.277
 3969WAT     OW11905   4.812   1.137   4.103
 3969WAT    HW111906   4.883   1.188   4.065
 3969WAT    HW211907   4.733   1.185   4.077
 3970WAT     OW11908   6.415   3.899   5.867
 3970WAT    HW111909   6.435   3.944   5.949
 3970WAT    HW211910   6.500   3.868   5.835
 3971WAT     OW11911   1.247   5.207   3.104
 3971WAT    HW111912   1.341   5.227   3.107
 3971WAT    HW211913   1.207   5.271   3.163
 3972WAT     OW11914   5.970   1.275   3.079
 3972WAT    HW111915   6.019   1.299   3.000
 3972WAT    HW211916   6.007   1.330   3.148
 3973WAT     OW11917   6.213   5.732   2.395
 3973WAT    HW111918   6.175   5.807   2.350
 3973WAT    HW211919   6.144   5.702   2.454
 3974WAT     OW11920   0.431   0.596   2.191
 3974WAT    HW111921   0.346   0.552   2.188
 3974WAT    HW211922   0.453   0.613   2.100
 3975WAT     OW11923   1.707   5.872   4.571
 3975WAT    HW111924   1.664   5.787   4.577
 3975WAT    HW211925   1.798   5.852   4.551
 3976WAT     OW11926   0.688   6.590   6.517
 3976WAT    HW111927   0.613   6.643   6.543
 3976WAT    HW211928   0.761   6.627   6.566
 3977WAT     OW11929   6.221   2.600   1.546
 3977WAT    HW111930   6.168   2.655   1.604
 3977WAT    HW211931   6.164   2.525   1.525
 3978WAT     OW11932   4.925   3.730   1.302
 3978WAT    HW111933   4.895   3.821   1.297
 3978WAT    HW211934   4.860   3.687   1.359
 3979WAT     OW11935   4.709   3.444   3.183
 3979WAT    HW111936   4.787   3.396   3.154
 3979WAT    HW211937   4.645   3.429   3.114
 3980WAT     OW11938   2.783   4.808   5.396
 3980WAT    HW111939   2.843   4.874   5.362
 3980WAT    HW211940   2.815   4.725   5.361
 3981WAT     OW11941   3.292   2.350   1.106
 3981WAT    HW111942   3.290   2.353   1.011
 3981WAT    HW211943   3.352   2.421   1.132
 3982WAT     OW11944   3.965   0.928   5.457
 3982WAT    HW111945   3.990   0.959   5.544
 3982WAT    HW211946   3.869   0.922   5.461
 3983WAT     OW11947   6.497   4.861   1.330
 3983WAT    HW111948   6.422   4.801   1.335
 3983WAT    HW211949   6.556   4.831   1.399
 3984WAT     OW11950   3.738   6.480   1.339
 3984WAT    HW111951   3.719   6.458   1.248
 3984WAT    HW211952   3.706   6.569   1.350
 3985WAT     OW11953   0.974   3.224   1.401
 3985WAT    HW111954   0.921   3.151   1.433
 3985WAT    HW211955   1.013   3.262   1.480
 3986WAT     OW11956   1.112   0.767   5.544
 3986WAT    HW111957   1.166   0.691   5.525
 3986WAT    HW211958   1.174   0.834   5.573
 3987WAT     OW11959   6.654   2.541   5.271
 3987WAT    HW111960   6.614   2.466   5.227
 3987WAT    HW211961   6.746   2.516   5.282
 3988WAT     OW11962   6.190   5.242   1.701
 3988WAT    HW111963   6.218   5.317   1.649
 3988WAT    HW211964   6.145   5.281   1.776
 3989WAT     OW11965   0.862   2.898   1.759
 3989WAT    HW111966   0.769   2.918   1.754
 3989WAT    HW211967   0.866   2.816   1.808
 3990WAT     OW11968   3.665   2.319   0.576
 3990WAT    HW111969   3.603   2.372   0.526
 3990WAT    HW211970   3.706   2.381   0.636
 3991WAT     OW11971   5.671   3.090   5.711
 3991WAT    HW111972   5.655   3.134   5.794
 3991WAT    HW211973   5.739   3.025   5.730
 3992WAT     OW11974   6.153   2.768   2.607
 3992WAT    HW111975   6.096   2.692   2.616
 3992WAT    HW211976   6.236   2.741   2.646
 3993WAT     OW11977   2.970   1.746   4.406
 3993WAT    HW111978   3.030   1.797   4.461
 3993WAT    HW211979   2.966   1.660   4.448
 3994WAT     OW11980   0.515   3.983   2.030
 3994WAT    HW111981   0.539   3.904   2.079
 3994WAT    HW211982   0.420   3.980   2.024
 3995WAT     OW11983   4.385   3.344   3.995
 3995WAT    HW111984   4.389   3.369   4.087
 3995WAT    HW211985   4.331   3.265   3.994
 3996WAT     OW11986   0.856   3.197   4.174
 3996WAT    HW111987   0.929   3.147   4.211
 3996WAT    HW211988   0.810   3.136   4.117
 3997WAT     OW11989   1.111   3.534   0.011
 3997WAT    HW111990   1.195   3.529  -0.035
 3997WAT    HW211991   1.052   3.576  -0.051
 3998WAT     OW11992   2.502   0.594   3.885
 3998WAT    HW111993   2.530   0.582   3.795
 3998WAT    HW211994   2.538   0.519   3.932
 3999WAT     OW11995   3.300   4.627   0.019
 3999WAT    HW111996   3.239   4.701   0.015
 3999WAT    HW211997   3.386   4.666   0.007
 4000WAT     OW11998   3.066   1.973   2.081
 4000WAT    HW111999   3.068   1.886   2.123
 4000WAT    HW212000   2.974   1.999   2.088
 4001WAT     OW12001   2.756   6.421   2.439
 4001WAT    HW112002   2.781   6.373   2.361
 4001WAT    HW212003   2.786   6.366   2.512
 4002WAT     OW12004   6.221   3.290   2.771
 4002WAT    HW112005   6.261   3.345   2.704
 4002WAT    HW212006   6.255   3.325   2.853
 4003WAT     OW12007   5.438   2.669   5.224
 4003WAT    HW112008   5.356   2.708   5.195
 4003WAT    HW212009   5.434   2.578   5.195
 4004WAT     OW12010   0.043   2.842   6.310
 4004WAT    HW112011   0.059   2.873   6.221
 4004WAT    HW212012  -0.018   2.769   6.299
 4005WAT     OW12013   4.395   4.150   5.355
 4005WAT    HW112014   4.390   4.232   5.307
 4005WAT    HW212015   4.465   4.164   5.420
 4006WAT     OW12016   1.620   0.426   4.784
 4006WAT    HW112017   1.681   0.476   4.729
 4006WAT    HW212018   1.536   0.437   4.741
 4007WAT     OW12019   6.269   6.596   5.066
 4007WAT    HW112020   6.278   6.544   4.986
 4007WAT    HW212021   6.350   6.646   5.071
 4008WAT     OW12022   4.807   6.658   1.484
 4008WAT    HW112023   4.835   6.671   1.393
 4008WAT    HW212024   4.713   6.675   1.482
 4009WAT     OW12025   0.926   1.230   1.788
 4009WAT    HW112026   0.886   1.247   1.703
 4009WAT    HW212027   0.866   1.271   1.851
 4010WAT     OW12028   6.657   0.396   2.325
 4010WAT    HW112029   6.658   0.309   2.364
 4010WAT    HW212030   6.616   0.452   2.391
 4011WAT     OW12031   5.407   0.552   6.054
 4011WAT    HW112032   5.488   0.597   6.077
 4011WAT    HW212033   5.427   0.504   5.974
 4012WAT     OW12034   3.311   0.294   3.697
 4012WAT    HW112035   3.304   0.302   3.792
 4012WAT    HW212036   3.355   0.210   3.683
 4013WAT     OW12037   4.823   0.336   1.490
 4013WAT    HW112038   4.854   0.375   1.571
 4013WAT    HW212039   4.899   0.288   1.456
 4014WAT     OW12040   4.516   5.483   0.824
 4014WAT    HW112041   4.547   5.417   0.886
 4014WAT    HW212042   4.589   5.544   0.815
 4015WAT     OW12043   0.610   2.111   6.540
 4015WAT    HW112044   0.593   2.018   6.556
 4015WAT    HW212045   0.524   2.149   6.521
 4016WAT     OW12046   1.949   0.853   5.154
 4016WAT    HW112047   1.992   0.803   5.084
 4016WAT    HW212048   1.870   0.802   5.174
 4017WAT     OW12049   2.261   3.459   5.441
 4017WAT    HW112050   2.295   3.457   5.530
 4017WAT    HW212051   2.268   3.369   5.410
 4018WAT     OW12052   4.160   5.748   6.290
 4018WAT    HW112053   4.071   5.759   6.323
 4018WAT    HW212054   4.207   5.705   6.361
 4019WAT     OW12055   2.811   0.285   2.985
 4019WAT    HW112056   2.821   0.344   2.911
 4019WAT    HW212057   2.722   0.250   2.976
 4020WAT     OW12058   0.536   3.053   1.534
 4020WAT    HW112059   0.541   3.146   1.558
 4020WAT    HW212060   0.453   3.045   1.486
 4021WAT     OW12061   1.380   1.009   3.279
 4021WAT    HW112062   1.424   1.087   3.313
 4021WAT    HW212063   1.420   0.937   3.326
 4022WAT     OW12064   4.180   1.397   2.436
 4022WAT    HW112065   4.184   1.484   2.397
 4022WAT    HW212066   4.189   1.337   2.361
 4023WAT     OW12067   1.068   4.439   3.184
 4023WAT    HW112068   1.099   4.529   3.172
 4023WAT    HW212069   0.973   4.445   3.175
 4024WAT     OW12070   2.763   1.882   1.915
 4024WAT    HW112071   2.777   1.933   1.995
 4024WAT    HW212072   2.677   1.910   1.884
 4025WAT     OW12073   5.818   1.192   2.761
 4025WAT    HW112074   5.889   1.132   2.783
 4025WAT    HW212075   5.845   1.232   2.678
 4026WAT     OW12076   0.901   6.655   6.682
 4026WAT    HW112077   0.865   6.614   6.760
 4026WAT    HW212078   0.937   6.738   6.713
 4027WAT     OW12079   3.155   0.959   1.683
 4027WAT    HW112080   3.128   1.049   1.667
 4027WAT    HW212081   3.073   0.909   1.682
 4028WAT     OW12082   5.731   2.733   2.001
 4028WAT    HW112083   5.785   2.752   2.078
 4028WAT    HW212084   5.657   2.683   2.035
 4029WAT     OW12085   2.654   5.073   5.715
 4029WAT    HW112086   2.580   5.046   5.769
 4029WAT    HW212087   2.671   5.163   5.740
 4030WAT     OW12088   1.384   5.565   5.557
 4030WAT    HW112089   1.354   5.574   5.647
 4030WAT    HW212090   1.328   5.497   5.520
 4031WAT     OW12091   2.595   4.840   0.002
 4031WAT    HW112092   2.588   4.842  -0.093
 4031WAT    HW212093   2.600   4.747   0.024
 4032WAT     OW12094   4.513   1.051   0.460
 4032WAT    HW112095   4.535   1.064   0.367
 4032WAT    HW212096   4.443   0.986   0.459
 4033WAT     OW12097   1.533   1.764   0.903
 4033WAT    HW112098   1.574   1.696   0.956
 4033WAT    HW212099   1.598   1.835   0.901
 4034WAT     OW12100   2.778   0.727   0.465
 4034WAT    HW112101   2.693   0.698   0.431
 4034WAT    HW212102   2.770   0.823   0.468
 4035WAT     OW12103   2.509   5.502   2.080
 4035WAT    HW112104   2.428   5.532   2.039
 4035WAT    HW212105   2.551   5.447   2.015
 4036WAT     OW12106   5.009   5.645   0.373
 4036WAT    HW112107   5.099   5.615   0.385
 4036WAT    HW212108   5.017   5.738   0.353
 4037WAT     OW12109   5.827   0.996   6.316
 4037WAT    HW112110   5.793   1.084   6.330
 4037WAT    HW212111   5.837   0.988   6.221
 4038WAT     OW12112   4.829   6.232   5.089
 4038WAT    HW112113   4.822   6.304   5.026
 4038WAT    HW212114   4.801   6.155   5.040
 4039WAT     OW12115   2.659   4.129   1.104
 4039WAT    HW112116   2.594   4.195   1.081
 4039WAT    HW212117   2.617   4.046   1.085
 4040WAT     OW12118   0.678   0.452   2.198
 4040WAT    HW112119   0.598   0.505   2.197
 4040WAT    HW212120   0.664   0.389   2.268
 4041WAT     OW12121   4.868   5.998   1.655
 4041WAT    HW112122   4.829   5.929   1.601
 4041WAT    HW212123   4.960   5.972   1.664
 4042WAT     OW12124   6.239   6.101   4.489
 4042WAT    HW112125   6.198   6.116   4.404
 4042WAT    HW212126   6.325   6.142   4.482
 4043WAT     OW12127   3.131   5.635   1.544
 4043WAT    HW112128   3.181   5.706   1.503
 4043WAT    HW212129   3.065   5.679   1.597
 4044WAT     OW12130   2.469   3.634   1.147
 4044WAT    HW112131   2.378   3.619   1.121
 4044WAT    HW212132   2.515   3.554   1.123
 4045WAT     OW12133   2.843   2.927   6.075
 4045WAT    HW112134   2.763   2.941   6.124
 4045WAT    HW212135   2.830   2.843   6.031
 4046WAT     OW12136   6.506   0.478   5.046
 4046WAT    HW112137   6.542   0.429   5.119
 4046WAT    HW212138   6.538   0.433   4.968
 4047WAT     OW12139   1.928   1.653   2.473
 4047WAT    HW112140   1.937   1.657   2.568
 4047WAT    HW212141   1.909   1.561   2.455
 4048WAT     OW12142   5.896   0.711   1.333
 4048WAT    HW112143   5.925   0.716   1.242
 4048WAT    HW212144   5.949   0.641   1.371
 4049WAT     OW12145   1.343   3.846   6.712
 4049WAT    HW112146   1.354   3.828   6.618
 4049WAT    HW212147   1.395   3.778   6.755
 4050WAT     OW12148   1.718   6.412   4.168
 4050WAT    HW112149   1.729   6.334   4.114
 4050WAT    HW212150   1.677   6.380   4.248
 4051WAT     OW12151   3.026   5.545   5.613
 4051WAT    HW112152   2.999   5.457   5.639
 4051WAT    HW212153   2.971   5.565   5.537
 4052WAT     OW12154   6.700   5.437   5.673
 4052WAT    HW112155   6.626   5.397   5.719
 4052WAT    HW212156   6.669   5.526   5.652
 4053WAT     OW12157   6.537   6.358   6.072
 4053WAT    HW112158   6.460   6.310   6.102
 4053WAT    HW212159   6.502   6.441   6.040
 4054WAT     OW12160   1.763   4.931   6.455
 4054WAT    HW112161   1.671   4.910   6.437
 4054WAT    HW212162   1.789   4.869   6.523
 4055WAT     OW12163   5.293   2.276   4.183
 4055WAT    HW112164   5.250   2.360   4.202
 4055WAT    HW212165   5.350   2.295   4.109
 4056WAT     OW12166   2.543   2.428   1.960
 4056WAT    HW112167   2.563   2.517   1.932
 4056WAT    HW212168   2.459   2.408   1.919
 4057WAT     OW12169   1.726   0.419   1.377
 4057WAT    HW112170   1.820   0.402   1.368
 4057WAT    HW212171   1.716   0.511   1.353
 4058WAT     OW12172   5.869   1.912   3.593
 4058WAT    HW112173   5.915   1.964   3.527
 4058WAT    HW212174   5.779   1.907   3.561
 4059WAT     OW12175   2.983   3.351   1.475
 4059WAT    HW112176   2.969   3.282   1.539
 4059WAT    HW212177   2.987   3.305   1.391
 4060WAT     OW12178   3.529   6.454   5.265
 4060WAT    HW112179   3.585   6.384   5.231
 4060WAT    HW212180   3.588   6.528   5.279
 4061WAT     OW12181   1.746   0.585   5.959
 4061WAT    HW112182   1.775   0.654   5.900
 4061WAT    HW212183   1.779   0.504   5.919
 4062WAT     OW12184   2.185   0.500   0.019
 4062WAT    HW112185   2.126   0.566  -0.018
 4062WAT    HW212186   2.209   0.445  -0.055
 4063WAT     OW12187   6.002   1.545   1.875
 4063WAT    HW112188   6.054   1.513   1.801
 4063WAT    HW212189   5.981   1.467   1.925
 4064WAT     OW12190   2.477   1.356   3.041
 4064WAT    HW112191   2.553   1.404   3.008
 4064WAT    HW212192   2.507   1.314   3.121
 4065WAT     OW12193   6.345   1.809   3.430
 4065WAT    HW112194   6.351   1.743   3.362
 4065WAT    HW212195   6.312   1.887   3.385
 4066WAT     OW12196   3.198   5.177   3.204
 4066WAT    HW112197   3.182   5.157   3.111
 4066WAT    HW212198   3.166   5.100   3.250
 4067WAT     OW12199   0.508   1.794   5.688
 4067WAT    HW112200   0.525   1.856   5.618
 4067WAT    HW212201   0.583   1.803   5.747
 4068WAT     OW12202   3.076   3.725   0.271
 4068WAT    HW112203   3.140   3.662   0.304
 4068WAT    HW212204   3.127   3.803   0.249
 4069WAT     OW12205   0.829   4.592   3.900
 4069WAT    HW112206   0.879   4.644   3.963
 4069WAT    HW212207   0.765   4.544   3.954
 4070WAT     OW12208   3.217   3.356   4.911
 4070WAT    HW112209   3.155   3.426   4.888
 4070WAT    HW212210   3.270   3.345   4.832
 4071WAT     OW12211   0.751   5.018   1.413
 4071WAT    HW112212   0.712   5.090   1.463
 4071WAT    HW212213   0.822   4.986   1.470
 4072WAT     OW12214   0.708   4.590   5.160
 4072WAT    HW112215   0.757   4.540   5.095
 4072WAT    HW212216   0.770   4.601   5.233
 4073WAT     OW12217   2.571   1.244   3.286
 4073WAT    HW112218   2.640   1.252   3.352
 4073WAT    HW212219   2.494   1.282   3.328
 4074WAT     OW12220   6.328   4.468   1.232
 4074WAT    HW112221   6.303   4.553   1.267
 4074WAT    HW212222   6.371   4.424   1.305
 4075WAT     OW12223   3.352   3.091   3.152
 4075WAT    HW112224   3.295   3.080   3.076
 4075WAT    HW212225   3.390   3.178   3.141
 4076WAT     OW12226   0.067   3.477   4.292
 4076WAT    HW112227   0.060   3.566   4.326
 4076WAT    HW212228   0.062   3.487   4.197
 4077WAT     OW12229   2.325   3.183   6.305
 4077WAT    HW112230   2.314   3.093   6.338
 4077WAT    HW212231   2.278   3.183   6.221
 4078WAT     OW12232   2.829   1.124   0.237
 4078WAT    HW112233   2.903   1.139   0.295
 4078WAT    HW212234   2.852   1.170   0.157
 4079WAT     OW12235   0.704   3.023   2.159
 4079WAT    HW112236   0.624   3.010   2.109
 4079WAT    HW212237   0.756   2.944   2.144
 4080WAT     OW12238   4.720   0.033   2.169
 4080WAT    HW112239   4.663   0.100   2.131
 4080WAT    HW212240   4.671  -0.000   2.244
 4081WAT     OW12241   4.464   4.116   2.215
 4081WAT    HW112242   4.445   4.026   2.188
 4081WAT    HW212243   4.512   4.107   2.297
 4082WAT     OW12244   0.723   2.407   5.700
 4082WAT    HW112245   0.716   2.444   5.789
 4082WAT    HW212246   0.657   2.338   5.698
 4083WAT     OW12247   5.906   2.968   0.337
 4083WAT    HW112248   5.866   2.882   0.347
 4083WAT    HW212249   5.850   3.027   0.387
 4084WAT     OW12250   6.706   6.022   2.247
 4084WAT    HW112251   6.676   5.999   2.335
 4084WAT    HW212252   6.699   6.118   2.243
 4085WAT     OW12253   6.128   1.512   2.286
 4085WAT    HW112254   6.042   1.471   2.278
 4085WAT    HW212255   6.117   1.580   2.352
 4086WAT     OW12256   0.307   3.706   0.416
 4086WAT    HW112257   0.376   3.736   0.356
 4086WAT    HW212258   0.313   3.765   0.491
 4087WAT     OW12259   1.944   1.747   6.101
 4087WAT    HW112260   1.941   1.693   6.022
 4087WAT    HW212261   1.907   1.691   6.170
 4088WAT     OW12262   0.156   4.667   3.973
 4088WAT    HW112263   0.155   4.572   3.969
 4088WAT    HW212264   0.085   4.694   3.915
 4089WAT     OW12265   4.999   3.694   5.416
 4089WAT    HW112266   5.086   3.667   5.445
 4089WAT    HW212267   4.965   3.745   5.490
 4090WAT     OW12268   5.456   2.020   5.344
 4090WAT    HW112269   5.413   2.100   5.372
 4090WAT    HW212270   5.390   1.952   5.353
 4091WAT     OW12271   1.177   6.455   1.792
 4091WAT    HW112272   1.093   6.412   1.811
 4091WAT    HW212273   1.234   6.430   1.864
 4092WAT     OW12274   0.446   6.273   5.181
 4092WAT    HW112275   0.531   6.241   5.152
 4092WAT    HW212276   0.392   6.194   5.187
 4093WAT     OW12277   1.628   3.757   1.910
 4093WAT    HW112278   1.590   3.791   1.991
 4093WAT    HW212279   1.573   3.682   1.887
 4094WAT     OW12280   1.524   2.898   2.717
 4094WAT    HW112281   1.611   2.899   2.678
 4094WAT    HW212282   1.495   2.990   2.716
 4095WAT     OW12283   3.988   5.103   1.005
 4095WAT    HW112284   3.924   5.040   0.971
 4095WAT    HW212285   3.937   5.183   1.020
 4096WAT     OW12286   4.028   5.138   3.496
 4096WAT    HW112287   4.076   5.203   3.444
 4096WAT    HW212288   4.067   5.054   3.472
 4097WAT     OW12289   0.800   6.348   6.478
 4097WAT    HW112290   0.876   6.363   6.421
 4097WAT    HW212291   0.758   6.434   6.483
 4098WAT     OW12292   3.745   1.355   0.008
 4098WAT    HW112293   3.789   1.412  -0.055
 4098WAT    HW212294   3.652   1.379   0.002
 4099WAT     OW12295   2.342   6.673   2.035
 4099WAT    HW112296   2.249   6.669   2.056
 4099WAT    HW212297   2.384   6.620   2.103
 4100WAT     OW12298   1.987   5.681   1.288
 4100WAT    HW112299   1.908   5.663   1.238
 4100WAT    HW212300   2.044   5.727   1.226
 4101WAT     OW12301   5.398   6.310   3.966
 4101WAT    HW112302   5.358   6.223   3.959
 4101WAT    HW212303   5.407   6.324   4.060
 4102WAT     OW12304   5.458   3.403   0.477
 4102WAT    HW112305   5.545   3.430   0.506
 4102WAT    HW212306   5.400   3.473   0.507
 4103WAT     OW12307   0.218   5.624   0.073
 4103WAT    HW112308   0.239   5.533   0.090
 4103WAT    HW212309   0.282   5.674   0.125
 4104WAT     OW12310   6.705   4.727   3.773
 4104WAT    HW112311   6.675   4.678   3.697
 4104WAT    HW212312   6.768   4.789   3.739
 4105WAT     OW12313   6.684   1.792   2.941
 4105WAT    HW112314   6.751   1.809   2.875
 4105WAT    HW212315   6.688   1.868   2.999
 4106WAT     OW12316   6.127   2.547   3.826
 4106WAT    HW112317   6.171   2.597   3.757
 4106WAT    HW212318   6.046   2.516   3.785
 4107WAT     OW12319   0.585   1.843   6.625
 4107WAT    HW112320   0.647   1.848   6.698
 4107WAT    HW212321   0.606   1.761   6.581
 4108WAT     OW12322   1.691   3.608   0.232
 4108WAT    HW112323   1.601   3.618   0.202
 4108WAT    HW212324   1.733   3.691   0.208
 4109WAT     OW12325   2.260   3.199   5.364
 4109WAT    HW112326   2.341   3.172   5.408
 4109WAT    HW212327   2.190   3.167   5.421
 4110WAT     OW12328   4.649   1.406   3.925
 4110WAT    HW112329   4.698   1.455   3.991
 4110WAT    HW212330   4.637   1.468   3.853
 4111WAT     OW12331   0.292   5.127   1.967
 4111WAT    HW112332   0.305   5.214   1.929
 4111WAT    HW212333   0.216   5.092   1.921
 4112WAT     OW12334   0.410   2.092   3.976
 4112WAT    HW112335   0.465   2.084   3.898
 4112WAT    HW212336   0.321   2.075   3.943
 4113WAT     OW12337   6.092   6.715   2.398
 4113WAT    HW112338   6.177   6.716   2.354
 4113WAT    HW212339   6.036   6.660   2.342
 4114WAT     OW12340   0.275   5.361   0.119
 4114WAT    HW112341   0.233   5.283   0.085
 4114WAT    HW212342   0.367   5.352   0.096
 4115WAT     OW12343   6.343   4.214   3.548
 4115WAT    HW112344   6.286   4.206   3.472
 4115WAT    HW212345   6.284   4.221   3.622
 4116WAT     OW12346   3.009   4.745   3.928
 4116WAT    HW112347   3.051   4.758   4.013
 4116WAT    HW212348   3.013   4.650   3.914
 4117WAT     OW12349   3.742   6.363   3.731
 4117WAT    HW112350   3.701   6.329   3.651
 4117WAT    HW212351   3.752   6.286   3.787
 4118WAT     OW12352   3.555   3.625   1.061
 4118WAT    HW112353   3.591   3.628   1.150
 4118WAT    HW212354   3.475   3.574   1.069
 4119WAT     OW12355   2.724   5.860   4.087
 4119WAT    HW112356   2.797   5.874   4.148
 4119WAT    HW212357   2.761   5.876   4.001
 4120WAT     OW12358   6.596   3.543   5.840
 4120WAT    HW112359   6.592   3.544   5.936
 4120WAT    HW212360   6.626   3.631   5.817
 4121WAT     OW12361   3.049   0.611   3.126
 4121WAT    HW112362   3.120   0.579   3.182
 4121WAT    HW212363   2.974   0.556   3.149
 4122WAT     OW12364   5.858   1.943   6.645
 4122WAT    HW112365   5.840   2.008   6.713
 4122WAT    HW212366   5.910   1.876   6.690
 4123WAT     OW12367   6.650   2.262   2.269
 4123WAT    HW112368   6.694   2.206   2.333
 4123WAT    HW212369   6.668   2.351   2.299
 4124WAT     OW12370   0.728   1.002   6.058
 4124WAT    HW112371   0.723   0.948   5.979
 4124WAT    HW212372   0.701   1.089   6.029
 4125WAT     OW12373   1.321   3.126   6.119
 4125WAT    HW112374   1.297   3.034   6.105
 4125WAT    HW212375   1.408   3.123   6.157
 4126WAT     OW12376   4.760   2.745   2.668
 4126WAT    HW112377   4.715   2.661   2.656
 4126WAT    HW212378   4.786   2.771   2.579
 4127WAT     OW12379   6.166   3.019   0.417
 4127WAT    HW112380   6.176   3.107   0.381
 4127WAT    HW212381   6.077   2.993   0.393
 4128WAT     OW12382   3.228   5.961   6.569
 4128WAT    HW112383   3.243   6.045   6.612
 4128WAT    HW212384   3.288   5.900   6.612
 4129WAT     OW12385   1.004   0.736   4.348
 4129WAT    HW112386   1.001   0.789   4.268
 4129WAT    HW212387   0.971   0.794   4.417
 4130WAT     OW12388   6.348   6.600   3.615
 4130WAT    HW112389   6.342   6.506   3.633
 4130WAT    HW212390   6.268   6.619   3.566
 4131WAT     OW12391   2.248   4.488   5.962
 4131WAT    HW112392   2.322   4.436   5.992
 4131WAT    HW212393   2.261   4.497   5.867
 4132WAT     OW12394   6.538   6.495   6.497
 4132WAT    HW112395   6.454   6.449   6.496
 4132WAT    HW212396   6.572   6.480   6.585
 4133WAT     OW12397   0.294   2.822   4.693
 4133WAT    HW112398   0.225   2.847   4.631
 4133WAT    HW212399   0.276   2.874   4.771
 4134WAT     OW12400   4.292   4.994   2.132
 4134WAT    HW112401   4.372   4.984   2.184
 4134WAT    HW212402   4.227   4.939   2.176
 4135WAT     OW12403   1.876   6.021   6.713
 4135WAT    HW112404   1.883   5.929   6.741
 4135WAT    HW212405   1.866   6.070   6.794
 4136WAT     OW12406   1.542   3.025   5.388
 4136WAT    HW112407   1.577   3.108   5.357
 4136WAT    HW212408   1.448   3.043   5.402
 4137WAT     OW12409   0.466   4.376   6.336
 4137WAT    HW112410   0.558   4.354   6.321
 4137WAT    HW212411   0.469   4.462   6.380
 4138WAT     OW12412   6.050   1.932   2.953
 4138WAT    HW112413   6.029   1.993   2.882
 4138WAT    HW212414   6.122   1.879   2.919
 4139WAT     OW12415   5.404   0.059   0.710
 4139WAT    HW112416   5.357  -0.023   0.724
 4139WAT    HW212417   5.446   0.049   0.625
 4140WAT     OW12418   4.431   6.362   3.562
 4140WAT    HW112419   4.468   6.442   3.525
 4140WAT    HW212420   4.375   6.393   3.633
 4141WAT     OW12421   1.838   5.028   0.125
 4141WAT    HW112422   1.815   4.963   0.192
 4141WAT    HW212423   1.907   4.985   0.074
 4142WAT     OW12424   3.996   0.646   1.538
 4142WAT    HW112425   4.031   0.621   1.624
 4142WAT    HW212426   3.913   0.599   1.533
 4143WAT     OW12427   2.520   1.174   6.321
 4143WAT    HW112428   2.510   1.226   6.400
 4143WAT    HW212429   2.582   1.105   6.345
 4144WAT     OW12430   2.998   5.432   3.796
 4144WAT    HW112431   3.003   5.492   3.870
 4144WAT    HW212432   3.052   5.357   3.823
 4145WAT     OW12433   0.909   3.822   4.791
 4145WAT    HW112434   0.956   3.830   4.874
 4145WAT    HW212435   0.849   3.897   4.790
 4146WAT     OW12436   1.778   1.325   6.416
 4146WAT    HW112437   1.702   1.267   6.413
 4146WAT    HW212438   1.774   1.365   6.503
 4147WAT     OW12439   0.110   1.225   3.505
 4147WAT    HW112440   0.197   1.256   3.533
 4147WAT    HW212441   0.116   1.130   3.509
 4148WAT     OW12442   5.420   6.057   5.970
 4148WAT    HW112443   5.338   6.032   5.927
 4148WAT    HW212444   5.488   6.030   5.908
 4149WAT     OW12445   2.581   2.660   1.816
 4149WAT    HW112446   2.627   2.597   1.760
 4149WAT    HW212447   2.620   2.744   1.794
 4150WAT     OW12448   5.530   0.143   1.119
 4150WAT    HW112449   5.575   0.099   1.047
 4150WAT    HW212450   5.574   0.111   1.197
 4151WAT     OW12451   3.583   6.019   4.662
 4151WAT    HW112452   3.674   6.020   4.691
 4151WAT    HW212453   3.532   6.005   4.742
 4152WAT     OW12454   4.526   5.291   1.275
 4152WAT    HW112455   4.579   5.261   1.349
 4152WAT    HW212456   4.464   5.354   1.314
 4153WAT     OW12457   4.729   4.669   6.690
 4153WAT    HW112458   4.654   4.711   6.646
 4153WAT    HW212459   4.805   4.720   6.662
 4154WAT     OW12460   3.046   5.509   3.070
 4154WAT    HW112461   3.047   5.537   3.162
 4154WAT    HW212462   3.138   5.510   3.043
 4155WAT     OW12463   3.688   4.514   0.145
 4155WAT    HW112464   3.636   4.481   0.218
 4155WAT    HW212465   3.641   4.593   0.116
 4156WAT     OW12466   5.196   5.529   3.660
 4156WAT    HW112467   5.138   5.484   3.721
 4156WAT    HW212468   5.275   5.475   3.656
 4157WAT     OW12469   5.335   5.382   2.299
 4157WAT    HW112470   5.274   5.433   2.247
 4157WAT    HW212471   5.282   5.313   2.339
 4158WAT     OW12472   1.975   3.330   4.040
 4158WAT    HW112473   2.065   3.336   4.009
 4158WAT    HW212474   1.962   3.408   4.093
 4159WAT     OW12475   0.109   1.336   5.120
 4159WAT    HW112476   0.127   1.310   5.030
 4159WAT    HW212477   0.054   1.265   5.154
 4160WAT     OW12478   4.790   4.712   6.138
 4160WAT    HW112479   4.761   4.674   6.221
 4160WAT    HW212480   4.742   4.663   6.071
 4161WAT     OW12481   4.781   4.633   5.700
 4161WAT    HW112482   4.750   4.695   5.635
 4161WAT    HW212483   4.837   4.684   5.758
 4162WAT     OW12484   5.628   1.468   1.389
 4162WAT    HW112485   5.606   1.376   1.406
 4162WAT    HW212486   5.714   1.465   1.348
 4163WAT     OW12487   5.757   3.228   4.355
 4163WAT    HW112488   5.743   3.305   4.410
 4163WAT    HW212489   5.758   3.155   4.416
 4164WAT     OW12490   6.213   5.474   1.547
 4164WAT    HW112491   6.145   5.535   1.575
 4164WAT    HW212492   6.279   5.529   1.506
 4165WAT     OW12493   0.406   0.589   4.438
 4165WAT    HW112494   0.413   0.495   4.418
 4165WAT    HW212495   0.368   0.628   4.359
 4166WAT     OW12496   0.225   4.200   3.323
 4166WAT    HW112497   0.274   4.233   3.248
 4166WAT    HW212498   0.222   4.274   3.384
 4167WAT     OW12499   4.985   0.961   4.461
 4167WAT    HW112500   5.027   1.032   4.509
 4167WAT    HW212501   4.899   0.996   4.438
 4168WAT     OW12502   1.299   5.740   4.232
 4168WAT    HW112503   1.238   5.813   4.241
 4168WAT    HW212504   1.285   5.687   4.311
 4169WAT     OW12505   0.067   1.422   2.463
 4169WAT    HW112506   0.037   1.340   2.503
 4169WAT    HW212507   0.003   1.487   2.491
 4170WAT     OW12508   1.275   3.083   5.410
 4170WAT    HW112509   1.223   3.158   5.382
 4170WAT    HW212510   1.252   3.014   5.348
 4171WAT     OW12511   4.102   5.833   3.979
 4171WAT    HW112512   4.196   5.850   3.988
 4171WAT    HW212513   4.096   5.755   3.924
 4172WAT     OW12514   5.446   0.406   0.350
 4172WAT    HW112515   5.516   0.366   0.403
 4172WAT    HW212516   5.414   0.478   0.404
 4173WAT     OW12517   5.673   3.965   4.609
 4173WAT    HW112518   5.593   4.016   4.626
 4173WAT    HW212519   5.675   3.955   4.514
 4174WAT     OW12520   4.542   2.057   5.872
 4174WAT    HW112521   4.481   2.005   5.819
 4174WAT    HW212522   4.492   2.136   5.895
 4175WAT     OW12523   5.133   4.517   5.340
 4175WAT    HW112524   5.118   4.602   5.382
 4175WAT    HW212525   5.114   4.453   5.408
 4176WAT     OW12526   4.554   3.770   3.729
 4176WAT    HW112527   4.644   3.750   3.752
 4176WAT    HW212528   4.503   3.696   3.763
 4177WAT     OW12529   2.037   2.523   5.027
 4177WAT    HW112530   2.012   2.476   4.947
 4177WAT    HW212531   2.030   2.458   5.096
 4178WAT     OW12532   0.565   5.909   2.325
 4178WAT    HW112533   0.612   5.844   2.377
 4178WAT    HW212534   0.534   5.860   2.248
 4179WAT     OW12535   1.045   0.882   2.493
 4179WAT    HW112536   1.036   0.915   2.404
 4179WAT    HW212537   1.093   0.800   2.484
 4180WAT     OW12538   5.993   0.063   6.641
 4180WAT    HW112539   5.971   0.016   6.561
 4180WAT    HW212540   5.926   0.037   6.704
 4181WAT     OW12541   3.866   6.575   6.470
 4181WAT    HW112542   3.924   6.536   6.405
 4181WAT    HW212543   3.882   6.524   6.549
 4182WAT     OW12544   2.444   6.344   1.219
 4182WAT    HW112545   2.350   6.341   1.235
 4182WAT    HW212546   2.470   6.252   1.213
 4183WAT     OW12547   1.603   6.483   2.102
 4183WAT    HW112548   1.650   6.411   2.145
 4183WAT    HW212549   1.591   6.548   2.171
 4184WAT     OW12550   1.466   2.748   5.693
 4184WAT    HW112551   1.429   2.716   5.610
 4184WAT    HW212552   1.533   2.811   5.667
 4185WAT     OW12553   0.148   2.518   1.504
 4185WAT    HW112554   0.177   2.605   1.474
 4185WAT    HW212555   0.052   2.521   1.495
 4186WAT     OW12556   3.668   0.192   5.830
 4186WAT    HW112557   3.603   0.153   5.888
 4186WAT    HW212558   3.737   0.223   5.889
 4187WAT     OW12559   3.812   4.243   6.471
 4187WAT    HW112560   3.816   4.257   6.566
 4187WAT    HW212561   3.878   4.303   6.436
 4188WAT     OW12562   2.375   2.769   5.056
 4188WAT    HW112563   2.413   2.854   5.033
 4188WAT    HW212564   2.451   2.710   5.062
 4189WAT     OW12565   5.951   2.909   3.084
 4189WAT    HW112566   6.026   2.910   3.143
 4189WAT    HW212567   5.990   2.914   2.996
 4190WAT     OW12568   0.182   0.619   1.710
 4190WAT    HW112569   0.152   0.710   1.705
 4190WAT    HW212570   0.162   0.592   1.800
 4191WAT     OW12571   1.977   4.508   6.043
 4191WAT    HW112572   1.932   4.464   5.971
 4191WAT    HW212573   2.070   4.496   6.024
 4192WAT     OW12574   2.028   2.937   3.435
 4192WAT    HW112575   2.082   2.860   3.454
 4192WAT    HW212576   1.954   2.930   3.495
 4193WAT     OW12577   1.838   3.882   3.547
 4193WAT    HW112578   1.807   3.793   3.532
 4193WAT    HW212579   1.931   3.872   3.567
 4194WAT     OW12580   5.439   3.029   3.395
 4194WAT    HW112581   5.368   3.073   3.348
 4194WAT    HW212582   5.416   2.936   3.392
 4195WAT     OW12583   6.611   2.415   0.445
 4195WAT    HW112584   6.696   2.455   0.466
 4195WAT    HW212585   6.547   2.482   0.468
 4196WAT     OW12586   2.295   3.738   3.009
 4196WAT    HW112587   2.348   3.694   3.076
 4196WAT    HW212588   2.206   3.705   3.023
 4197WAT     OW12589   1.733   5.043   2.328
 4197WAT    HW112590   1.639   5.057   2.338
 4197WAT    HW212591   1.771   5.131   2.328
 4198WAT     OW12592   5.892   1.228   6.051
 4198WAT    HW112593   5.800   1.255   6.051
 4198WAT    HW212594   5.890   1.133   6.052
 4199WAT     OW12595   5.126   1.287   0.589
 4199WAT    HW112596   5.110   1.351   0.658
 4199WAT    HW212597   5.199   1.322   0.540
 4200WAT     OW12598   4.974   1.691   3.802
 4200WAT    HW112599   4.908   1.728   3.859
 4200WAT    HW212600   4.931   1.682   3.717
 4201WAT     OW12601   3.812   5.474   5.566
 4201WAT    HW112602   3.902   5.503   5.551
 4201WAT    HW212603   3.810   5.449   5.658
 4202WAT     OW12604   5.694   4.483   3.066
 4202WAT    HW112605   5.626   4.550   3.074
 4202WAT    HW212606   5.652   4.411   3.019
 4203WAT     OW12607   0.741   1.801   5.829
 4203WAT    HW112608   0.780   1.886   5.847
 4203WAT    HW212609   0.804   1.757   5.772
 4204WAT     OW12610   0.134   2.810   2.516
 4204WAT    HW112611   0.225   2.816   2.489
 4204WAT    HW212612   0.123   2.720   2.545
 4205WAT     OW12613   1.286   1.185   1.509
 4205WAT    HW112614   1.289   1.273   1.547
 4205WAT    HW212615   1.378   1.161   1.497
 4206WAT     OW12616   2.692   2.454   3.499
 4206WAT    HW112617   2.658   2.365   3.513
 4206WAT    HW212618   2.757   2.443   3.430
 4207WAT     OW12619   5.641   4.575   1.531
 4207WAT    HW112620   5.690   4.587   1.612
 4207WAT    HW212621   5.577   4.507   1.552
 4208WAT     OW12622   0.954   1.482   1.321
 4208WAT    HW112623   0.939   1.388   1.313
 4208WAT    HW212624   1.031   1.499   1.268
 4209WAT     OW12625   0.204   0.025   6.463
 4209WAT    HW112626   0.175   0.113   6.486
 4209WAT    HW212627   0.124  -0.020   6.437
 4210WAT     OW12628   4.695   0.499   0.697
 4210WAT    HW112629   4.697   0.457   0.611
 4210WAT    HW212630   4.760   0.569   0.691
 4211WAT     OW12631   5.426   4.830   1.279
 4211WAT    HW112632   5.506   4.780   1.289
 4211WAT    HW212633   5.386   4.797   1.198
 4212WAT     OW12634   5.418   4.472   4.743
 4212WAT    HW112635   5.482   4.430   4.686
 4212WAT    HW212636   5.466   4.544   4.784
 4213WAT     OW12637   5.528   1.564   3.645
 4213WAT    HW112638   5.566   1.618   3.713
 4213WAT    HW212639   5.446   1.609   3.621
 4214WAT     OW12640   5.915   3.484   6.112
 4214WAT    HW112641   5.846   3.466   6.049
 4214WAT    HW212642   5.873   3.540   6.178
 4215WAT     OW12643   4.271   2.129   2.745
 4215WAT    HW112644   4.247   2.144   2.654
 4215WAT    HW212645   4.273   2.034   2.755
 4216WAT     OW12646   4.521   2.614   3.411
 4216WAT    HW112647   4.612   2.619   3.441
 4216WAT    HW212648   4.527   2.579   3.322
 4217WAT     OW12649   1.990   5.540   6.615
 4217WAT    HW112650   2.046   5.467   6.642
 4217WAT    HW212651   2.050   5.612   6.598
 4218WAT     OW12652   2.865   3.097   3.777
 4218WAT    HW112653   2.830   3.117   3.864
 4218WAT    HW212654   2.803   3.033   3.740
 4219WAT     OW12655   3.847   6.498   1.712
 4219WAT    HW112656   3.826   6.430   1.647
 4219WAT    HW212657   3.816   6.579   1.672
 4220WAT     OW12658   1.456   3.868   4.853
 4220WAT    HW112659   1.480   3.960   4.856
 4220WAT    HW212660   1.533   3.824   4.816
 4221WAT     OW12661   5.674   0.606   4.474
 4221WAT    HW112662   5.692   0.700   4.469
 4221WAT    HW212663   5.751   0.570   4.519
 4222WAT     OW12664   3.457   4.120   1.816
 4222WAT    HW112665   3.413   4.177   1.881
 4222WAT    HW212666   3.431   4.032   1.841
 4223WAT     OW12667   1.710   5.308   4.772
 4223WAT    HW112668   1.754   5.300   4.857
 4223WAT    HW212669   1.769   5.363   4.720
 4224WAT     OW12670   4.244   4.555   1.803
 4224WAT    HW112671   4.316   4.598   1.849
 4224WAT    HW212672   4.165   4.593   1.841
 4225WAT     OW12673   4.194   3.617   4.911
 4225WAT    HW112674   4.204   3.641   5.004
 4225WAT    HW212675   4.213   3.698   4.864
 4226WAT     OW12676   6.044   3.953   6.432
 4226WAT    HW112677   5.990   3.963   6.354
 4226WAT    HW212678   6.079   4.041   6.449
 4227WAT     OW12679   2.196   6.146   5.884
 4227WAT    HW112680   2.180   6.230   5.841
 4227WAT    HW212681   2.215   6.170   5.975
 4228WAT     OW12682   5.059   2.362   1.592
 4228WAT    HW112683   5.075   2.414   1.513
 4228WAT    HW212684   5.118   2.401   1.657
 4229WAT     OW12685   2.652   0.335   4.288
 4229WAT    HW112686   2.661   0.243   4.263
 4229WAT    HW212687   2.637   0.381   4.205
 4230WAT     OW12688   3.004   5.288   4.118
 4230WAT    HW112689   3.041   5.254   4.036
 4230WAT    HW212690   3.080   5.293   4.177
 4231WAT     OW12691   5.634   6.518   0.885
 4231WAT    HW112692   5.630   6.613   0.894
 4231WAT    HW212693   5.720   6.502   0.847
 4232WAT     OW12694   5.575   4.553   3.382
 4232WAT    HW112695   5.535   4.488   3.325
 4232WAT    HW212696   5.501   4.599   3.422
 4233WAT     OW12697   4.576   0.984   3.321
 4233WAT    HW112698   4.644   0.965   3.385
 4233WAT    HW212699   4.623   1.001   3.239
 4234WAT     OW12700   0.246   0.512   4.036
 4234WAT    HW112701   0.299   0.433   4.021
 4234WAT    HW212702   0.158   0.478   4.052
 4235WAT     OW12703   6.032   4.540   0.069
 4235WAT    HW112704   5.952   4.561   0.022
 4235WAT    HW212705   6.003   4.495   0.149
 4236WAT     OW12706   6.529   6.455   1.888
 4236WAT    HW112707   6.521   6.415   1.801
 4236WAT    HW212708   6.616   6.496   1.888
 4237WAT     OW12709   5.293   2.974   1.505
 4237WAT    HW112710   5.371   3.026   1.520
 4237WAT    HW212711   5.234   3.032   1.456
 4238WAT     OW12712   3.049   1.213   6.444
 4238WAT    HW112713   3.027   1.131   6.401
 4238WAT    HW212714   2.965   1.257   6.457
 4239WAT     OW12715   0.695   5.876   5.756
 4239WAT    HW112716   0.686   5.805   5.693
 4239WAT    HW212717   0.784   5.909   5.742
 4240WAT     OW12718   5.709   2.979   1.618
 4240WAT    HW112719   5.716   2.897   1.568
 4240WAT    HW212720   5.637   3.027   1.576
 4241WAT     OW12721   5.907   1.266   0.621
 4241WAT    HW112722   5.954   1.205   0.679
 4241WAT    HW212723   5.965   1.342   0.617
 4242WAT     OW12724   0.811   0.848   1.224
 4242WAT    HW112725   0.813   0.768   1.171
 4242WAT    HW212726   0.863   0.826   1.301
 4243WAT     OW12727   5.161   4.229   3.789
 4243WAT    HW112728   5.107   4.174   3.845
 4243WAT    HW212729   5.100   4.294   3.753
 4244WAT     OW12730   3.777   4.576   2.332
 4244WAT    HW112731   3.839   4.503   2.338
 4244WAT    HW212732   3.697   4.544   2.374
 4245WAT     OW12733   3.665   2.506   2.151
 4245WAT    HW112734   3.571   2.495   2.135
 4245WAT    HW212735   3.673   2.507   2.247
 4246WAT     OW12736   0.453   6.162   2.910
 4246WAT    HW112737   0.408   6.214   2.844
 4246WAT    HW212738   0.479   6.082   2.864
 4247WAT     OW12739   1.681   4.383   1.279
 4247WAT    HW112740   1.655   4.379   1.371
 4247WAT    HW212741   1.611   4.338   1.232
 4248WAT     OW12742   1.410   4.063   6.105
 4248WAT    HW112743   1.473   4.053   6.176
 4248WAT    HW212744   1.454   4.026   6.028
 4249WAT     OW12745   2.302   3.343   1.470
 4249WAT    HW112746   2.335   3.310   1.387
 4249WAT    HW212747   2.227   3.397   1.446
 4250WAT     OW12748   0.296   1.258   2.423
 4250WAT    HW112749   0.262   1.179   2.465
 4250WAT    HW212750   0.229   1.325   2.440
 4251WAT     OW12751   5.072   4.335   5.537
 4251WAT    HW112752   5.082   4.246   5.503
 4251WAT    HW212753   4.978   4.346   5.549
 4252WAT     OW12754   3.707   6.653   0.521
 4252WAT    HW112755   3.709   6.721   0.453
 4252WAT    HW212756   3.755   6.691   0.595
 4253WAT     OW12757   4.424   6.165   6.704
 4253WAT    HW112758   4.433   6.222   6.780
 4253WAT    HW212759   4.513   6.142   6.680
 4254WAT     OW12760   3.743   0.978   5.940
 4254WAT    HW112761   3.708   0.891   5.960
 4254WAT    HW212762   3.838   0.967   5.942
 4255WAT     OW12763   0.998   1.210   4.819
 4255WAT    HW112764   0.973   1.197   4.728
 4255WAT    HW212765   1.012   1.121   4.853
 4256WAT     OW12766   3.790   2.136   2.386
 4256WAT    HW112767   3.858   2.070   2.398
 4256WAT    HW212768   3.807   2.172   2.299
 4257WAT     OW12769   1.402   1.215   1.940
 4257WAT    HW112770   1.315   1.178   1.927
 4257WAT    HW212771   1.453   1.184   1.866
 4258WAT     OW12772   2.317   2.385   1.791
 4258WAT    HW112773   2.387   2.329   1.757
 4258WAT    HW212774   2.280   2.428   1.714
 4259WAT     OW12775   2.594   4.497   2.946
 4259WAT    HW112776   2.624   4.491   3.037
 4259WAT    HW212777   2.508   4.455   2.946
 4260WAT     OW12778   1.427   5.688   6.721
 4260WAT    HW112779   1.346   5.685   6.671
 4260WAT    HW212780   1.464   5.600   6.712
 4261WAT     OW12781   5.507   5.409   5.996
 4261WAT    HW112782   5.465   5.334   5.954
 4261WAT    HW212783   5.529   5.379   6.084
 4262WAT     OW12784   6.087   3.983   5.277
 4262WAT    HW112785   6.170   3.987   5.326
 4262WAT    HW212786   6.109   3.938   5.196
 4263WAT     OW12787   4.052   3.978   4.075
 4263WAT    HW112788   4.015   3.936   4.153
 4263WAT    HW212789   4.073   4.067   4.103
 4264WAT     OW12790   0.783   6.038   3.032
 4264WAT    HW112791   0.718   6.056   3.100
 4264WAT    HW212792   0.829   6.121   3.022
 4265WAT     OW12793   2.223   5.027   2.717
 4265WAT    HW112794   2.237   5.110   2.763
 4265WAT    HW212795   2.185   5.053   2.633
 4266WAT     OW12796   0.155   1.749   5.962
 4266WAT    HW112797   0.064   1.725   5.979
 4266WAT    HW212798   0.206   1.680   6.003
 4267WAT     OW12799   5.846   3.619   3.008
 4267WAT    HW112800   5.937   3.609   2.981
 4267WAT    HW212801   5.832   3.549   3.073
 4268WAT     OW12802   4.762   2.251   1.781
 4268WAT    HW112803   4.766   2.249   1.685
 4268WAT    HW212804   4.768   2.159   1.807
 4269WAT     OW12805   2.348   4.181   5.800
 4269WAT    HW112806   2.253   4.175   5.795
 4269WAT    HW212807   2.378   4.091   5.809
 4270WAT     OW12808   1.586   5.902   5.885
 4270WAT    HW112809   1.658   5.944   5.933
 4270WAT    HW212810   1.586   5.812   5.917
 4271WAT     OW12811   5.572   1.640   5.161
 4271WAT    HW112812   5.640   1.682   5.213
 4271WAT    HW212813   5.615   1.618   5.078
 4272WAT     OW12814   1.056   1.493   2.458
 4272WAT    HW112815   1.112   1.422   2.487
 4272WAT    HW212816   0.982   1.450   2.415
 4273WAT     OW12817   0.049   2.460   6.428
 4273WAT    HW112818   0.006   2.430   6.509
 4273WAT    HW212819   0.084   2.380   6.388
 4274WAT     OW12820   0.467   0.751   5.298
 4274WAT    HW112821   0.520   0.699   5.358
 4274WAT    HW212822   0.463   0.698   5.218
 4275WAT     OW12823   2.214   2.289   3.267
 4275WAT    HW112824   2.201   2.247   3.182
 4275WAT    HW212825   2.125   2.303   3.300
 4276WAT     OW12826   5.300   2.811   0.922
 4276WAT    HW112827   5.377   2.857   0.888
 4276WAT    HW212828   5.226   2.855   0.881
 4277WAT     OW12829   4.453   2.966   0.657
 4277WAT    HW112830   4.517   3.011   0.712
 4277WAT    HW212831   4.499   2.949   0.575
 4278WAT     OW12832   1.214   0.302   5.504
 4278WAT    HW112833   1.178   0.255   5.579
 4278WAT    HW212834   1.237   0.233   5.441
 4279WAT     OW12835   1.196   3.470   5.619
 4279WAT    HW112836   1.150   3.490   5.537
 4279WAT    HW212837   1.154   3.390   5.651
 4280WAT     OW12838   2.576   6.304   2.126
 4280WAT    HW112839   2.668   6.300   2.153
 4280WAT    HW212840   2.545   6.388   2.161
 4281WAT     OW12841   3.531   4.428   1.174
 4281WAT    HW112842   3.562   4.457   1.089
 4281WAT    HW212843   3.611   4.400   1.220
 4282WAT     OW12844   4.762   5.084   5.497
 4282WAT    HW112845   4.777   5.139   5.575
 4282WAT    HW212846   4.839   5.100   5.443
 4283WAT     OW12847   4.290   1.847   2.730
 4283WAT    HW112848   4.353   1.865   2.660
 4283WAT    HW212849   4.211   1.820   2.684
 4284WAT     OW12850   5.529   5.855   1.757
 4284WAT    HW112851   5.527   5.771   1.804
 4284WAT    HW212852   5.518   5.831   1.665
 4285WAT     OW12853   6.541   2.818   4.557
 4285WAT    HW112854   6.482   2.749   4.528
 4285WAT    HW212855   6.542   2.811   4.652
 4286WAT     OW12856   0.459   2.745   2.174
 4286WAT    HW112857   0.499   2.668   2.132
 4286WAT    HW212858   0.472   2.816   2.110
 4287WAT     OW12859   2.779   1.286   2.251
 4287WAT    HW112860   2.859   1.261   2.206
 4287WAT    HW212861   2.808   1.340   2.324
 4288WAT     OW12862   5.263   6.563   0.773
 4288WAT    HW112863   5.308   6.513   0.842
 4288WAT    HW212864   5.172   6.535   0.778
 4289WAT     OW12865   1.817   3.114   4.015
 4289WAT    HW112866   1.863   3.196   4.030
 4289WAT    HW212867   1.725   3.133   4.033
 4290WAT     OW12868   1.086   4.919   5.696
 4290WAT    HW112869   1.064   4.911   5.603
 4290WAT    HW212870   1.177   4.890   5.702
 4291WAT     OW12871   4.464   0.817   5.845
 4291WAT    HW112872   4.438   0.894   5.894
 4291WAT    HW212873   4.559   0.822   5.840
 4292WAT     OW12874   3.463   4.653   4.856
 4292WAT    HW112875   3.463   4.627   4.948
 4292WAT    HW212876   3.425   4.578   4.810
 4293WAT     OW12877   0.854   3.162   5.389
 4293WAT    HW112878   0.856   3.170   5.294
 4293WAT    HW212879   0.912   3.088   5.408
 4294WAT     OW12880   0.695   2.769   5.565
 4294WAT    HW112881   0.675   2.861   5.545
 4294WAT    HW212882   0.609   2.728   5.574
 4295WAT     OW12883   4.001   1.211   3.067
 4295WAT    HW112884   4.068   1.145   3.046
 4295WAT    HW212885   4.046   1.295   3.058
 4296WAT     OW12886   2.856   5.457   2.063
 4296WAT    HW112887   2.789   5.409   2.015
 4296WAT    HW212888   2.933   5.401   2.059
 4297WAT     OW12889   3.418   5.791   0.925
 4297WAT    HW112890   3.383   5.782   1.013
 4297WAT    HW212891   3.342   5.780   0.868
 4298WAT     OW12892   4.584   1.329   2.411
 4298WAT    HW112893   4.533   1.409   2.395
 4298WAT    HW212894   4.561   1.303   2.500
 4299WAT     OW12895   0.964   3.876   1.004
 4299WAT    HW112896   0.898   3.815   0.971
 4299WAT    HW212897   0.973   3.942   0.935
 4300WAT     OW12898   2.524   2.206   6.493
 4300WAT    HW112899   2.478   2.158   6.425
 4300WAT    HW212900   2.481   2.292   6.496
 4301WAT     OW12901   2.648   5.091   1.655
 4301WAT    HW112902   2.589   5.081   1.731
 4301WAT    HW212903   2.602   5.047   1.584
 4302WAT     OW12904   5.305   3.538   3.432
 4302WAT    HW112905   5.356   3.504   3.506
 4302WAT    HW212906   5.268   3.620   3.463
 4303WAT     OW12907   2.305   3.777   5.012
 4303WAT    HW112908   2.395   3.779   4.981
 4303WAT    HW212909   2.309   3.734   5.097
 4304WAT     OW12910   0.178   0.591   3.317
 4304WAT    HW112911   0.193   0.498   3.298
 4304WAT    HW212912   0.113   0.618   3.252
 4305WAT     OW12913   1.331   6.148   3.655
 4305WAT    HW112914   1.236   6.154   3.643
 4305WAT    HW212915   1.343   6.096   3.735
 4306WAT     OW12916   0.487   3.366   0.880
 4306WAT    HW112917   0.485   3.270   0.874
 4306WAT    HW212918   0.570   3.385   0.924
 4307WAT     OW12919   5.383   1.789   2.250
 4307WAT    HW112920   5.325   1.735   2.197
 4307WAT    HW212921   5.417   1.854   2.189
 4308WAT     OW12922   4.999   6.484   0.847
 4308WAT    HW112923   5.023   6.537   0.924
 4308WAT    HW212924   4.946   6.413   0.883
 4309WAT     OW12925   4.321   3.958   2.779
 4309WAT    HW112926   4.279   3.923   2.858
 4309WAT    HW212927   4.378   3.887   2.749
 4310WAT     OW12928   4.311   1.229   5.478
 4310WAT    HW112929   4.347   1.280   5.406
 4310WAT    HW212930   4.219   1.218   5.457
 4311WAT     OW12931   5.695   5.107   3.174
 4311WAT    HW112932   5.785   5.073   3.174
 4311WAT    HW212933   5.651   5.059   3.244
 4312WAT     OW12934   1.661   3.240   4.951
 4312WAT    HW112935   1.592   3.179   4.977
 4312WAT    HW212936   1.709   3.258   5.032
 4313WAT     OW12937   2.803   6.307   4.377
 4313WAT    HW112938   2.816   6.248   4.451
 4313WAT    HW212939   2.708   6.313   4.368
 4314WAT     OW12940   6.590   1.971   5.142
 4314WAT    HW112941   6.674   1.924   5.145
 4314WAT    HW212942   6.594   2.032   5.215
 4315WAT     OW12943   6.101   1.435   3.260
 4315WAT    HW112944   6.056   1.495   3.319
 4315WAT    HW212945   6.146   1.491   3.197
 4316WAT     OW12946   1.371   2.048   3.175
 4316WAT    HW112947   1.376   2.130   3.127
 4316WAT    HW212948   1.379   2.073   3.267
 4317WAT     OW12949   4.395   3.912   4.307
 4317WAT    HW112950   4.474   3.953   4.342
 4317WAT    HW212951   4.328   3.981   4.314
 4318WAT     OW12952   1.818   0.558   4.621
 4318WAT    HW112953   1.747   0.564   4.557
 4318WAT    HW212954   1.898   0.557   4.568
 4319WAT     OW12955   2.286   1.635   3.380
 4319WAT    HW112956   2.312   1.689   3.455
 4319WAT    HW212957   2.306   1.689   3.303
 4320WAT     OW12958   2.075   5.085   0.365
 4320WAT    HW112959   2.155   5.038   0.390
 4320WAT    HW212960   2.086   5.103   0.272
 4321WAT     OW12961   1.001   2.545   4.597
 4321WAT    HW112962   1.023   2.628   4.640
 4321WAT    HW212963   0.911   2.557   4.567
 4322WAT     OW12964   1.085   5.610   3.657
 4322WAT    HW112965   1.011   5.582   3.711
 4322WAT    HW212966   1.159   5.560   3.690
 4323WAT     OW12967   2.365   3.342   2.475
 4323WAT    HW112968   2.289   3.292   2.446
 4323WAT    HW212969   2.440   3.293   2.442
 4324WAT     OW12970   0.440   2.262   5.114
 4324WAT    HW112971   0.360   2.214   5.134
 4324WAT    HW212972   0.419   2.311   5.035
 4325WAT     OW12973   0.942   6.099   0.793
 4325WAT    HW112974   0.959   6.162   0.863
 4325WAT    HW212975   0.847   6.085   0.795
 4326WAT     OW12976   6.362   2.579   0.751
 4326WAT    HW112977   6.291   2.517   0.762
 4326WAT    HW212978   6.376   2.584   0.656
 4327WAT     OW12979   0.519   6.426   3.006
 4327WAT    HW112980   0.425   6.446   3.008
 4327WAT    HW212981   0.524   6.332   2.988
 4328WAT     OW12982   6.425   1.777   0.535
 4328WAT    HW112983   6.496   1.752   0.595
 4328WAT    HW212984   6.394   1.861   0.569
 4329WAT     OW12985   2.782   5.522   6.617
 4329WAT    HW112986   2.850   5.501   6.553
 4329WAT    HW212987   2.810   5.605   6.655
 4330WAT     OW12988   1.430   6.601   0.601
 4330WAT    HW112989   1.468   6.552   0.529
 4330WAT    HW212990   1.370   6.664   0.560
 4331WAT     OW12991   5.764   4.684   4.364
 4331WAT    HW112992   5.695   4.684   4.430
 4331WAT    HW212993   5.788   4.776   4.355
 4332WAT     OW12994   4.399   4.712   4.991
 4332WAT    HW112995   4.433   4.623   4.978
 4332WAT    HW212996   4.379   4.742   4.902
 4333WAT     OW12997   0.608   3.433   3.400
 4333WAT    HW112998   0.597   3.369   3.331
 4333WAT    HW212999   0.618   3.381   3.480
 4334WAT     OW13000   2.171   4.908   3.304
 4334WAT    HW113001   2.210   4.857   3.233
 4334WAT    HW213002   2.084   4.932   3.271
 4335WAT     OW13003   1.332   3.091   3.352
 4335WAT    HW113004   1.336   3.171   3.300
 4335WAT    HW213005   1.266   3.037   3.307
 4336WAT     OW13006   0.903   4.069   2.676
 4336WAT    HW113007   0.909   4.004   2.606
 4336WAT    HW213008   0.819   4.050   2.718
 4337WAT     OW13009   3.520   5.108   5.738
 4337WAT    HW113010   3.503   5.139   5.649
 4337WAT    HW213011   3.615   5.111   5.747
 4338WAT     OW13012   4.766   5.385   1.764
 4338WAT    HW113013   4.831   5.319   1.790
 4338WAT    HW213014   4.724   5.347   1.687
 4339WAT     OW13015   3.976   2.596   5.822
 4339WAT    HW113016   3.949   2.639   5.904
 4339WAT    HW213017   3.895   2.581   5.775
 4340WAT     OW13018   0.635   6.713   1.455
 4340WAT    HW113019   0.643   6.808   1.459
 4340WAT    HW213020   0.721   6.680   1.482
 4341WAT     OW13021   3.283   1.045   5.270
 4341WAT    HW113022   3.356   1.060   5.211
 4341WAT    HW213023   3.299   0.960   5.309
 4342WAT     OW13024   0.983   4.329   6.708
 4342WAT    HW113025   0.959   4.333   6.801
 4342WAT    HW213026   1.068   4.373   6.704
 4343WAT     OW13027   2.522   6.082   1.184
 4343WAT    HW113028   2.558   6.031   1.112
 4343WAT    HW213029   2.445   6.034   1.212
 4344WAT     OW13030   1.397   2.242   4.517
 4344WAT    HW113031   1.369   2.162   4.563
 4344WAT    HW213032   1.427   2.211   4.432
 4345WAT     OW13033   3.949   0.758   2.156
 4345WAT    HW113034   3.932   0.664   2.163
 4345WAT    HW213035   4.042   0.767   2.178
 4346WAT     OW13036   1.454   4.617   6.345
 4346WAT    HW113037   1.483   4.707   6.364
 4346WAT    HW213038   1.493   4.597   6.259
 4347WAT     OW13039   0.040   1.150   6.606
 4347WAT    HW113040   0.114   1.198   6.569
 4347WAT    HW213041   0.070   1.059   6.609
 4348WAT     OW13042   1.904   2.221   2.335
 4348WAT    HW113043   1.857   2.301   2.312
 4348WAT    HW213044   1.991   2.250   2.360
 4349WAT     OW13045   4.048   1.507   3.581
 4349WAT    HW113046   4.093   1.587   3.608
 4349WAT    HW213047   4.105   1.469   3.514
 4350WAT     OW13048   3.636   5.690   5.570
 4350WAT    HW113049   3.707   5.741   5.608
 4350WAT    HW213050   3.674   5.603   5.556
 4351WAT     OW13051   0.956   6.453   2.098
 4351WAT    HW113052   1.018   6.521   2.071
 4351WAT    HW213053   1.010   6.386   2.141
 4352WAT     OW13054   5.418   3.203   2.680
 4352WAT    HW113055   5.488   3.200   2.616
 4352WAT    HW213056   5.451   3.155   2.756
 4353WAT     OW13057   6.059   3.268   4.657
 4353WAT    HW113058   6.120   3.332   4.620
 4353WAT    HW213059   6.073   3.188   4.605
 4354WAT     OW13060   4.991   5.651   3.305
 4354WAT    HW113061   4.939   5.668   3.226
 4354WAT    HW213062   5.079   5.680   3.282
 4355WAT     OW13063   3.087   4.857   2.926
 4355WAT    HW113064   3.064   4.785   2.986
 4355WAT    HW213065   3.010   4.867   2.871
 4356WAT     OW13066   2.995   2.720   0.727
 4356WAT    HW113067   2.924   2.760   0.776
 4356WAT    HW213068   3.055   2.687   0.794
 4357WAT     OW13069   3.954   6.543   5.331
 4357WAT    HW113070   4.040   6.584   5.331
 4357WAT    HW213071   3.952   6.491   5.412
 4358WAT     OW13072   6.629   5.897   2.485
 4358WAT    HW113073   6.548   5.887   2.535
 4358WAT    HW213074   6.637   5.815   2.435
 4359WAT     OW13075   2.629   1.584   4.606
 4359WAT    HW113076   2.589   1.635   4.677
 4359WAT    HW213077   2.708   1.548   4.645
 4360WAT     OW13078   0.974   0.198   3.744
 4360WAT    HW113079   1.021   0.159   3.818
 4360WAT    HW213080   0.886   0.214   3.778
 4361WAT     OW13081   2.501   5.682   0.898
 4361WAT    HW113082   2.481   5.645   0.984
 4361WAT    HW213083   2.546   5.764   0.917
 4362WAT     OW13084   3.482   5.358   4.258
 4362WAT    HW113085   3.533   5.429   4.219
 4362WAT    HW213086   3.541   5.319   4.323
 4363WAT     OW13087   0.978   1.743   1.973
 4363WAT    HW113088   1.006   1.698   1.893
 4363WAT    HW213089   1.060   1.775   2.012
 4364WAT     OW13090   1.090   1.621   1.751
 4364WAT    HW113091   1.024   1.606   1.683
 4364WAT    HW213092   1.152   1.682   1.711
 4365WAT     OW13093   1.010   1.280   3.246
 4365WAT    HW113094   1.053   1.365   3.257
 4365WAT    HW213095   0.943   1.295   3.180
 4366WAT     OW13096   4.719   3.289   6.365
 4366WAT    HW113097   4.666   3.315   6.441
 4366WAT    HW213098   4.700   3.196   6.353
 4367WAT     OW13099   0.958   0.365   1.189
 4367WAT    HW113100   1.053   0.358   1.189
 4367WAT    HW213101   0.931   0.326   1.106
 4368WAT     OW13102   0.697   5.671   4.026
 4368WAT    HW113103   0.623   5.617   3.998
 4368WAT    HW213104   0.764   5.608   4.054
 4369WAT     OW13105   2.880   0.256   4.642
 4369WAT    HW113106   2.835   0.213   4.714
 4369WAT    HW213107   2.883   0.190   4.573
 4370WAT     OW13108   3.433   3.866   0.707
 4370WAT    HW113109   3.491   3.925   0.658
 4370WAT    HW213110   3.351   3.914   0.715
 4371WAT     OW13111   5.442   1.648   1.257
 4371WAT    HW113112   5.479   1.621   1.173
 4371WAT    HW213113   5.496   1.602   1.322
 4372WAT     OW13114   6.269   2.344   0.146
 4372WAT    HW113115   6.340   2.305   0.198
 4372WAT    HW213116   6.309   2.363   0.061
 4373WAT     OW13117   4.698   4.810   5.505
 4373WAT    HW113118   4.749   4.794   5.426
 4373WAT    HW213119   4.711   4.903   5.523
 4374WAT     OW13120   1.725   1.589   0.553
 4374WAT    HW113121   1.641   1.631   0.570
 4374WAT    HW213122   1.761   1.572   0.640
 4375WAT     OW13123   0.388   4.125   0.529
 4375WAT    HW113124   0.403   4.120   0.435
 4375WAT    HW213125   0.419   4.212   0.554
 4376WAT     OW13126   3.235   2.043   3.297
 4376WAT    HW113127   3.188   1.977   3.246
 4376WAT    HW213128   3.228   2.014   3.387
 4377WAT     OW13129   5.985   2.094   2.723
 4377WAT    HW113130   6.048   2.165   2.712
 4377WAT    HW213131   5.899   2.135   2.710
 4378WAT     OW13132   1.593   4.374   4.197
 4378WAT    HW113133   1.672   4.320   4.205
 4378WAT    HW213134   1.550   4.342   4.118
 4379WAT     OW13135   5.813   3.041   1.291
 4379WAT    HW113136   5.890   3.012   1.339
 4379WAT    HW213137   5.796   2.970   1.229
 4380WAT     OW13138   2.774   0.594   4.744
 4380WAT    HW113139   2.693   0.561   4.783
 4380WAT    HW213140   2.780   0.550   4.660
 4381WAT     OW13141   5.337   3.319   4.412
 4381WAT    HW113142   5.283   3.309   4.490
 4381WAT    HW213143   5.364   3.229   4.390
 4382WAT     OW13144   1.938   5.434   1.419
 4382WAT    HW113145   1.886   5.472   1.489
 4382WAT    HW213146   1.971   5.508   1.369
 4383WAT     OW13147   1.282   0.965   5.628
 4383WAT    HW113148   1.342   1.009   5.567
 4383WAT    HW213149   1.237   1.037   5.673
 4384WAT     OW13150   1.597   3.030   1.218
 4384WAT    HW113151   1.610   3.101   1.156
 4384WAT    HW213152   1.525   3.060   1.275
 4385WAT     OW13153   6.639   6.651   4.650
 4385WAT    HW113154   6.592   6.710   4.709
 4385WAT    HW213155   6.646   6.569   4.699
 4386WAT     OW13156   4.702   3.032   4.615
 4386WAT    HW113157   4.612   3.029   4.582
 4386WAT    HW213158   4.694   3.020   4.710
 4387WAT     OW13159   3.563   4.795   2.040
 4387WAT    HW113160   3.569   4.822   1.948
 4387WAT    HW213161   3.585   4.873   2.090
 4388WAT     OW13162   2.574   5.121   5.459
 4388WAT    HW113163   2.551   5.036   5.421
 4388WAT    HW213164   2.601   5.100   5.549
 4389WAT     OW13165   2.773   3.558   0.493
 4389WAT    HW113166   2.816   3.601   0.567
 4389WAT    HW213167   2.841   3.502   0.455
 4390WAT     OW13168   2.780   6.722   3.228
 4390WAT    HW113169   2.708   6.782   3.209
 4390WAT    HW213170   2.859   6.775   3.217
 4391WAT     OW13171   1.895   3.221   1.373
 4391WAT    HW113172   1.862   3.304   1.340
 4391WAT    HW213173   1.906   3.236   1.467
 4392WAT     OW13174   3.066   6.598   3.871
 4392WAT    HW113175   3.125   6.537   3.915
 4392WAT    HW213176   3.078   6.580   3.778
 4393WAT     OW13177   0.335   3.373   6.103
 4393WAT    HW113178   0.405   3.432   6.132
 4393WAT    HW213179   0.273   3.372   6.176
 4394WAT     OW13180   1.135   3.895   0.157
 4394WAT    HW113181   1.049   3.884   0.116
 4394WAT    HW213182   1.197   3.881   0.085
 4395WAT     OW13183   3.827   6.318   4.166
 4395WAT    HW113184   3.766   6.260   4.212
 4395WAT    HW213185   3.838   6.393   4.224
 4396WAT     OW13186   2.463   5.530   2.358
 4396WAT    HW113187   2.477   5.513   2.265
 4396WAT    HW213188   2.441   5.623   2.363
 4397WAT     OW13189   5.909   5.555   2.040
 4397WAT    HW113190   5.911   5.623   2.108
 4397WAT    HW213191   5.877   5.477   2.085
 4398WAT     OW13192   2.369   1.596   1.219
 4398WAT    HW113193   2.404   1.549   1.143
 4398WAT    HW213194   2.399   1.546   1.295
 4399WAT     OW13195   2.187   3.065   3.990
 4399WAT    HW113196   2.192   3.160   3.974
 4399WAT    HW213197   2.265   3.045   4.041
 4400WAT     OW13198   3.375   6.715   0.736
 4400WAT    HW113199   3.410   6.672   0.658
 4400WAT    HW213200   3.280   6.717   0.722
 4401WAT     OW13201   0.687   4.041   2.439
 4401WAT    HW113202   0.617   4.054   2.375
 4401WAT    HW213203   0.713   4.129   2.464
 4402WAT     OW13204   4.117   1.236   3.875
 4402WAT    HW113205   4.157   1.322   3.891
 4402WAT    HW213206   4.187   1.185   3.835
 4403WAT     OW13207   5.029   2.683   4.563
 4403WAT    HW113208   5.104   2.624   4.568
 4403WAT    HW213209   5.019   2.716   4.652
 4404WAT     OW13210   0.265   0.152   5.102
 4404WAT    HW113211   0.327   0.171   5.173
 4404WAT    HW213212   0.320   0.122   5.030
 4405WAT     OW13213   6.285   4.954   5.424
 4405WAT    HW113214   6.299   4.874   5.373
 4405WAT    HW213215   6.366   4.967   5.473
 4406WAT     OW13216   6.431   5.944   1.609
 4406WAT    HW113217   6.454   5.854   1.632
 4406WAT    HW213218   6.380   5.935   1.529
 4407WAT     OW13219   1.149   5.378   2.458
 4407WAT    HW113220   1.126   5.289   2.486
 4407WAT    HW213221   1.245   5.378   2.456
 4408WAT     OW13222   1.069   6.091   0.106
 4408WAT    HW113223   1.116   6.026   0.157
 4408WAT    HW213224   0.979   6.059   0.103
 4409WAT     OW13225   0.836   1.191   2.129
 4409WAT    HW113226   0.815   1.102   2.104
 4409WAT    HW213227   0.791   1.246   2.065
 4410WAT     OW13228   2.190   0.852   1.228
 4410WAT    HW113229   2.120   0.788   1.212
 4410WAT    HW213230   2.212   0.886   1.142
 4411WAT     OW13231   5.947   3.149   3.440
 4411WAT    HW113232   6.004   3.168   3.515
 4411WAT    HW213233   5.977   3.210   3.372
 4412WAT     OW13234   0.372   4.150   4.198
 4412WAT    HW113235   0.388   4.147   4.104
 4412WAT    HW213236   0.303   4.085   4.213
 4413WAT     OW13237   3.404   3.041   4.271
 4413WAT    HW113238   3.323   3.067   4.316
 4413WAT    HW213239   3.446   2.979   4.332
 4414WAT     OW13240   6.341   6.565   0.902
 4414WAT    HW113241   6.385   6.607   0.975
 4414WAT    HW213242   6.372   6.475   0.903
 4415WAT     OW13243   3.928   1.161   0.055
 4415WAT    HW113244   3.859   1.224   0.033
 4415WAT    HW213245   3.979   1.205   0.122
 4416WAT     OW13246   4.054   3.726   0.525
 4416WAT    HW113247   4.145   3.752   0.508
 4416WAT    HW213248   4.026   3.682   0.445
 4417WAT     OW13249   1.817   5.325   5.775
 4417WAT    HW113250   1.737   5.357   5.734
 4417WAT    HW213251   1.794   5.237   5.806
 4418WAT     OW13252   4.040   6.188   5.355
 4418WAT    HW113253   4.128   6.223   5.342
 4418WAT    HW213254   3.992   6.259   5.399
 4419WAT     OW13255   6.428   4.388   2.708
 4419WAT    HW113256   6.411   4.317   2.770
 4419WAT    HW213257   6.495   4.442   2.750
 4420WAT     OW13258   0.120   2.022   0.598
 4420WAT    HW113259   0.216   2.025   0.592
 4420WAT    HW213260   0.097   1.936   0.562
 4421WAT     OW13261   3.532   3.510   2.461
 4421WAT    HW113262   3.550   3.520   2.368
 4421WAT    HW213263   3.487   3.591   2.485
 4422WAT     OW13264   1.459   3.426   6.240
 4422WAT    HW113265   1.481   3.373   6.163
 4422WAT    HW213266   1.534   3.485   6.250
 4423WAT     OW13267   2.236   6.631   3.175
 4423WAT    HW113268   2.279   6.547   3.155
 4423WAT    HW213269   2.197   6.658   3.092
 4424WAT     OW13270   4.361   4.032   3.401
 4424WAT    HW113271   4.308   4.023   3.481
 4424WAT    HW213272   4.333   4.116   3.363
 4425WAT     OW13273   3.429   4.091   3.273
 4425WAT    HW113274   3.478   4.025   3.321
 4425WAT    HW213275   3.337   4.075   3.297
 4426WAT     OW13276   1.000   3.740   3.296
 4426WAT    HW113277   0.947   3.674   3.340
 4426WAT    HW213278   0.986   3.820   3.348
 4427WAT     OW13279   4.343   0.999   4.715
 4427WAT    HW113280   4.256   0.990   4.754
 4427WAT    HW213281   4.402   1.012   4.789
 4428WAT     OW13282   4.211   0.951   0.073
 4428WAT    HW113283   4.170   0.865   0.061
 4428WAT    HW213284   4.181   0.979   0.159
 4429WAT     OW13285   4.894   1.195   2.690
 4429WAT    HW113286   4.890   1.242   2.607
 4429WAT    HW213287   4.852   1.254   2.753
 4430WAT     OW13288   2.327   4.593   6.362
 4430WAT    HW113289   2.384   4.653   6.314
 4430WAT    HW213290   2.387   4.530   6.403
 4431WAT     OW13291   5.734   2.234   3.809
 4431WAT    HW113292   5.649   2.224   3.765
 4431WAT    HW213293   5.759   2.145   3.833
 4432WAT     OW13294   5.581   0.981   1.607
 4432WAT    HW113295   5.619   0.986   1.695
 4432WAT    HW213296   5.621   0.903   1.569
 4433WAT     OW13297   1.239   4.184   2.786
 4433WAT    HW113298   1.187   4.111   2.818
 4433WAT    HW213299   1.239   4.246   2.859
 4434WAT     OW13300   1.687   2.290   0.000
 4434WAT    HW113301   1.744   2.218  -0.030
 4434WAT    HW213302   1.659   2.262   0.087
 4435WAT     OW13303   1.253   2.042   4.935
 4435WAT    HW113304   1.330   2.078   4.980
 4435WAT    HW213305   1.269   1.947   4.933
 4436WAT     OW13306   0.597   1.103   4.301
 4436WAT    HW113307   0.573   1.026   4.250
 4436WAT    HW213308   0.680   1.133   4.262
 4437WAT     OW13309   2.482   6.196   5.593
 4437WAT    HW113310   2.457   6.122   5.649
 4437WAT    HW213311   2.411   6.204   5.530
 4438WAT     OW13312   2.526   0.650   3.586
 4438WAT    HW113313   2.605   0.685   3.628
 4438WAT    HW213314   2.486   0.726   3.544
 4439WAT     OW13315   4.929   3.243   3.693
 4439WAT    HW113316   4.877   3.191   3.631
 4439WAT    HW213317   4.887   3.328   3.695
 4440WAT     OW13318   3.649   2.805   2.710
 4440WAT    HW113319   3.631   2.795   2.617
 4440WAT    HW213320   3.712   2.878   2.715
 4441WAT     OW13321   3.680   1.424   1.916
 4441WAT    HW113322   3.775   1.415   1.905
 4441WAT    HW213323   3.644   1.342   1.883
 4442WAT     OW13324   5.275   4.029   3.620
 4442WAT    HW113325   5.235   4.085   3.686
 4442WAT    HW213326   5.320   4.090   3.561
 4443WAT     OW13327   6.654   0.596   0.563
 4443WAT    HW113328   6.669   0.522   0.505
 4443WAT    HW213329   6.735   0.647   0.559
 4444WAT     OW13330   6.615   6.498   1.110
 4444WAT    HW113331   6.667   6.517   1.032
 4444WAT    HW213332   6.558   6.575   1.119
 4445WAT     OW13333   1.880   4.532   4.772
 4445WAT    HW113334   1.816   4.513   4.703
 4445WAT    HW213335   1.944   4.461   4.766
 4446WAT     OW13336   6.625   2.722   2.179
 4446WAT    HW113337   6.586   2.682   2.102
 4446WAT    HW213338   6.552   2.761   2.226
 4447WAT     OW13339   5.239   5.748   4.727
 4447WAT    HW113340   5.287   5.779   4.804
 4447WAT    HW213341   5.306   5.727   4.663
 4448WAT     OW13342   5.783   4.669   5.687
 4448WAT    HW113343   5.733   4.746   5.658
 4448WAT    HW213344   5.772   4.669   5.782
 4449WAT     OW13345   0.534   0.476   0.810
 4449WAT    HW113346   0.568   0.387   0.812
 4449WAT    HW213347   0.455   0.474   0.864
 4450WAT     OW13348   0.180   0.053   1.233
 4450WAT    HW113349   0.182  -0.019   1.297
 4450WAT    HW213350   0.262   0.101   1.249
 4451WAT     OW13351   3.969   1.938   0.691
 4451WAT    HW113352   3.878   1.924   0.666
 4451WAT    HW213353   4.009   1.978   0.614
 4452WAT     OW13354   0.404   4.629   2.789
 4452WAT    HW113355   0.432   4.720   2.780
 4452WAT    HW213356   0.408   4.611   2.883
 4453WAT     OW13357   4.284   5.541   3.456
 4453WAT    HW113358   4.231   5.604   3.408
 4453WAT    HW213359   4.291   5.578   3.544
 4454WAT     OW13360   5.596   1.095   2.907
 4454WAT    HW113361   5.670   1.112   2.849
 4454WAT    HW213362   5.532   1.164   2.885
 4455WAT     OW13363   2.711   6.510   2.855
 4455WAT    HW113364   2.749   6.498   2.942
 4455WAT    HW213365   2.617   6.493   2.868
 4456WAT     OW13366   1.518   1.900   6.397
 4456WAT    HW113367   1.574   1.824   6.412
 4456WAT    HW213368   1.537   1.928   6.308
 4457WAT     OW13369   0.927   3.299   2.872
 4457WAT    HW113370   0.901   3.208   2.860
 4457WAT    HW213371   0.878   3.328   2.950
 4458WAT     OW13372   6.084   3.359   3.306
 4458WAT    HW113373   6.172   3.346   3.270
 4458WAT    HW213374   6.097   3.414   3.383
 4459WAT     OW13375   3.692   4.249   5.791
 4459WAT    HW113376   3.724   4.268   5.880
 4459WAT    HW213377   3.770   4.252   5.736
 4460WAT     OW13378   3.249   3.140   1.507
 4460WAT    HW113379   3.316   3.160   1.572
 4460WAT    HW213380   3.166   3.156   1.552
 4461WAT     OW13381   2.530   0.558   2.421
 4461WAT    HW113382   2.452   0.505   2.442
 4461WAT    HW213383   2.542   0.614   2.497
 4462WAT     OW13384   5.437   1.256   0.065
 4462WAT    HW113385   5.362   1.272   0.122
 4462WAT    HW213386   5.482   1.341   0.060
 4463WAT     OW13387   0.643   0.043   2.260
 4463WAT    HW113388   0.706   0.008   2.323
 4463WAT    HW213389   0.626   0.132   2.289
 4464WAT     OW13390   1.091   6.197   3.241
 4464WAT    HW113391   1.051   6.131   3.297
 4464WAT    HW213392   1.156   6.150   3.189
 4465WAT     OW13393   1.707   3.005   6.481
 4465WAT    HW113394   1.729   3.075   6.544
 4465WAT    HW213395   1.665   2.938   6.535
 4466WAT     OW13396   2.128   1.311   5.201
 4466WAT    HW113397   2.090   1.254   5.134
 4466WAT    HW213398   2.221   1.287   5.202
 4467WAT     OW13399   2.881   1.839   2.825
 4467WAT    HW113400   2.922   1.816   2.743
 4467WAT    HW213401   2.909   1.929   2.842
 4468WAT     OW13402   5.883   1.606   0.486
 4468WAT    HW113403   5.858   1.543   0.418
 4468WAT    HW213404   5.949   1.561   0.537
 4469WAT     OW13405   1.503   1.718   6.138
 4469WAT    HW113406   1.421   1.751   6.101
 4469WAT    HW213407   1.561   1.795   6.140
 4470WAT     OW13408   2.804   1.335   6.491
 4470WAT    HW113409   2.710   1.326   6.508
 4470WAT    HW213410   2.811   1.417   6.442
 4471WAT     OW13411   1.427   3.985   0.220
 4471WAT    HW113412   1.349   4.015   0.268
 4471WAT    HW213413   1.393   3.958   0.134
 4472WAT     OW13414   5.305   1.354   2.606
 4472WAT    HW113415   5.285   1.443   2.636
 4472WAT    HW213416   5.361   1.367   2.530
 4473WAT     OW13417   5.035   0.774   6.675
 4473WAT    HW113418   5.000   0.757   6.762
 4473WAT    HW213419   5.124   0.737   6.677
 4474WAT     OW13420   0.221   5.867   1.880
 4474WAT    HW113421   0.184   5.941   1.831
 4474WAT    HW213422   0.217   5.895   1.972
 4475WAT     OW13423   1.648   6.341   4.701
 4475WAT    HW113424   1.558   6.311   4.687
 4475WAT    HW213425   1.645   6.385   4.787
 4476WAT     OW13426   3.369   5.140   0.791
 4476WAT    HW113427   3.315   5.159   0.714
 4476WAT    HW213428   3.330   5.062   0.829
 4477WAT     OW13429   1.943   1.721   3.803
 4477WAT    HW113430   2.033   1.754   3.815
 4477WAT    HW213431   1.953   1.626   3.800
 4478WAT     OW13432   5.415   4.208   3.468
 4478WAT    HW113433   5.490   4.154   3.443
 4478WAT    HW213434   5.412   4.276   3.401
 4479WAT     OW13435   2.624   3.120   0.990
 4479WAT    HW113436   2.625   3.095   1.082
 4479WAT    HW213437   2.580   3.047   0.946
 4480WAT     OW13438   6.209   5.011   2.887
 4480WAT    HW113439   6.243   5.100   2.885
 4480WAT    HW213440   6.250   4.967   2.813
 4481WAT     OW13441   5.974   0.536   3.500
 4481WAT    HW113442   6.059   0.503   3.528
 4481WAT    HW213443   5.930   0.560   3.582
 4482WAT     OW13444   3.722   0.700   6.022
 4482WAT    HW113445   3.785   0.729   6.088
 4482WAT    HW213446   3.673   0.629   6.064
 4483WAT     OW13447   3.260   3.936   0.226
 4483WAT    HW113448   3.300   4.014   0.187
 4483WAT    HW213449   3.334   3.880   0.248
 4484WAT     OW13450   2.930   0.918   3.662
 4484WAT    HW113451   3.008   0.915   3.718
 4484WAT    HW213452   2.899   1.008   3.668
 4485WAT     OW13453   2.057   3.383   6.004
 4485WAT    HW113454   2.104   3.302   6.023
 4485WAT    HW213455   2.038   3.378   5.910
 4486WAT     OW13456   2.550   2.272   1.694
 4486WAT    HW113457   2.616   2.339   1.711
 4486WAT    HW213458   2.532   2.279   1.601
 4487WAT     OW13459   6.216   0.638   3.983
 4487WAT    HW113460   6.243   0.546   3.984
 4487WAT    HW213461   6.183   0.654   4.071
 4488WAT     OW13462   6.433   1.011   4.910
 4488WAT    HW113463   6.445   0.917   4.921
 4488WAT    HW213464   6.489   1.035   4.836
 4489WAT     OW13465   0.257   1.758   3.550
 4489WAT    HW113466   0.321   1.706   3.501
 4489WAT    HW213467   0.272   1.736   3.641
 4490WAT     OW13468   5.958   5.924   0.624
 4490WAT    HW113469   6.037   5.968   0.593
 4490WAT    HW213470   5.893   5.941   0.555
 4491WAT     OW13471   2.472   0.817   0.630
 4491WAT    HW113472   2.494   0.799   0.539
 4491WAT    HW213473   2.377   0.833   0.629
 4492WAT     OW13474   5.673   2.641   0.954
 4492WAT    HW113475   5.594   2.635   0.900
 4492WAT    HW213476   5.707   2.551   0.956
 4493WAT     OW13477   5.365   6.720   1.844
 4493WAT    HW113478   5.343   6.689   1.932
 4493WAT    HW213479   5.451   6.682   1.827
 4494WAT     OW13480   5.539   6.618   3.835
 4494WAT    HW113481   5.448   6.604   3.808
 4494WAT    HW213482   5.532   6.670   3.915
 4495WAT     OW13483   0.754   5.687   2.127
 4495WAT    HW113484   0.764   5.623   2.197
 4495WAT    HW213485   0.661   5.708   2.126
 4496WAT     OW13486   5.078   0.801   1.243
 4496WAT    HW113487   5.065   0.760   1.157
 4496WAT    HW213488   4.992   0.837   1.265
 4497WAT     OW13489   2.841   4.842   6.085
 4497WAT    HW113490   2.821   4.778   6.017
 4497WAT    HW213491   2.764   4.898   6.089
 4498WAT     OW13492   1.082   3.388   0.619
 4498WAT    HW113493   1.116   3.302   0.593
 4498WAT    HW213494   0.999   3.369   0.662
 4499WAT     OW13495   2.332   4.405   4.760
 4499WAT    HW113496   2.380   4.484   4.734
 4499WAT    HW213497   2.357   4.339   4.695
 4500WAT     OW13498   5.203   5.279   5.417
 4500WAT    HW113499   5.191   5.365   5.376
 4500WAT    HW213500   5.244   5.298   5.501
 4501WAT     OW13501   3.858   4.111   2.987
 4501WAT    HW113502   3.926   4.066   3.037
 4501WAT    HW213503   3.901   4.138   2.906
 4502WAT     OW13504   3.960   1.974   6.540
 4502WAT    HW113505   3.955   2.061   6.501
 4502WAT    HW213506   3.943   1.989   6.633
 4503WAT     OW13507   4.060   2.460   0.302
 4503WAT    HW113508   4.042   2.427   0.389
 4503WAT    HW213509   4.133   2.521   0.313
 4504WAT     OW13510   0.136   5.865   1.084
 4504WAT    HW113511   0.096   5.952   1.087
 4504WAT    HW213512   0.204   5.868   1.151
 4505WAT     OW13513   6.104   3.581   2.932
 4505WAT    HW113514   6.087   3.576   2.838
 4505WAT    HW213515   6.171   3.515   2.948
 4506WAT     OW13516   1.415   3.092   0.923
 4506WAT    HW113517   1.460   3.009   0.914
 4506WAT    HW213518   1.483   3.153   0.953
 4507WAT     OW13519   0.122   0.968   5.654
 4507WAT    HW113520   0.071   0.893   5.684
 4507WAT    HW213521   0.182   0.931   5.589
 4508WAT     OW13522   1.010   6.408   6.310
 4508WAT    HW113523   1.010   6.467   6.235
 4508WAT    HW213524   1.059   6.455   6.378
 4509WAT     OW13525   2.850   1.177   3.721
 4509WAT    HW113526   2.784   1.143   3.781
 4509WAT    HW213527   2.905   1.233   3.776
 4510WAT     OW13528   1.475   1.453   3.132
 4510WAT    HW113529   1.406   1.463   3.067
 4510WAT    HW213530   1.555   1.484   3.089
 4511WAT     OW13531   4.601   1.707   0.104
 4511WAT    HW113532   4.653   1.776   0.062
 4511WAT    HW213533   4.645   1.626   0.078
 4512WAT     OW13534   3.726   0.133   2.335
 4512WAT    HW113535   3.667   0.071   2.380
 4512WAT    HW213536   3.675   0.164   2.260
 4513WAT     OW13537   5.202   3.020   0.235
 4513WAT    HW113538   5.253   3.101   0.243
 4513WAT    HW213539   5.121   3.047   0.192
 4514WAT     OW13540   5.464   1.352   2.372
 4514WAT    HW113541   5.527   1.292   2.413
 4514WAT    HW213542   5.512   1.389   2.298
 4515WAT     OW13543   1.676   1.457   2.649
 4515WAT    HW113544   1.719   1.441   2.565
 4515WAT    HW213545   1.726   1.405   2.712
 4516WAT     OW13546   4.761   0.612   3.356
 4516WAT    HW113547   4.776   0.522   3.384
 4516WAT    HW213548   4.754   0.607   3.260
 4517WAT     OW13549   4.320   3.380   6.297
 4517WAT    HW113550   4.388   3.430   6.341
 4517WAT    HW213551   4.305   3.426   6.215
 4518WAT     OW13552   0.309   4.369   4.360
 4518WAT    HW113553   0.325   4.292   4.305
 4518WAT    HW213554   0.215   4.369   4.375
 4519WAT     OW13555   5.143   2.624   3.837
 4519WAT    HW113556   5.101   2.540   3.851
 4519WAT    HW213557   5.130   2.672   3.919
 4520WAT     OW13558   3.246   1.758   4.786
 4520WAT    HW113559   3.297   1.677   4.778
 4520WAT    HW213560   3.292   1.809   4.852
 4521WAT     OW13561   4.174   3.790   5.680
 4521WAT    HW113562   4.134   3.714   5.638
 4521WAT    HW213563   4.178   3.856   5.611
 4522WAT     OW13564   3.590   6.538   4.177
 4522WAT    HW113565   3.578   6.506   4.088
 4522WAT    HW213566   3.684   6.534   4.191
 4523WAT     OW13567   0.732   3.689   0.968
 4523WAT    HW113568   0.709   3.714   1.058
 4523WAT    HW213569   0.738   3.594   0.970
 4524WAT     OW13570   2.091   4.835   5.257
 4524WAT    HW113571   2.092   4.930   5.262
 4524WAT    HW213572   2.178   4.812   5.226
 4525WAT     OW13573   5.813   0.333   0.965
 4525WAT    HW113574   5.835   0.317   1.057
 4525WAT    HW213575   5.719   0.353   0.966
 4526WAT     OW13576   4.670   1.192   1.485
 4526WAT    HW113577   4.676   1.160   1.395
 4526WAT    HW213578   4.742   1.255   1.493
 4527WAT     OW13579   1.854   4.990   4.957
 4527WAT    HW113580   1.833   4.922   4.894
 4527WAT    HW213581   1.950   4.992   4.960
 4528WAT     OW13582   3.939   3.662   4.467
 4528WAT    HW113583   3.888   3.591   4.506
 4528WAT    HW213584   4.025   3.656   4.509
 4529WAT     OW13585   6.114   4.400   5.645
 4529WAT    HW113586   6.106   4.495   5.634
 4529WAT    HW213587   6.207   4.382   5.629
 4530WAT     OW13588   0.214   4.979   2.199
 4530WAT    HW113589   0.236   5.006   2.110
 4530WAT    HW213590   0.209   5.060   2.248
 4531WAT     OW13591   2.462   0.258   6.358
 4531WAT    HW113592   2.537   0.288   6.307
 4531WAT    HW213593   2.499   0.195   6.420
 4532WAT     OW13594   6.713   5.710   0.187
 4532WAT    HW113595   6.787   5.676   0.137
 4532WAT    HW213596   6.723   5.806   0.183
 4533WAT     OW13597   1.779   4.324   2.470
 4533WAT    HW113598   1.728   4.313   2.390
 4533WAT    HW213599   1.823   4.408   2.458
 4534WAT     OW13600   5.038   6.157   5.942
 4534WAT    HW113601   5.050   6.166   6.037
 4534WAT    HW213602   5.093   6.082   5.919
 4535WAT     OW13603   1.464   6.133   4.922
 4535WAT    HW113604   1.434   6.195   4.855
 4535WAT    HW213605   1.489   6.189   4.996
 4536WAT     OW13606   2.248   4.369   6.654
 4536WAT    HW113607   2.327   4.395   6.607
 4536WAT    HW213608   2.179   4.426   6.620
 4537WAT     OW13609   4.511   0.935   2.768
 4537WAT    HW113610   4.494   1.006   2.829
 4537WAT    HW213611   4.429   0.926   2.719
 4538WAT     OW13612   2.204   4.467   4.101
 4538WAT    HW113613   2.184   4.482   4.008
 4538WAT    HW213614   2.256   4.544   4.127
 4539WAT     OW13615   2.342   4.640   1.627
 4539WAT    HW113616   2.338   4.545   1.613
 4539WAT    HW213617   2.429   4.664   1.595
 4540WAT     OW13618   3.922   2.290   6.160
 4540WAT    HW113619   3.855   2.322   6.100
 4540WAT    HW213620   3.995   2.351   6.149
 4541WAT     OW13621   3.917   1.779   3.829
 4541WAT    HW113622   3.901   1.696   3.873
 4541WAT    HW213623   3.868   1.843   3.881
 4542WAT     OW13624   4.105   1.438   5.719
 4542WAT    HW113625   4.098   1.503   5.789
 4542WAT    HW213626   4.067   1.358   5.756
 4543WAT     OW13627   6.602   0.308   5.865
 4543WAT    HW113628   6.597   0.377   5.798
 4543WAT    HW213629   6.625   0.354   5.945
 4544WAT     OW13630   1.973   1.392   3.175
 4544WAT    HW113631   1.986   1.465   3.235
 4544WAT    HW213632   1.981   1.430   3.088
 4545WAT     OW13633   5.461   5.386   2.740
 4545WAT    HW113634   5.380   5.396   2.689
 4545WAT    HW213635   5.442   5.430   2.823
 4546WAT     OW13636   2.131   6.135   3.710
 4546WAT    HW113637   2.125   6.129   3.615
 4546WAT    HW213638   2.126   6.044   3.741
 4547WAT     OW13639   3.650   5.833   5.181
 4547WAT    HW113640   3.574   5.792   5.223
 4547WAT    HW213641   3.710   5.852   5.253
 4548WAT     OW13642   3.291   4.034   2.311
 4548WAT    HW113643   3.357   4.071   2.370
 4548WAT    HW213644   3.339   3.970   2.259
 4549WAT     OW13645   6.573   4.147   1.050
 4549WAT    HW113646   6.624   4.135   0.970
 4549WAT    HW213647   6.545   4.239   1.047
 4550WAT     OW13648   2.282   1.186   0.197
 4550WAT    HW113649   2.280   1.094   0.171
 4550WAT    HW213650   2.202   1.198   0.248
 4551WAT     OW13651   5.919   0.266   5.167
 4551WAT    HW113652   5.835   0.230   5.197
 4551WAT    HW213653   5.981   0.194   5.176
 4552WAT     OW13654   3.025   2.874   2.862
 4552WAT    HW113655   3.060   2.789   2.888
 4552WAT    HW213656   3.087   2.937   2.899
 4553WAT     OW13657   5.689   1.571   4.038
 4553WAT    HW113658   5.725   1.574   4.127
 4553WAT    HW213659   5.764   1.545   3.984
 4554WAT     OW13660   2.298   6.122   6.375
 4554WAT    HW113661   2.334   6.177   6.444
 4554WAT    HW213662   2.212   6.096   6.409
 4555WAT     OW13663   4.516   0.754   0.226
 4555WAT    HW113664   4.511   0.741   0.131
 4555WAT    HW213665   4.604   0.788   0.241
 4556WAT     OW13666   6.390   1.011   3.717
 4556WAT    HW113667   6.322   0.977   3.659
 4556WAT    HW213668   6.472   0.992   3.672
 4557WAT     OW13669   1.320   2.646   1.404
 4557WAT    HW113670   1.390   2.598   1.361
 4557WAT    HW213671   1.312   2.727   1.354
 4558WAT     OW13672   3.397   2.293   5.792
 4558WAT    HW113673   3.317   2.340   5.818
 4558WAT    HW213674   3.383   2.271   5.700
 4559WAT     OW13675   2.609   3.239   2.111
 4559WAT    HW113676   2.572   3.167   2.060
 4559WAT    HW213677   2.574   3.318   2.071
 4560WAT     OW13678   5.511   6.369   2.173
 4560WAT    HW113679   5.492   6.356   2.080
 4560WAT    HW213680   5.457   6.304   2.218
 4561WAT     OW13681   4.410   4.092   6.548
 4561WAT    HW113682   4.480   4.064   6.489
 4561WAT    HW213683   4.343   4.129   6.491
 4562WAT     OW13684   5.098   6.546   5.860
 4562WAT    HW113685   5.005   6.526   5.854
 4562WAT    HW213686   5.111   6.575   5.950
 4563WAT     OW13687   2.203   1.458   1.889
 4563WAT    HW113688   2.212   1.552   1.873
 4563WAT    HW213689   2.207   1.418   1.802
 4564WAT     OW13690   1.147   5.808   2.431
 4564WAT    HW113691   1.231   5.844   2.461
 4564WAT    HW213692   1.167   5.763   2.349
 4565WAT     OW13693   1.476   6.163   3.429
 4565WAT    HW113694   1.427   6.233   3.386
 4565WAT    HW213695   1.431   6.149   3.512
 4566WAT     OW13696   2.583   1.322   4.810
 4566WAT    HW113697   2.533   1.361   4.881
 4566WAT    HW213698   2.652   1.385   4.791
 4567WAT     OW13699   2.211   4.980   6.317
 4567WAT    HW113700   2.170   5.003   6.234
 4567WAT    HW213701   2.294   4.939   6.293
 4568WAT     OW13702   5.510   3.015   4.101
 4568WAT    HW113703   5.544   3.099   4.069
 4568WAT    HW213704   5.437   2.995   4.043
 4569WAT     OW13705   6.333   4.808   1.981
 4569WAT    HW113706   6.338   4.901   2.003
 4569WAT    HW213707   6.265   4.774   2.040
 4570WAT     OW13708   4.862   1.217   0.219
 4570WAT    HW113709   4.921   1.142   0.210
 4570WAT    HW213710   4.855   1.231   0.314
 4571WAT     OW13711   2.173   0.046   1.815
 4571WAT    HW113712   2.245   0.039   1.878
 4571WAT    HW213713   2.163  -0.042   1.779
 4572WAT     OW13714   3.311   3.581   3.850
 4572WAT    HW113715   3.290   3.616   3.764
 4572WAT    HW213716   3.346   3.657   3.898
 4573WAT     OW13717   6.321   0.300   1.523
 4573WAT    HW113718   6.261   0.230   1.547
 4573WAT    HW213719   6.381   0.308   1.598
 4574WAT     OW13720   4.438   1.371   4.302
 4574WAT    HW113721   4.498   1.442   4.321
 4574WAT    HW213722   4.434   1.320   4.383
 4575WAT     OW13723   0.417   1.479   0.455
 4575WAT    HW113724   0.455   1.418   0.517
 4575WAT    HW213725   0.466   1.560   0.467
 4576WAT     OW13726   3.545   6.261   2.844
 4576WAT    HW113727   3.495   6.244   2.923
 4576WAT    HW213728   3.557   6.356   2.842
 4577WAT     OW13729   2.696   1.880   3.085
 4577WAT    HW113730   2.759   1.811   3.065
 4577WAT    HW213731   2.666   1.910   2.999
 4578WAT     OW13732   5.200   5.716   5.987
 4578WAT    HW113733   5.277   5.693   6.040
 4578WAT    HW213734   5.209   5.663   5.908
 4579WAT     OW13735   6.539   4.423   1.062
 4579WAT    HW113736   6.462   4.441   1.116
 4579WAT    HW213737   6.613   4.438   1.121
 4580WAT     OW13738   1.133   1.571   5.314
 4580WAT    HW113739   1.056   1.557   5.369
 4580WAT    HW213740   1.145   1.489   5.267
 4581WAT     OW13741   6.430   6.330   3.369
 4581WAT    HW113742   6.426   6.419   3.334
 4581WAT    HW213743   6.394   6.275   3.299
 4582WAT     OW13744   5.142   4.404   3.156
 4582WAT    HW113745   5.128   4.318   3.196
 4582WAT    HW213746   5.061   4.452   3.174
 4583WAT     OW13747   1.730   0.967   3.062
 4583WAT    HW113748   1.739   0.965   3.158
 4583WAT    HW213749   1.635   0.963   3.047
 4584WAT     OW13750   5.504   0.033   4.069
 4584WAT    HW113751   5.424   0.051   4.117
 4584WAT    HW213752   5.518   0.110   4.014
 4585WAT     OW13753   4.527   5.973   1.607
 4585WAT    HW113754   4.599   5.911   1.617
 4585WAT    HW213755   4.533   6.003   1.516
 4586WAT     OW13756   5.664   5.213   2.487
 4586WAT    HW113757   5.683   5.301   2.519
 4586WAT    HW213758   5.624   5.169   2.562
 4587WAT     OW13759   4.615   2.498   3.170
 4587WAT    HW113760   4.586   2.486   3.080
 4587WAT    HW213761   4.701   2.539   3.162
 4588WAT     OW13762   3.507   0.753   3.980
 4588WAT    HW113763   3.543   0.779   3.895
 4588WAT    HW213764   3.566   0.684   4.011
 4589WAT     OW13765   0.235   2.776   0.999
 4589WAT    HW113766   0.185   2.769   0.918
 4589WAT    HW213767   0.168   2.790   1.067
 4590WAT     OW13768   6.171   4.181   3.346
 4590WAT    HW113769   6.147   4.090   3.328
 4590WAT    HW213770   6.144   4.228   3.266
 4591WAT     OW13771   5.961   4.585   1.557
 4591WAT    HW113772   5.938   4.531   1.481
 4591WAT    HW213773   5.975   4.673   1.521
 4592WAT     OW13774   1.365   1.899   4.297
 4592WAT    HW113775   1.409   1.984   4.293
 4592WAT    HW213776   1.429   1.840   4.335
 4593WAT     OW13777   4.035   6.052   0.787
 4593WAT    HW113778   4.054   6.123   0.725
 4593WAT    HW213779   3.951   6.075   0.826
 4594WAT     OW13780   3.726   0.957   1.767
 4594WAT    HW113781   3.754   0.970   1.677
 4594WAT    HW213782   3.808   0.944   1.816
 4595WAT     OW13783   1.151   4.504   1.732
 4595WAT    HW113784   1.150   4.493   1.827
 4595WAT    HW213785   1.060   4.495   1.705
 4596WAT     OW13786   5.817   1.450   4.529
 4596WAT    HW113787   5.890   1.497   4.568
 4596WAT    HW213788   5.830   1.359   4.556
 4597WAT     OW13789   0.186   6.647   4.896
 4597WAT    HW113790   0.215   6.601   4.975
 4597WAT    HW213791   0.195   6.583   4.826
 4598WAT     OW13792   6.125   5.359   0.834
 4598WAT    HW113793   6.172   5.323   0.908
 4598WAT    HW213794   6.132   5.292   0.766
 4599WAT     OW13795   5.458   1.169   3.722
 4599WAT    HW113796   5.472   1.202   3.633
 4599WAT    HW213797   5.421   1.243   3.770
 4600WAT     OW13798   0.161   2.023   3.866
 4600WAT    HW113799   0.124   2.027   3.778
 4600WAT    HW213800   0.158   1.930   3.889
 4601WAT     OW13801   2.191   1.821   3.827
 4601WAT    HW113802   2.239   1.881   3.883
 4601WAT    HW213803   2.247   1.809   3.750
 4602WAT     OW13804   3.492   0.632   2.349
 4602WAT    HW113805   3.450   0.650   2.433
 4602WAT    HW213806   3.579   0.672   2.356
 4603WAT     OW13807   5.841   2.210   5.171
 4603WAT    HW113808   5.931   2.178   5.180
 4603WAT    HW213809   5.844   2.299   5.206
 4604WAT     OW13810   3.328   4.885   6.513
 4604WAT    HW113811   3.281   4.965   6.488
 4604WAT    HW213812   3.265   4.814   6.497
 4605WAT     OW13813   2.704   4.730   1.793
 4605WAT    HW113814   2.662   4.723   1.707
 4605WAT    HW213815   2.734   4.641   1.812
 4606WAT     OW13816   2.049   4.548   2.184
 4606WAT    HW113817   2.127   4.533   2.130
 4606WAT    HW213818   1.980   4.498   2.141
 4607WAT     OW13819   6.226   1.114   1.758
 4607WAT    HW113820   6.194   1.137   1.845
 4607WAT    HW213821   6.148   1.109   1.703
 4608WAT     OW13822   4.383   1.891   5.710
 4608WAT    HW113823   4.318   1.869   5.644
 4608WAT    HW213824   4.391   1.812   5.763
 4609WAT     OW13825   1.926   5.273   1.937
 4609WAT    HW113826   1.861   5.205   1.919
 4609WAT    HW213827   2.003   5.247   1.888
 4610WAT     OW13828   4.802   1.258   6.683
 4610WAT    HW113829   4.848   1.186   6.640
 4610WAT    HW213830   4.824   1.249   6.776
 4611WAT     OW13831   2.732   6.322   0.164
 4611WAT    HW113832   2.694   6.242   0.128
 4611WAT    HW213833   2.657   6.378   0.183
 4612WAT     OW13834   3.558   3.543   1.669
 4612WAT    HW113835   3.557   3.474   1.602
 4612WAT    HW213836   3.565   3.624   1.619
 4613WAT     OW13837   3.399   5.998   5.352
 4613WAT    HW113838   3.339   6.045   5.411
 4613WAT    HW213839   3.484   6.037   5.369
 4614WAT     OW13840   3.550   6.174   6.170
 4614WAT    HW113841   3.487   6.230   6.125
 4614WAT    HW213842   3.544   6.199   6.262
 4615WAT     OW13843   4.908   5.185   6.226
 4615WAT    HW113844   4.916   5.089   6.226
 4615WAT    HW213845   4.889   5.207   6.317
 4616WAT     OW13846   3.750   5.192   0.392
 4616WAT    HW113847   3.703   5.275   0.403
 4616WAT    HW213848   3.842   5.216   0.401
 4617WAT     OW13849   6.694   2.990   3.485
 4617WAT    HW113850   6.693   2.918   3.548
 4617WAT    HW213851   6.672   2.949   3.402
 4618WAT     OW13852   4.881   1.209   0.487
 4618WAT    HW113853   4.956   1.245   0.536
 4618WAT    HW213854   4.805   1.232   0.540
 4619WAT     OW13855   0.851   2.348   3.238
 4619WAT    HW113856   0.766   2.344   3.283
 4619WAT    HW213857   0.854   2.269   3.185
 4620WAT     OW13858   0.864   5.076   0.014
 4620WAT    HW113859   0.872   5.105  -0.077
 4620WAT    HW213860   0.881   4.982   0.011
 4621WAT     OW13861   5.162   5.798   0.071
 4621WAT    HW113862   5.178   5.885   0.105
 4621WAT    HW213863   5.067   5.792   0.064
 4622WAT     OW13864   4.378   5.275   3.750
 4622WAT    HW113865   4.371   5.355   3.801
 4622WAT    HW213866   4.472   5.262   3.738
 4623WAT     OW13867   3.997   6.050   5.604
 4623WAT    HW113868   3.938   6.111   5.648
 4623WAT    HW213869   4.007   6.086   5.516
 4624WAT     OW13870   2.434   0.147   3.982
 4624WAT    HW113871   2.409   0.131   3.891
 4624WAT    HW213872   2.352   0.141   4.031
 4625WAT     OW13873   2.551   5.207   2.185
 4625WAT    HW113874   2.466   5.217   2.142
 4625WAT    HW213875   2.612   5.254   2.128
 4626WAT     OW13876   2.586   5.767   2.041
 4626WAT    HW113877   2.508   5.816   2.015
 4626WAT    HW213878   2.555   5.679   2.058
 4627WAT     OW13879   5.725   5.662   0.440
 4627WAT    HW113880   5.778   5.659   0.519
 4627WAT    HW213881   5.764   5.597   0.382
 4628WAT     OW13882   1.310   6.425   2.739
 4628WAT    HW113883   1.269   6.459   2.660
 4628WAT    HW213884   1.395   6.468   2.743
 4629WAT     OW13885   4.083   3.048   5.936
 4629WAT    HW113886   4.175   3.067   5.918
 4629WAT    HW213887   4.083   3.021   6.028
 4630WAT     OW13888   4.383   0.596   5.982
 4630WAT    HW113889   4.432   0.524   5.942
 4630WAT    HW213890   4.408   0.673   5.930
 4631WAT     OW13891   5.992   6.078   0.306
 4631WAT    HW113892   5.915   6.031   0.340
 4631WAT    HW213893   6.002   6.153   0.365
 4632WAT     OW13894   3.723   0.883   4.223
 4632WAT    HW113895   3.756   0.956   4.275
 4632WAT    HW213896   3.747   0.905   4.133
 4633WAT     OW13897   0.903   3.461   4.108
 4633WAT    HW113898   0.811   3.487   4.119
 4633WAT    HW213899   0.903   3.366   4.123
 4634WAT     OW13900   4.265   5.759   5.422
 4634WAT    HW113901   4.311   5.783   5.503
 4634WAT    HW213902   4.330   5.772   5.353
 4635WAT     OW13903   4.913   1.495   0.227
 4635WAT    HW113904   4.879   1.522   0.141
 4635WAT    HW213905   4.909   1.400   0.225
 4636WAT     OW13906   0.175   6.455   4.179
 4636WAT    HW113907   0.254   6.480   4.227
 4636WAT    HW213908   0.104   6.465   4.242
 4637WAT     OW13909   5.425   3.200   6.326
 4637WAT    HW113910   5.404   3.188   6.419
 4637WAT    HW213911   5.505   3.252   6.326
 4638WAT     OW13912   3.314   0.341   3.969
 4638WAT    HW113913   3.307   0.436   3.972
 4638WAT    HW213914   3.407   0.324   3.987
 4639WAT     OW13915   6.530   4.192   5.141
 4639WAT    HW113916   6.493   4.227   5.222
 4639WAT    HW213917   6.489   4.105   5.132
 4640WAT     OW13918   5.156   6.227   4.566
 4640WAT    HW113919   5.135   6.141   4.600
 4640WAT    HW213920   5.188   6.211   4.477
 4641WAT     OW13921   0.002   3.487   0.169
 4641WAT    HW113922   0.073   3.503   0.107
 4641WAT    HW213923   0.018   3.398   0.201
 4642WAT     OW13924   0.688   0.874   0.252
 4642WAT    HW113925   0.626   0.941   0.224
 4642WAT    HW213926   0.648   0.791   0.226
 4643WAT     OW13927   4.065   3.065   2.216
 4643WAT    HW113928   4.014   2.990   2.185
 4643WAT    HW213929   4.155   3.033   2.219
 4644WAT     OW13930   2.986   5.268   2.805
 4644WAT    HW113931   2.947   5.270   2.893
 4644WAT    HW213932   2.989   5.360   2.778
 4645WAT     OW13933   4.637   5.149   2.901
 4645WAT    HW113934   4.608   5.153   2.809
 4645WAT    HW213935   4.653   5.240   2.924
 4646WAT     OW13936   1.866   4.090   2.586
 4646WAT    HW113937   1.922   4.046   2.522
 4646WAT    HW213938   1.836   4.169   2.541
 4647WAT     OW13939   5.729   2.768   5.484
 4647WAT    HW113940   5.780   2.760   5.403
 4647WAT    HW213941   5.794   2.772   5.553
 4648WAT     OW13942   3.385   2.277   4.383
 4648WAT    HW113943   3.397   2.362   4.341
 4648WAT    HW213944   3.353   2.220   4.312
 4649WAT     OW13945   0.402   6.135   2.101
 4649WAT    HW113946   0.342   6.062   2.117
 4649WAT    HW213947   0.391   6.192   2.177
 4650WAT     OW13948   6.232   0.464   3.572
 4650WAT    HW113949   6.254   0.539   3.628
 4650WAT    HW213950   6.262   0.489   3.485
 4651WAT     OW13951   3.569   3.165   5.292
 4651WAT    HW113952   3.624   3.187   5.217
 4651WAT    HW213953   3.611   3.208   5.367
 4652WAT     OW13954   5.328   5.204   3.147
 4652WAT    HW113955   5.358   5.289   3.179
 4652WAT    HW213956   5.321   5.150   3.225
 4653WAT     OW13957   4.344   6.522   2.071
 4653WAT    HW113958   4.312   6.443   2.028
 4653WAT    HW213959   4.362   6.583   2.000
 4654WAT     OW13960   4.066   4.875   1.160
 4654WAT    HW113961   4.040   4.923   1.082
 4654WAT    HW213962   4.043   4.933   1.233
 4655WAT     OW13963   6.616   1.393   4.691
 4655WAT    HW113964   6.684   1.452   4.725
 4655WAT    HW213965   6.542   1.406   4.750
 4656WAT     OW13966   1.151   0.994   1.651
 4656WAT    HW113967   1.157   1.020   1.743
 4656WAT    HW213968   1.189   1.067   1.602
 4657WAT     OW13969   5.421   4.694   3.717
 4657WAT    HW113970   5.392   4.617   3.765
 4657WAT    HW213971   5.392   4.679   3.627
 4658WAT     OW13972   3.894   2.220   6.426
 4658WAT    HW113973   3.921   2.246   6.338
 4658WAT    HW213974   3.816   2.272   6.443
 4659WAT     OW13975   2.053   5.594   0.646
 4659WAT    HW113976   2.073   5.503   0.623
 4659WAT    HW213977   2.138   5.635   0.660
 4660WAT     OW13978   5.894   2.170   4.365
 4660WAT    HW113979   5.989   2.178   4.365
 4660WAT    HW213980   5.870   2.166   4.458
 4661WAT     OW13981   5.944   5.396   5.894
 4661WAT    HW113982   6.019   5.352   5.855
 4661WAT    HW213983   5.979   5.479   5.926
 4662WAT     OW13984   2.153   1.143   2.045
 4662WAT    HW113985   2.137   1.233   2.074
 4662WAT    HW213986   2.242   1.144   2.011
 4663WAT     OW13987   2.100   4.386   2.625
 4663WAT    HW113988   2.081   4.311   2.681
 4663WAT    HW213989   2.091   4.352   2.535
 4664WAT     OW13990   1.113   6.547   6.530
 4664WAT    HW113991   1.034   6.586   6.567
 4664WAT    HW213992   1.155   6.503   6.604
 4665WAT     OW13993   4.944   6.349   1.875
 4665WAT    HW113994   4.859   6.351   1.919
 4665WAT    HW213995   4.940   6.421   1.812
 4666WAT     OW13996   4.762   5.462   6.411
 4666WAT    HW113997   4.686   5.439   6.465
 4666WAT    HW213998   4.827   5.394   6.432
 4667WAT     OW13999   4.200   0.052   0.141
 4667WAT    HW114000   4.115   0.033   0.181
 4667WAT    HW214001   4.180   0.077   0.051
 4668WAT     OW14002   5.152   0.941   4.246
 4668WAT    HW114003   5.089   0.941   4.318
 4668WAT    HW214004   5.213   1.011   4.267
 4669WAT     OW14005   1.844   6.229   4.548
 4669WAT    HW114006   1.930   6.234   4.590
 4669WAT    HW214007   1.782   6.252   4.617
 4670WAT     OW14008   0.420   0.950   1.413
 4670WAT    HW114009   0.407   0.869   1.464
 4670WAT    HW214010   0.429   1.018   1.479
 4671WAT     OW14011   1.053   3.847   1.961
 4671WAT    HW114012   0.991   3.839   2.034
 4671WAT    HW214013   1.121   3.907   1.993
 4672WAT     OW14014   1.656   4.107   1.538
 4672WAT    HW114015   1.640   4.066   1.623
 4672WAT    HW214016   1.588   4.071   1.481
 4673WAT     OW14017   5.212   4.904   3.999
 4673WAT    HW114018   5.135   4.948   4.035
 4673WAT    HW214019   5.178   4.825   3.959
 4674WAT     OW14020   1.633   3.764   3.918
 4674WAT    HW114021   1.710   3.713   3.893
 4674WAT    HW214022   1.626   3.750   4.013
 4675WAT     OW14023   6.511   4.503   2.167
 4675WAT    HW114024   6.555   4.557   2.102
 4675WAT    HW214025   6.468   4.565   2.225
 4676WAT     OW14026   6.059   5.635   5.969
 4676WAT    HW114027   6.107   5.654   5.888
 4676WAT    HW214028   6.024   5.720   5.997
 4677WAT     OW14029   2.502   2.014   4.787
 4677WAT    HW114030   2.461   2.023   4.873
 4677WAT    HW214031   2.449   2.067   4.728
 4678WAT     OW14032   4.329   1.415   0.651
 4678WAT    HW114033   4.352   1.325   0.674
 4678WAT    HW214034   4.397   1.442   0.589
 4679WAT     OW14035   6.191   2.319   4.766
 4679WAT    HW114036   6.164   2.228   4.754
 4679WAT    HW214037   6.137   2.369   4.705
 4680WAT     OW14038   5.444   2.633   3.053
 4680WAT    HW114039   5.351   2.646   3.031
 4680WAT    HW214040   5.443   2.566   3.122
 4681WAT     OW14041   2.796   2.196   4.390
 4681WAT    HW114042   2.786   2.110   4.432
 4681WAT    HW214043   2.880   2.190   4.345
 4682WAT     OW14044   2.760   0.711   3.726
 4682WAT    HW114045   2.819   0.782   3.702
 4682WAT    HW214046   2.779   0.694   3.818
 4683WAT     OW14047   4.345   1.986   6.648
 4683WAT    HW114048   4.331   2.081   6.650
 4683WAT    HW214049   4.392   1.967   6.729
 4684WAT     OW14050   3.656   2.922   0.838
 4684WAT    HW114051   3.624   3.007   0.869
 4684WAT    HW214052   3.702   2.943   0.757
 4685WAT     OW14053   3.109   1.220   5.970
 4685WAT    HW114054   3.107   1.254   5.881
 4685WAT    HW214055   3.067   1.289   6.023
 4686WAT     OW14056   0.899   6.697   2.891
 4686WAT    HW114057   0.937   6.641   2.960
 4686WAT    HW214058   0.823   6.648   2.860
 4687WAT     OW14059   6.665   5.332   0.107
 4687WAT    HW114060   6.683   5.380   0.188
 4687WAT    HW214061   6.570   5.333   0.099
 4688WAT     OW14062   1.114   1.857   5.629
 4688WAT    HW114063   1.185   1.808   5.670
 4688WAT    HW214064   1.107   1.938   5.679
 4689WAT     OW14065   3.069   0.638   6.127
 4689WAT    HW114066   3.064   0.545   6.105
 4689WAT    HW214067   2.983   0.658   6.165
 4690WAT     OW14068   4.386   1.167   1.915
 4690WAT    HW114069   4.457   1.187   1.854
 4690WAT    HW214070   4.416   1.200   2.000
 4691WAT     OW14071   3.533   6.042   0.923
 4691WAT    HW114072   3.454   6.089   0.948
 4691WAT    HW214073   3.509   5.949   0.929
 4692WAT     OW14074   2.562   4.196   0.498
 4692WAT    HW114075   2.519   4.113   0.521
 4692WAT    HW214076   2.501   4.264   0.525
 4693WAT     OW14077   5.531   3.073   2.899
 4693WAT    HW114078   5.539   3.004   2.966
 4693WAT    HW214079   5.622   3.097   2.879
 4694WAT     OW14080   3.697   1.250   0.263
 4694WAT    HW114081   3.722   1.306   0.189
 4694WAT    HW214082   3.631   1.191   0.226
 4695WAT     OW14083   4.257   1.534   1.652
 4695WAT    HW114084   4.284   1.539   1.560
 4695WAT    HW214085   4.339   1.523   1.700
 4696WAT     OW14086   2.547   4.369   2.499
 4696WAT    HW114087   2.476   4.419   2.540
 4696WAT    HW214088   2.617   4.434   2.485
 4697WAT     OW14089   5.594   4.334   2.124
 4697WAT    HW114090   5.544   4.279   2.184
 4697WAT    HW214091   5.628   4.404   2.180
 4698WAT     OW14092   0.572   3.948   5.776
 4698WAT    HW114093   0.633   3.960   5.704
 4698WAT    HW214094   0.625   3.915   5.848
 4699WAT     OW14095   5.475   3.369   5.225
 4699WAT    HW114096   5.551   3.424   5.240
 4699WAT    HW214097   5.438   3.399   5.142
 4700WAT     OW14098   2.636   0.077   4.165
 4700WAT    HW114099   2.705   0.034   4.115
 4700WAT    HW214100   2.565   0.090   4.102
 4701WAT     OW14101   4.634   1.264   0.595
 4701WAT    HW114102   4.598   1.344   0.557
 4701WAT    HW214103   4.581   1.194   0.557
 4702WAT     OW14104   4.936   3.627   6.280
 4702WAT    HW114105   4.893   3.708   6.308
 4702WAT    HW214106   4.987   3.652   6.203
 4703WAT     OW14107   2.204   4.279   3.643
 4703WAT    HW114108   2.174   4.212   3.705
 4703WAT    HW214109   2.279   4.320   3.686
 4704WAT     OW14110   2.064   4.322   4.767
 4704WAT    HW114111   2.151   4.361   4.760
 4704WAT    HW214112   2.071   4.260   4.839
 4705WAT     OW14113   6.209   6.048   0.599
 4705WAT    HW114114   6.252   5.987   0.660
 4705WAT    HW214115   6.180   6.121   0.655
 4706WAT     OW14116   3.306   0.051   4.717
 4706WAT    HW114117   3.332  -0.039   4.699
 4706WAT    HW214118   3.316   0.097   4.634
 4707WAT     OW14119   0.260   4.993   2.918
 4707WAT    HW114120   0.216   5.070   2.954
 4707WAT    HW214121   0.338   4.981   2.973
 4708WAT     OW14122   5.504   0.435   5.825
 4708WAT    HW114123   5.560   0.357   5.831
 4708WAT    HW214124   5.548   0.490   5.760
 4709WAT     OW14125   3.404   2.794   6.296
 4709WAT    HW114126   3.368   2.842   6.221
 4709WAT    HW214127   3.423   2.707   6.262
 4710WAT     OW14128   3.306   6.704   0.298
 4710WAT    HW114129   3.298   6.623   0.247
 4710WAT    HW214130   3.346   6.676   0.381
 4711WAT     OW14131   2.202   2.393   6.668
 4711WAT    HW114132   2.126   2.390   6.610
 4711WAT    HW214133   2.276   2.411   6.610
 4712WAT     OW14134   5.975   5.890   6.058
 4712WAT    HW114135   5.960   5.962   5.997
 4712WAT    HW214136   5.900   5.892   6.117
 4713WAT     OW14137   2.744   5.872   2.235
 4713WAT    HW114138   2.679   5.844   2.171
 4713WAT    HW214139   2.782   5.791   2.269
 4714WAT     OW14140   0.424   3.124   1.175
 4714WAT    HW114141   0.485   3.069   1.126
 4714WAT    HW214142   0.353   3.142   1.114
 4715WAT     OW14143   5.857   2.295   3.341
 4715WAT    HW114144   5.917   2.365   3.369
 4715WAT    HW214145   5.811   2.333   3.266
 4716WAT     OW14146   5.776   0.448   0.111
 4716WAT    HW114147   5.747   0.375   0.056
 4716WAT    HW214148   5.853   0.414   0.157
 4717WAT     OW14149   3.598   3.168   6.411
 4717WAT    HW114150   3.545   3.236   6.369
 4717WAT    HW214151   3.687   3.186   6.383
 4718WAT     OW14152   5.370   2.230   2.744
 4718WAT    HW114153   5.413   2.268   2.667
 4718WAT    HW214154   5.392   2.137   2.740
 4719WAT     OW14155   3.142   2.072   3.865
 4719WAT    HW114156   3.161   1.980   3.851
 4719WAT    HW214157   3.073   2.073   3.932
 4720WAT     OW14158   4.508   5.583   2.363
 4720WAT    HW114159   4.474   5.630   2.439
 4720WAT    HW214160   4.434   5.578   2.303
 4721WAT     OW14161   2.936   4.979   0.292
 4721WAT    HW114162   2.909   4.981   0.200
 4721WAT    HW214163   3.027   4.950   0.289
 4722WAT     OW14164   2.686   1.503   3.630
 4722WAT    HW114165   2.724   1.495   3.718
 4722WAT    HW214166   2.595   1.474   3.641
 4723WAT     OW14167   2.567   1.301   1.816
 4723WAT    HW114168   2.536   1.387   1.788
 4723WAT    HW214169   2.609   1.265   1.737
 4724WAT     OW14170   4.632   1.649   6.468
 4724WAT    HW114171   4.659   1.739   6.487
 4724WAT    HW214172   4.556   1.659   6.410
 4725WAT     OW14173   3.726   0.176   0.921
 4725WAT    HW114174   3.637   0.191   0.891
 4725WAT    HW214175   3.768   0.128   0.850
 4726WAT     OW14176   2.004   0.163   2.763
 4726WAT    HW114177   1.971   0.103   2.696
 4726WAT    HW214178   2.032   0.240   2.714
 4727WAT     OW14179   3.222   1.902   6.097
 4727WAT    HW114180   3.203   1.935   6.009
 4727WAT    HW214181   3.200   1.974   6.156
 4728WAT     OW14182   6.233   5.207   5.347
 4728WAT    HW114183   6.287   5.219   5.270
 4728WAT    HW214184   6.250   5.117   5.375
 4729WAT     OW14185   1.895   4.435   0.594
 4729WAT    HW114186   1.854   4.349   0.603
 4729WAT    HW214187   1.982   4.425   0.630
 4730WAT     OW14188   4.029   1.925   1.813
 4730WAT    HW114189   4.089   1.963   1.749
 4730WAT    HW214190   4.045   1.831   1.809
 4731WAT     OW14191   4.319   2.257   6.665
 4731WAT    HW114192   4.333   2.300   6.749
 4731WAT    HW214193   4.224   2.263   6.650
 4732WAT     OW14194   3.628   2.728   6.040
 4732WAT    HW114195   3.629   2.804   5.982
 4732WAT    HW214196   3.720   2.709   6.057
 4733WAT     OW14197   0.087   1.185   5.474
 4733WAT    HW114198   0.182   1.194   5.476
 4733WAT    HW214199   0.067   1.120   5.541
 4734WAT     OW14200   3.527   4.852   0.565
 4734WAT    HW114201   3.500   4.882   0.479
 4734WAT    HW214202   3.457   4.794   0.594
 4735WAT     OW14203   4.187   3.212   6.665
 4735WAT    HW114204   4.190   3.187   6.573
 4735WAT    HW214205   4.199   3.129   6.712
 4736WAT     OW14206   4.651   2.754   2.011
 4736WAT    HW114207   4.719   2.797   2.064
 4736WAT    HW214208   4.697   2.725   1.932
 4737WAT     OW14209   4.720   1.701   5.714
 4737WAT    HW114210   4.712   1.706   5.809
 4737WAT    HW214211   4.723   1.792   5.686
 4738WAT     OW14212   4.684   5.550   1.435
 4738WAT    HW114213   4.677   5.554   1.340
 4738WAT    HW214214   4.672   5.457   1.456
 4739WAT     OW14215   0.763   2.377   2.595
 4739WAT    HW114216   0.733   2.467   2.579
 4739WAT    HW214217   0.790   2.377   2.686
 4740WAT     OW14218   1.120   3.188   4.514
 4740WAT    HW114219   1.162   3.271   4.491
 4740WAT    HW214220   1.048   3.212   4.571
 4741WAT     OW14221   0.272   4.748   0.422
 4741WAT    HW114222   0.182   4.718   0.436
 4741WAT    HW214223   0.313   4.679   0.370
 4742WAT     OW14224   4.568   1.936   3.859
 4742WAT    HW114225   4.500   1.896   3.804
 4742WAT    HW214226   4.520   1.993   3.919
 4743WAT     OW14227   1.716   1.566   3.018
 4743WAT    HW114228   1.688   1.626   2.949
 4743WAT    HW214229   1.805   1.540   2.994
 4744WAT     OW14230   6.400   5.781   3.932
 4744WAT    HW114231   6.407   5.842   4.006
 4744WAT    HW214232   6.351   5.707   3.968
 4745WAT     OW14233   0.383   2.720   2.716
 4745WAT    HW114234   0.422   2.785   2.657
 4745WAT    HW214235   0.456   2.689   2.769
 4746WAT     OW14236   3.147   3.312   3.428
 4746WAT    HW114237   3.169   3.219   3.422
 4746WAT    HW214238   3.087   3.318   3.503
 4747WAT     OW14239   0.420   4.585   0.753
 4747WAT    HW114240   0.498   4.574   0.807
 4747WAT    HW214241   0.432   4.670   0.711
 4748WAT     OW14242   2.561   3.905   6.390
 4748WAT    HW114243   2.566   3.827   6.336
 4748WAT    HW214244   2.636   3.899   6.448
 4749WAT     OW14245   3.498   4.606   3.581
 4749WAT    HW114246   3.560   4.575   3.515
 4749WAT    HW214247   3.422   4.549   3.571
 4750WAT     OW14248   2.704   0.207   2.645
 4750WAT    HW114249   2.700   0.191   2.550
 4750WAT    HW214250   2.620   0.247   2.666
 4751WAT     OW14251   3.031   2.378   1.203
 4751WAT    HW114252   2.980   2.331   1.137
 4751WAT    HW214253   3.122   2.368   1.174
 4752WAT     OW14254   0.457   2.335   5.405
 4752WAT    HW114255   0.530   2.397   5.411
 4752WAT    HW214256   0.446   2.321   5.311
 4753WAT     OW14257   5.691   4.211   0.669
 4753WAT    HW114258   5.768   4.267   0.658
 4753WAT    HW214259   5.726   4.123   0.674
 4754WAT     OW14260   3.801   1.107   4.355
 4754WAT    HW114261   3.895   1.087   4.363
 4754WAT    HW214262   3.798   1.193   4.314
 4755WAT     OW14263   0.262   4.096   1.471
 4755WAT    HW114264   0.207   4.042   1.414
 4755WAT    HW214265   0.323   4.140   1.412
 4756WAT     OW14266   4.125   1.364   6.157
 4756WAT    HW114267   4.216   1.334   6.159
 4756WAT    HW214268   4.131   1.459   6.166
 4757WAT     OW14269   0.411   3.954   1.058
 4757WAT    HW114270   0.316   3.963   1.044
 4757WAT    HW214271   0.419   3.925   1.149
 4758WAT     OW14272   0.257   3.595   3.421
 4758WAT    HW114273   0.334   3.602   3.365
 4758WAT    HW214274   0.292   3.585   3.509
 4759WAT     OW14275   6.271   2.196   6.507
 4759WAT    HW114276   6.197   2.240   6.548
 4759WAT    HW214277   6.243   2.181   6.416
 4760WAT     OW14278   2.732   6.694   2.088
 4760WAT    HW114279   2.764   6.668   2.174
 4760WAT    HW214280   2.690   6.616   2.052
 4761WAT     OW14281   3.116   1.476   0.795
 4761WAT    HW114282   3.200   1.489   0.838
 4761WAT    HW214283   3.093   1.385   0.814
 4762WAT     OW14284   4.999   0.444   0.897
 4762WAT    HW114285   5.039   0.478   0.816
 4762WAT    HW214286   5.074   0.421   0.952
 4763WAT     OW14287   0.779   0.300   0.188
 4763WAT    HW114288   0.833   0.378   0.176
 4763WAT    HW214289   0.692   0.325   0.159
 4764WAT     OW14290   4.063   3.543   5.598
 4764WAT    HW114291   4.016   3.464   5.569
 4764WAT    HW214292   4.154   3.516   5.605
 4765WAT     OW14293   6.538   5.447   2.515
 4765WAT    HW114294   6.461   5.403   2.551
 4765WAT    HW214295   6.567   5.506   2.585
 4766WAT     OW14296   1.350   4.759   3.881
 4766WAT    HW114297   1.443   4.739   3.874
 4766WAT    HW214298   1.315   4.692   3.940
 4767WAT     OW14299   0.699   4.508   3.419
 4767WAT    HW114300   0.759   4.511   3.494
 4767WAT    HW214301   0.619   4.469   3.454
 4768WAT     OW14302   0.842   0.449   5.180
 4768WAT    HW114303   0.850   0.539   5.150
 4768WAT    HW214304   0.891   0.447   5.262
 4769WAT     OW14305   1.815   3.447   0.043
 4769WAT    HW114306   1.760   3.486   0.112
 4769WAT    HW214307   1.904   3.470   0.069
 4770WAT     OW14308   0.472   4.397   4.582
 4770WAT    HW114309   0.535   4.459   4.546
 4770WAT    HW214310   0.405   4.389   4.513
 4771WAT     OW14311   2.648   1.112   1.033
 4771WAT    HW114312   2.572   1.151   1.075
 4771WAT    HW214313   2.613   1.037   0.984
 4772WAT     OW14314   2.387   4.225   4.555
 4772WAT    HW114315   2.345   4.142   4.575
 4772WAT    HW214316   2.358   4.247   4.466
 4773WAT     OW14317   3.950   5.557   5.156
 4773WAT    HW114318   3.978   5.486   5.214
 4773WAT    HW214319   3.982   5.636   5.199
 4774WAT     OW14320   6.512   1.470   0.709
 4774WAT    HW114321   6.581   1.406   0.692
 4774WAT    HW214322   6.558   1.553   0.715
 4775WAT     OW14323   4.595   2.276   3.798
 4775WAT    HW114324   4.505   2.249   3.780
 4775WAT    HW214325   4.649   2.216   3.746
 4776WAT     OW14326   2.859   5.916   2.586
 4776WAT    HW114327   2.874   5.928   2.680
 4776WAT    HW214328   2.947   5.914   2.548
 4777WAT     OW14329   3.354   5.347   1.709
 4777WAT    HW114330   3.339   5.257   1.681
 4777WAT    HW214331   3.268   5.380   1.732
 4778WAT     OW14332   5.280   2.985   1.149
 4778WAT    HW114333   5.367   2.983   1.189
 4778WAT    HW214334   5.279   2.911   1.089
 4779WAT     OW14335   3.037   0.972   6.062
 4779WAT    HW114336   3.070   1.058   6.035
 4779WAT    HW214337   3.103   0.910   6.032
 4780WAT     OW14338   5.325   5.764   3.575
 4780WAT    HW114339   5.270   5.691   3.605
 4780WAT    HW214340   5.414   5.735   3.595
 4781WAT     OW14341   1.265   0.099   5.328
 4781WAT    HW114342   1.289   0.121   5.238
 4781WAT    HW214343   1.210   0.021   5.320
 4782WAT     OW14344   5.307   0.774   4.800
 4782WAT    HW114345   5.241   0.708   4.819
 4782WAT    HW214346   5.358   0.736   4.727
 4783WAT     OW14347   2.261   2.065   2.311
 4783WAT    HW114348   2.214   2.006   2.370
 4783WAT    HW214349   2.304   2.128   2.369
 4784WAT     OW14350   2.048   3.097   4.576
 4784WAT    HW114351   2.036   3.014   4.623
 4784WAT    HW214352   2.122   3.139   4.620
 4785WAT     OW14353   0.944   0.828   5.332
 4785WAT    HW114354   0.862   0.845   5.377
 4785WAT    HW214355   1.002   0.793   5.400
 4786WAT     OW14356   5.684   0.408   4.276
 4786WAT    HW114357   5.680   0.476   4.344
 4786WAT    HW214358   5.674   0.455   4.194
 4787WAT     OW14359   4.428   1.700   6.284
 4787WAT    HW114360   4.405   1.790   6.307
 4787WAT    HW214361   4.346   1.662   6.252
 4788WAT     OW14362   1.066   2.542   1.410
 4788WAT    HW114363   1.086   2.462   1.362
 4788WAT    HW214364   1.150   2.585   1.423
 4789WAT     OW14365   0.119   6.197   0.415
 4789WAT    HW114366   0.133   6.147   0.495
 4789WAT    HW214367   0.205   6.207   0.376
 4790WAT     OW14368   1.875   1.378   0.158
 4790WAT    HW114369   1.825   1.299   0.135
 4790WAT    HW214370   1.869   1.433   0.080
 4791WAT     OW14371   0.566   2.051   1.327
 4791WAT    HW114372   0.611   2.109   1.388
 4791WAT    HW214373   0.543   1.974   1.380
 4792WAT     OW14374   1.232   2.774   0.980
 4792WAT    HW114375   1.179   2.698   1.006
 4792WAT    HW214376   1.322   2.741   0.979
 4793WAT     OW14377   2.902   5.274   3.069
 4793WAT    HW114378   2.865   5.271   3.157
 4793WAT    HW214379   2.953   5.355   3.067
 4794WAT     OW14380   6.088   3.718   0.861
 4794WAT    HW114381   6.092   3.643   0.920
 4794WAT    HW214382   6.022   3.694   0.796
 4795WAT     OW14383   4.490   5.173   5.957
 4795WAT    HW114384   4.414   5.139   6.004
 4795WAT    HW214385   4.493   5.266   5.979
 4796WAT     OW14386   4.569   3.337   6.596
 4796WAT    HW114387   4.495   3.388   6.628
 4796WAT    HW214388   4.532   3.251   6.574
 4797WAT     OW14389   4.314   0.831   6.323
 4797WAT    HW114390   4.371   0.761   6.292
 4797WAT    HW214391   4.360   0.868   6.398
 4798WAT     OW14392   6.459   6.614   5.953
 4798WAT    HW114393   6.455   6.682   5.886
 4798WAT    HW214394   6.546   6.624   5.992
 4799WAT     OW14395   6.216   0.051   0.229
 4799WAT    HW114396   6.207  -0.043   0.240
 4799WAT    HW214397   6.128   0.086   0.244
 4800WAT     OW14398   1.123   6.666   0.204
 4800WAT    HW114399   1.084   6.742   0.161
 4800WAT    HW214400   1.072   6.655   0.284
 4801WAT     OW14401   3.030   0.772   2.241
 4801WAT    HW114402   3.028   0.680   2.270
 4801WAT    HW214403   2.975   0.818   2.303
 4802WAT     OW14404   5.211   0.245   2.193
 4802WAT    HW114405   5.134   0.188   2.195
 4802WAT    HW214406   5.195   0.308   2.263
 4803WAT     OW14407   3.847   2.815   0.265
 4803WAT    HW114408   3.920   2.811   0.327
 4803WAT    HW214409   3.783   2.754   0.299
 4804WAT     OW14410   3.865   0.060   1.981
 4804WAT    HW114411   3.789   0.011   2.015
 4804WAT    HW214412   3.927  -0.008   1.954
 4805WAT     OW14413   6.699   2.080   6.677
 4805WAT    HW114414   6.632   2.065   6.610
 4805WAT    HW214415   6.744   1.996   6.685
 4806WAT     OW14416   0.120   4.788   5.228
 4806WAT    HW114417   0.191   4.799   5.291
 4806WAT    HW214418   0.118   4.871   5.180
 4807WAT     OW14419   6.430   1.436   4.887
 4807WAT    HW114420   6.435   1.514   4.942
 4807WAT    HW214421   6.445   1.363   4.947
 4808WAT     OW14422   4.573   1.239   6.542
 4808WAT    HW114423   4.650   1.253   6.598
 4808WAT    HW214424   4.505   1.209   6.603
 4809WAT     OW14425   4.557   6.681   3.189
 4809WAT    HW114426   4.606   6.633   3.122
 4809WAT    HW214427   4.466   6.653   3.177
 4810WAT     OW14428   0.956   6.181   6.153
 4810WAT    HW114429   0.981   6.252   6.212
 4810WAT    HW214430   0.862   6.196   6.137
 4811WAT     OW14431   5.477   5.242   1.396
 4811WAT    HW114432   5.559   5.261   1.351
 4811WAT    HW214433   5.488   5.281   1.483
 4812WAT     OW14434   5.771   5.586   6.642
 4812WAT    HW114435   5.775   5.616   6.551
 4812WAT    HW214436   5.729   5.500   6.637
 4813WAT     OW14437   0.533   2.232   2.567
 4813WAT    HW114438   0.623   2.263   2.574
 4813WAT    HW214439   0.480   2.311   2.576
 4814WAT     OW14440   1.799   0.416   2.631
 4814WAT    HW114441   1.781   0.480   2.562
 4814WAT    HW214442   1.895   0.419   2.642
 4815WAT     OW14443   4.419   5.619   4.147
 4815WAT    HW114444   4.393   5.695   4.199
 4815WAT    HW214445   4.350   5.554   4.162
 4816WAT     OW14446   0.809   1.316   3.068
 4816WAT    HW114447   0.722   1.313   3.107
 4816WAT    HW214448   0.798   1.280   2.980
 4817WAT     OW14449   2.820   2.677   4.439
 4817WAT    HW114450   2.798   2.600   4.387
 4817WAT    HW214451   2.850   2.643   4.523
 4818WAT     OW14452   5.981   3.507   1.257
 4818WAT    HW114453   5.919   3.436   1.275
 4818WAT    HW214454   6.039   3.509   1.333
 4819WAT     OW14455   6.555   0.422   2.994
 4819WAT    HW114456   6.587   0.396   2.907
 4819WAT    HW214457   6.460   0.411   2.988
 4820WAT     OW14458   0.826   3.595   3.456
 4820WAT    HW114459   0.746   3.552   3.429
 4820WAT    HW214460   0.799   3.653   3.527
 4821WAT     OW14461   1.850   5.578   3.264
 4821WAT    HW114462   1.944   5.578   3.246
 4821WAT    HW214463   1.838   5.648   3.329
 4822WAT     OW14464   3.886   2.845   6.328
 4822WAT    HW114465   3.794   2.860   6.350
 4822WAT    HW214466   3.929   2.834   6.413
 4823WAT     OW14467   2.038   4.151   6.213
 4823WAT    HW114468   2.107   4.086   6.221
 4823WAT    HW214469   2.078   4.232   6.246
 4824WAT     OW14470   1.382   3.334   1.983
 4824WAT    HW114471   1.395   3.342   2.078
 4824WAT    HW214472   1.291   3.305   1.975
 4825WAT     OW14473   3.505   0.794   1.780
 4825WAT    HW114474   3.468   0.808   1.693
 4825WAT    HW214475   3.586   0.846   1.781
 4826WAT     OW14476   5.593   6.689   5.428
 4826WAT    HW114477   5.578   6.613   5.371
 4826WAT    HW214478   5.633   6.652   5.507
 4827WAT     OW14479   5.487   1.559   4.765
 4827WAT    HW114480   5.401   1.600   4.776
 4827WAT    HW214481   5.519   1.594   4.682
 4828WAT     OW14482   5.264   0.242   3.974
 4828WAT    HW114483   5.248   0.197   4.057
 4828WAT    HW214484   5.184   0.231   3.924
 4829WAT     OW14485   3.469   5.182   3.232
 4829WAT    HW114486   3.375   5.178   3.213
 4829WAT    HW214487   3.473   5.207   3.324
 4830WAT     OW14488   5.706   1.971   0.270
 4830WAT    HW114489   5.785   1.922   0.293
 4830WAT    HW214490   5.735   2.031   0.200
 4831WAT     OW14491   0.809   6.027   1.330
 4831WAT    HW114492   0.837   5.951   1.279
 4831WAT    HW214493   0.846   6.102   1.283
 4832WAT     OW14494   3.591   3.248   0.654
 4832WAT    HW114495   3.545   3.206   0.581
 4832WAT    HW214496   3.662   3.297   0.613
 4833WAT     OW14497   2.555   4.453   0.254
 4833WAT    HW114498   2.628   4.444   0.316
 4833WAT    HW214499   2.547   4.366   0.215
 4834WAT     OW14500   4.744   6.532   6.718
 4834WAT    HW114501   4.689   6.482   6.657
 4834WAT    HW214502   4.730   6.490   6.803
 4835WAT     OW14503   5.219   0.133   3.300
 4835WAT    HW114504   5.265   0.072   3.358
 4835WAT    HW214505   5.163   0.077   3.246
 4836WAT     OW14506   2.432   5.796   6.526
 4836WAT    HW114507   2.465   5.707   6.533
 4836WAT    HW214508   2.451   5.835   6.612
 4837WAT     OW14509   5.586   6.179   2.762
 4837WAT    HW114510   5.566   6.114   2.828
 4837WAT    HW214511   5.542   6.148   2.683
 4838WAT     OW14512   6.122   3.185   0.018
 4838WAT    HW114513   6.206   3.187  -0.027
 4838WAT    HW214514   6.063   3.235  -0.039
 4839WAT     OW14515   0.694   6.257   6.715
 4839WAT    HW114516   0.747   6.294   6.645
 4839WAT    HW214517   0.605   6.254   6.679
 4840WAT     OW14518   4.317   4.766   4.731
 4840WAT    HW114519   4.233   4.810   4.718
 4840WAT    HW214520   4.302   4.676   4.701
 4841WAT     OW14521   6.544   3.157   0.813
 4841WAT    HW114522   6.568   3.136   0.723
 4841WAT    HW214523   6.612   3.217   0.843
 4842WAT     OW14524   2.267   0.630   3.261
 4842WAT    HW114525   2.189   0.654   3.211
 4842WAT    HW214526   2.329   0.600   3.195
 4843WAT     OW14527   5.781   5.309   3.349
 4843WAT    HW114528   5.875   5.299   3.334
 4843WAT    HW214529   5.740   5.244   3.293
 4844WAT     OW14530   4.053   4.653   6.597
 4844WAT    HW114531   4.039   4.742   6.566
 4844WAT    HW214532   4.010   4.649   6.682
 4845WAT     OW14533   4.157   3.505   2.086
 4845WAT    HW114534   4.079   3.487   2.140
 4845WAT    HW214535   4.122   3.547   2.008
 4846WAT     OW14536   4.178   0.994   6.148
 4846WAT    HW114537   4.107   1.022   6.205
 4846WAT    HW214538   4.234   0.941   6.203
 4847WAT     OW14539   1.117   5.950   4.262
 4847WAT    HW114540   1.104   6.006   4.338
 4847WAT    HW214541   1.102   6.008   4.187
 4848WAT     OW14542   5.629   5.003   3.651
 4848WAT    HW114543   5.684   4.931   3.683
 4848WAT    HW214544   5.548   4.995   3.702
 4849WAT     OW14545   4.242   5.279   3.075
 4849WAT    HW114546   4.276   5.351   3.022
 4849WAT    HW214547   4.317   5.222   3.088
 4850WAT     OW14548   3.572   0.616   3.097
 4850WAT    HW114549   3.553   0.601   3.190
 4850WAT    HW214550   3.518   0.692   3.074
 4851WAT     OW14551   3.358   2.479   1.810
 4851WAT    HW114552   3.268   2.461   1.835
 4851WAT    HW214553   3.379   2.562   1.853
 4852WAT     OW14554   2.146   4.137   6.523
 4852WAT    HW114555   2.166   4.197   6.595
 4852WAT    HW214556   2.139   4.194   6.446
 4853WAT     OW14557   3.275   6.407   0.928
 4853WAT    HW114558   3.282   6.317   0.958
 4853WAT    HW214559   3.344   6.454   0.976
 4854WAT     OW14560   4.924   5.755   6.024
 4854WAT    HW114561   5.018   5.742   6.015
 4854WAT    HW214562   4.908   5.753   6.118
 4855WAT     OW14563   1.576   0.080   5.206
 4855WAT    HW114564   1.505   0.114   5.152
 4855WAT    HW214565   1.652   0.133   5.181
 4856WAT     OW14566   6.020   1.571   4.661
 4856WAT    HW114567   6.037   1.665   4.654
 4856WAT    HW214568   6.107   1.531   4.665
 4857WAT     OW14569   6.688   0.450   6.081
 4857WAT    HW114570   6.772   0.496   6.071
 4857WAT    HW214571   6.627   0.519   6.106
 4858WAT     OW14572   3.803   5.043   3.259
 4858WAT    HW114573   3.731   5.009   3.207
 4858WAT    HW214574   3.770   5.045   3.348
 4859WAT     OW14575   0.242   6.153   1.421
 4859WAT    HW114576   0.277   6.235   1.386
 4859WAT    HW214577   0.303   6.128   1.490
 4860WAT     OW14578   1.939   3.006   6.126
 4860WAT    HW114579   1.933   2.924   6.175
 4860WAT    HW214580   1.927   2.980   6.035
 4861WAT     OW14581   3.692   4.577   4.030
 4861WAT    HW114582   3.695   4.611   3.940
 4861WAT    HW214583   3.599   4.564   4.048
 4862WAT     OW14584   5.318   4.643   2.278
 4862WAT    HW114585   5.386   4.685   2.226
 4862WAT    HW214586   5.238   4.653   2.227
 4863WAT     OW14587   6.266   1.691   1.094
 4863WAT    HW114588   6.246   1.679   1.187
 4863WAT    HW214589   6.359   1.670   1.087
 4864WAT     OW14590   4.364   1.642   5.834
 4864WAT    HW114591   4.427   1.641   5.906
 4864WAT    HW214592   4.384   1.564   5.783
 4865WAT     OW14593   3.248   4.248   4.856
 4865WAT    HW114594   3.253   4.306   4.932
 4865WAT    HW214595   3.288   4.166   4.886
 4866WAT     OW14596   2.065   1.808   5.540
 4866WAT    HW114597   2.145   1.759   5.561
 4866WAT    HW214598   2.097   1.888   5.498
 4867WAT     OW14599   4.901   0.283   2.373
 4867WAT    HW114600   4.930   0.206   2.325
 4867WAT    HW214601   4.840   0.327   2.314
 4868WAT     OW14602   0.228   5.519   5.599
 4868WAT    HW114603   0.147   5.471   5.616
 4868WAT    HW214604   0.267   5.475   5.524
 4869WAT     OW14605   1.289   2.408   3.355
 4869WAT    HW114606   1.204   2.366   3.373
 4869WAT    HW214607   1.268   2.501   3.345
 4870WAT     OW14608   3.893   5.295   3.170
 4870WAT    HW114609   3.864   5.211   3.208
 4870WAT    HW214610   3.877   5.285   3.076
 4871WAT     OW14611   2.730   0.418   2.289
 4871WAT    HW114612   2.721   0.329   2.323
 4871WAT    HW214613   2.668   0.470   2.340
 4872WAT     OW14614   4.038   2.825   2.514
 4872WAT    HW114615   4.080   2.771   2.447
 4872WAT    HW214616   4.099   2.897   2.528
 4873WAT     OW14617   4.555   2.511   6.028
 4873WAT    HW114618   4.644   2.530   6.001
 4873WAT    HW214619   4.500   2.556   5.964
 4874WAT     OW14620   6.150   1.660   6.559
 4874WAT    HW114621   6.192   1.574   6.560
 4874WAT    HW214622   6.219   1.720   6.531
 4875WAT     OW14623   3.569   4.052   5.155
 4875WAT    HW114624   3.525   4.070   5.238
 4875WAT    HW214625   3.500   4.063   5.089
 4876WAT     OW14626   4.551   5.825   0.300
 4876WAT    HW114627   4.584   5.775   0.375
 4876WAT    HW214628   4.456   5.825   0.311
 4877WAT     OW14629   0.183   0.457   2.232
 4877WAT    HW114630   0.222   0.373   2.256
 4877WAT    HW214631   0.090   0.448   2.252
 4878WAT     OW14632   3.145   6.175   6.137
 4878WAT    HW114633   3.204   6.246   6.110
 4878WAT    HW214634   3.196   6.124   6.199
 4879WAT     OW14635   6.282   5.172   0.292
 4879WAT    HW114636   6.356   5.229   0.309
 4879WAT    HW214637   6.205   5.225   0.312
 4880WAT     OW14638   4.954   1.584   5.618
 4880WAT    HW114639   4.978   1.509   5.672
 4880WAT    HW214640   4.874   1.618   5.659
 4881WAT     OW14641   1.634   2.753   2.933
 4881WAT    HW114642   1.578   2.785   2.862
 4881WAT    HW214643   1.660   2.665   2.905
 4882WAT     OW14644   3.528   2.864   4.450
 4882WAT    HW114645   3.563   2.784   4.410
 4882WAT    HW214646   3.508   2.839   4.540
 4883WAT     OW14647   4.498   4.667   4.077
 4883WAT    HW114648   4.447   4.729   4.129
 4883WAT    HW214649   4.524   4.717   3.999
 4884WAT     OW14650   0.434   0.611   5.061
 4884WAT    HW114651   0.478   0.529   5.084
 4884WAT    HW214652   0.442   0.617   4.966
 4885WAT     OW14653   2.253   1.710   1.531
 4885WAT    HW114654   2.301   1.640   1.486
 4885WAT    HW214655   2.318   1.752   1.587
 4886WAT     OW14656   3.815   1.415   1.522
 4886WAT    HW114657   3.803   1.357   1.447
 4886WAT    HW214658   3.897   1.387   1.562
 4887WAT     OW14659   4.293   2.444   3.778
 4887WAT    HW114660   4.295   2.355   3.745
 4887WAT    HW214661   4.316   2.436   3.871
 4888WAT     OW14662   1.848   3.825   0.161
 4888WAT    HW114663   1.918   3.825   0.226
 4888WAT    HW214664   1.892   3.805   0.078
 4889WAT     OW14665   3.813   2.917   0.014
 4889WAT    HW114666   3.880   2.874  -0.039
 4889WAT    HW214667   3.827   2.885   0.103
 4890WAT     OW14668   5.957   3.315   2.698
 4890WAT    HW114669   6.042   3.284   2.731
 4890WAT    HW214670   5.968   3.410   2.690
 4891WAT     OW14671   6.274   3.287   6.188
 4891WAT    HW114672   6.236   3.309   6.104
 4891WAT    HW214673   6.304   3.196   6.178
 4892WAT     OW14674   6.027   0.828   2.675
 4892WAT    HW114675   6.060   0.912   2.706
 4892WAT    HW214676   5.950   0.811   2.729
 4893WAT     OW14677   0.660   5.202   2.684
 4893WAT    HW114678   0.593   5.262   2.652
 4893WAT    HW214679   0.670   5.225   2.776
 4894WAT     OW14680   5.640   0.574   2.811
 4894WAT    HW114681   5.612   0.519   2.883
 4894WAT    HW214682   5.560   0.592   2.761
 4895WAT     OW14683   1.080   2.190   0.320
 4895WAT    HW114684   0.988   2.172   0.299
 4895WAT    HW214685   1.096   2.276   0.282
 4896WAT     OW14686   4.989   1.890   5.829
 4896WAT    HW114687   5.039   1.944   5.890
 4896WAT    HW214688   5.054   1.834   5.787
 4897WAT     OW14689   6.110   0.066   5.196
 4897WAT    HW114690   6.159   0.011   5.135
 4897WAT    HW214691   6.072   0.003   5.258
 4898WAT     OW14692   0.586   5.496   1.088
 4898WAT    HW114693   0.680   5.510   1.092
 4898WAT    HW214694   0.560   5.479   1.179
 4899WAT     OW14695   5.263   2.767   0.147
 4899WAT    HW114696   5.252   2.856   0.181
 4899WAT    HW214697   5.301   2.719   0.221
 4900WAT     OW14698   0.566   0.373   3.706
 4900WAT    HW114699   0.494   0.324   3.666
 4900WAT    HW214700   0.600   0.428   3.635
 4901WAT     OW14701   4.766   5.563   0.283
 4901WAT    HW114702   4.717   5.603   0.356
 4901WAT    HW214703   4.857   5.589   0.298
 4902WAT     OW14704   4.300   3.467   5.300
 4902WAT    HW114705   4.366   3.410   5.261
 4902WAT    HW214706   4.216   3.434   5.266
 4903WAT     OW14707   5.462   1.144   5.855
 4903WAT    HW114708   5.416   1.218   5.814
 4903WAT    HW214709   5.509   1.102   5.783
 4904WAT     OW14710   1.781   0.028   6.527
 4904WAT    HW114711   1.698  -0.012   6.499
 4904WAT    HW214712   1.800  -0.014   6.611
 4905WAT     OW14713   5.986   3.455   0.281
 4905WAT    HW114714   6.000   3.512   0.205
 4905WAT    HW214715   6.008   3.509   0.356
 4906WAT     OW14716   1.567   2.642   0.101
 4906WAT    HW114717   1.576   2.688   0.185
 4906WAT    HW214718   1.497   2.578   0.115
 4907WAT     OW14719   0.837   3.858   6.181
 4907WAT    HW114720   0.877   3.857   6.268
 4907WAT    HW214721   0.906   3.825   6.123
 4908WAT     OW14722   1.553   4.460   5.820
 4908WAT    HW114723   1.554   4.515   5.742
 4908WAT    HW214724   1.477   4.403   5.807
 4909WAT     OW14725   1.664   2.155   1.357
 4909WAT    HW114726   1.731   2.182   1.421
 4909WAT    HW214727   1.704   2.174   1.272
 4910WAT     OW14728   6.683   0.412   1.475
 4910WAT    HW114729   6.597   0.442   1.446
 4910WAT    HW214730   6.668   0.323   1.508
 4911WAT     OW14731   3.357   1.106   1.426
 4911WAT    HW114732   3.364   1.161   1.505
 4911WAT    HW214733   3.265   1.111   1.402
 4912WAT     OW14734   3.398   2.496   2.115
 4912WAT    HW114735   3.393   2.574   2.059
 4912WAT    HW214736   3.342   2.516   2.189
 4913WAT     OW14737   5.304   3.759   5.922
 4913WAT    HW114738   5.252   3.719   5.853
 4913WAT    HW214739   5.326   3.846   5.889
 4914WAT     OW14740   3.689   2.614   5.197
 4914WAT    HW114741   3.654   2.687   5.146
 4914WAT    HW214742   3.613   2.568   5.230
 4915WAT     OW14743   6.690   6.600   2.795
 4915WAT    HW114744   6.650   6.571   2.877
 4915WAT    HW214745   6.654   6.542   2.729
 4916WAT     OW14746   3.858   1.775   4.671
 4916WAT    HW114747   3.815   1.761   4.755
 4916WAT    HW214748   3.826   1.704   4.615
 4917WAT     OW14749   3.298   6.135   0.615
 4917WAT    HW114750   3.215   6.122   0.661
 4917WAT    HW214751   3.295   6.073   0.541
 4918WAT     OW14752   2.869   3.952   2.884
 4918WAT    HW114753   2.940   3.894   2.855
 4918WAT    HW214754   2.805   3.949   2.812
 4919WAT     OW14755   4.753   2.730   3.724
 4919WAT    HW114756   4.756   2.696   3.634
 4919WAT    HW214757   4.702   2.665   3.772
 4920WAT     OW14758   0.625   0.000   3.987
 4920WAT    HW114759   0.614  -0.064   4.057
 4920WAT    HW214760   0.537   0.012   3.951
 4921WAT     OW14761   4.603   6.038   1.993
 4921WAT    HW114762   4.579   6.102   1.927
 4921WAT    HW214763   4.520   6.001   2.022
 4922WAT     OW14764   2.945   0.592   4.962
 4922WAT    HW114765   2.891   0.592   4.883
 4922WAT    HW214766   3.007   0.664   4.949
 4923WAT     OW14767   3.626   2.604   4.405
 4923WAT    HW114768   3.721   2.615   4.396
 4923WAT    HW214769   3.615   2.536   4.471
 4924WAT     OW14770   5.497   0.524   1.230
 4924WAT    HW114771   5.563   0.486   1.288
 4924WAT    HW214772   5.415   0.481   1.255
 4925WAT     OW14773   5.813   1.965   4.205
 4925WAT    HW114774   5.881   1.945   4.140
 4925WAT    HW214775   5.846   2.042   4.251
 4926WAT     OW14776   6.679   6.324   0.245
 4926WAT    HW114777   6.601   6.344   0.296
 4926WAT    HW214778   6.732   6.269   0.303
 4927WAT     OW14779   0.002   0.569   6.443
 4927WAT    HW114780   0.032   0.636   6.382
 4927WAT    HW214781   0.041   0.593   6.527
 4928WAT     OW14782   4.404   4.493   2.150
 4928WAT    HW114783   4.416   4.432   2.077
 4928WAT    HW214784   4.369   4.439   2.221
 4929WAT     OW14785   6.380   2.034   0.643
 4929WAT    HW114786   6.379   2.020   0.737
 4929WAT    HW214787   6.460   2.084   0.626
 4930WAT     OW14788   0.397   1.501   1.802
 4930WAT    HW114789   0.419   1.593   1.787
 4930WAT    HW214790   0.445   1.454   1.734
 4931WAT     OW14791   2.010   3.792   6.239
 4931WAT    HW114792   2.098   3.780   6.276
 4931WAT    HW214793   1.962   3.840   6.306
 4932WAT     OW14794   4.839   1.956   0.889
 4932WAT    HW114795   4.904   2.020   0.919
 4932WAT    HW214796   4.828   1.897   0.964
 4933WAT     OW14797   4.916   5.413   3.424
 4933WAT    HW114798   4.862   5.443   3.496
 4933WAT    HW214799   4.945   5.493   3.380
 4934WAT     OW14800   3.259   6.228   6.648
 4934WAT    HW114801   3.299   6.314   6.666
 4934WAT    HW214802   3.175   6.249   6.608
 4935WAT     OW14803   4.984   2.138   2.640
 4935WAT    HW114804   4.972   2.059   2.587
 4935WAT    HW214805   4.906   2.141   2.696
 4936WAT     OW14806   6.106   0.409   6.158
 4936WAT    HW114807   6.101   0.320   6.122
 4936WAT    HW214808   6.079   0.401   6.249
 4937WAT     OW14809   0.058   6.091   6.671
 4937WAT    HW114810  -0.008   6.042   6.623
 4937WAT    HW214811   0.067   6.173   6.622
 4938WAT     OW14812   6.392   5.966   6.711
 4938WAT    HW114813   6.410   6.049   6.755
 4938WAT    HW214814   6.467   5.954   6.652
 4939WAT     OW14815   5.066   4.710   1.072
 4939WAT    HW114816   5.016   4.678   0.996
 4939WAT    HW214817   5.031   4.798   1.089
 4940WAT     OW14818   2.522   6.645   4.783
 4940WAT    HW114819   2.576   6.589   4.727
 4940WAT    HW214820   2.575   6.658   4.862
 4941WAT     OW14821   4.918   2.298   1.274
 4941WAT    HW114822   4.991   2.341   1.319
 4941WAT    HW214823   4.906   2.350   1.194
 4942WAT     OW14824   5.353   3.718   3.158
 4942WAT    HW114825   5.399   3.642   3.192
 4942WAT    HW214826   5.270   3.684   3.124
 4943WAT     OW14827   5.762   2.034   0.552
 4943WAT    HW114828   5.726   2.007   0.468
 4943WAT    HW214829   5.788   1.952   0.595
 4944WAT     OW14830   0.136   3.080   4.083
 4944WAT    HW114831   0.190   3.141   4.134
 4944WAT    HW214832   0.051   3.123   4.075
 4945WAT     OW14833   5.481   3.094   5.179
 4945WAT    HW114834   5.489   3.043   5.260
 4945WAT    HW214835   5.474   3.185   5.209
 4946WAT     OW14836   0.396   6.041   1.615
 4946WAT    HW114837   0.443   6.078   1.691
 4946WAT    HW214838   0.444   5.962   1.594
 4947WAT     OW14839   0.756   5.099   5.166
 4947WAT    HW114840   0.809   5.024   5.138
 4947WAT    HW214841   0.803   5.175   5.131
 4948WAT     OW14842   4.265   4.167   1.799
 4948WAT    HW114843   4.220   4.117   1.868
 4948WAT    HW214844   4.199   4.228   1.767
 4949WAT     OW14845   1.779   6.286   2.191
 4949WAT    HW114846   1.777   6.216   2.256
 4949WAT    HW214847   1.859   6.335   2.209
 4950WAT     OW14848   4.498   2.668   6.559
 4950WAT    HW114849   4.580   2.622   6.578
 4950WAT    HW214850   4.500   2.682   6.464
 4951WAT     OW14851   2.061   5.997   3.111
 4951WAT    HW114852   1.995   6.048   3.158
 4951WAT    HW214853   2.011   5.938   3.056
 4952WAT     OW14854   6.381   3.544   1.379
 4952WAT    HW114855   6.361   3.585   1.295
 4952WAT    HW214856   6.295   3.526   1.417
 4953WAT     OW14857   3.591   5.403   0.114
 4953WAT    HW114858   3.632   5.317   0.104
 4953WAT    HW214859   3.622   5.435   0.199
 4954WAT     OW14860   2.689   0.667   4.228
 4954WAT    HW114861   2.749   0.720   4.280
 4954WAT    HW214862   2.614   0.652   4.286
 4955WAT     OW14863   3.403   0.702   0.948
 4955WAT    HW114864   3.388   0.671   0.858
 4955WAT    HW214865   3.317   0.693   0.990
 4956WAT     OW14866   3.583   5.719   2.030
 4956WAT    HW114867   3.581   5.810   2.000
 4956WAT    HW214868   3.640   5.675   1.967
 4957WAT     OW14869   4.090   1.093   6.576
 4957WAT    HW114870   4.148   1.035   6.625
 4957WAT    HW214871   4.020   1.114   6.637
 4958WAT     OW14872   4.546   5.342   2.174
 4958WAT    HW114873   4.456   5.311   2.160
 4958WAT    HW214874   4.539   5.402   2.249
 4959WAT     OW14875   2.728   3.867   5.128
 4959WAT    HW114876   2.729   3.813   5.208
 4959WAT    HW214877   2.736   3.957   5.160
 4960WAT     OW14878   5.004   3.554   0.306
 4960WAT    HW114879   4.996   3.620   0.374
 4960WAT    HW214880   4.933   3.573   0.245
 4961WAT     OW14881   6.267   3.110   3.398
 4961WAT    HW114882   6.305   3.181   3.347
 4961WAT    HW214883   6.227   3.153   3.473
 4962WAT     OW14884   5.845   5.326   2.165
 4962WAT    HW114885   5.866   5.253   2.106
 4962WAT    HW214886   5.754   5.311   2.189
 4963WAT     OW14887   5.735   3.895   0.980
 4963WAT    HW114888   5.725   3.969   1.040
 4963WAT    HW214889   5.763   3.823   1.035
 4964WAT     OW14890   3.460   1.352   6.264
 4964WAT    HW114891   3.517   1.320   6.195
 4964WAT    HW214892   3.390   1.398   6.218
 4965WAT     OW14893   4.429   5.520   5.144
 4965WAT    HW114894   4.464   5.469   5.217
 4965WAT    HW214895   4.352   5.471   5.115
 4966WAT     OW14896   2.998   0.569   0.386
 4966WAT    HW114897   2.992   0.548   0.293
 4966WAT    HW214898   2.924   0.627   0.403
 4967WAT     OW14899   1.849   2.077   6.664
 4967WAT    HW114900   1.911   2.078   6.591
 4967WAT    HW214901   1.810   1.989   6.661
 4968WAT     OW14902   4.668   2.350   0.418
 4968WAT    HW114903   4.659   2.279   0.481
 4968WAT    HW214904   4.660   2.307   0.333
 4969WAT     OW14905   0.034   1.051   4.223
 4969WAT    HW114906  -0.060   1.057   4.235
 4969WAT    HW214907   0.046   1.041   4.128
 4970WAT     OW14908   2.925   3.297   6.702
 4970WAT    HW114909   2.973   3.219   6.674
 4970WAT    HW214910   2.982   3.370   6.678
 4971WAT     OW14911   0.029   5.526   2.062
 4971WAT    HW114912   0.020   5.431   2.055
 4971WAT    HW214913   0.074   5.552   1.982
 4972WAT     OW14914   1.892   3.938   4.929
 4972WAT    HW114915   1.828   3.923   4.999
 4972WAT    HW214916   1.839   3.962   4.853
 4973WAT     OW14917   5.428   1.964   2.722
 4973WAT    HW114918   5.446   1.917   2.640
 4973WAT    HW214919   5.510   1.963   2.769
 4974WAT     OW14920   4.973   3.749   2.503
 4974WAT    HW114921   4.979   3.819   2.438
 4974WAT    HW214922   5.063   3.722   2.518
 4975WAT     OW14923   5.197   1.795   6.561
 4975WAT    HW114924   5.283   1.793   6.603
 4975WAT    HW214925   5.141   1.744   6.619
 4976WAT     OW14926   1.393   5.677   4.671
 4976WAT    HW114927   1.483   5.655   4.645
 4976WAT    HW214928   1.338   5.640   4.601
 4977WAT     OW14929   4.815   5.220   5.734
 4977WAT    HW114930   4.908   5.202   5.732
 4977WAT    HW214931   4.799   5.253   5.822
 4978WAT     OW14932   3.698   0.075   3.588
 4978WAT    HW114933   3.735   0.017   3.654
 4978WAT    HW214934   3.709   0.028   3.506
 4979WAT     OW14935   4.480   0.855   3.723
 4979WAT    HW114936   4.518   0.889   3.805
 4979WAT    HW214937   4.550   0.802   3.684
 4980WAT     OW14938   5.153   5.506   0.714
 4980WAT    HW114939   5.192   5.420   0.732
 4980WAT    HW214940   5.197   5.565   0.775
 4981WAT     OW14941   4.186   5.095   5.399
 4981WAT    HW114942   4.175   5.012   5.354
 4981WAT    HW214943   4.260   5.081   5.458
 4982WAT     OW14944   2.044   1.751   2.116
 4982WAT    HW114945   1.973   1.708   2.068
 4982WAT    HW214946   2.003   1.826   2.159
 4983WAT     OW14947   6.267   4.700   1.365
 4983WAT    HW114948   6.279   4.650   1.445
 4983WAT    HW214949   6.187   4.750   1.379
 4984WAT     OW14950   0.083   5.745   3.076
 4984WAT    HW114951   0.013   5.691   3.040
 4984WAT    HW214952   0.128   5.780   2.999
 4985WAT     OW14953   3.421   6.338   2.197
 4985WAT    HW114954   3.415   6.246   2.220
 4985WAT    HW214955   3.463   6.379   2.273
 4986WAT     OW14956   0.927   2.677   2.425
 4986WAT    HW114957   0.992   2.643   2.486
 4986WAT    HW214958   0.955   2.644   2.339
 4987WAT     OW14959   0.512   3.879   3.262
 4987WAT    HW114960   0.448   3.907   3.327
 4987WAT    HW214961   0.502   3.784   3.257
 4988WAT     OW14962   3.738   0.581   5.765
 4988WAT    HW114963   3.825   0.544   5.775
 4988WAT    HW214964   3.721   0.628   5.846
 4989WAT     OW14965   1.356   4.827   5.668
 4989WAT    HW114966   1.384   4.834   5.759
 4989WAT    HW214967   1.393   4.904   5.626
 4990WAT     OW14968   6.602   5.639   2.703
 4990WAT    HW114969   6.528   5.698   2.686
 4990WAT    HW214970   6.601   5.627   2.798
 4991WAT     OW14971   3.200   0.575   4.327
 4991WAT    HW114972   3.195   0.484   4.298
 4991WAT    HW214973   3.157   0.624   4.257
 4992WAT     OW14974   0.731   5.688   1.850
 4992WAT    HW114975   0.646   5.729   1.840
 4992WAT    HW214976   0.746   5.684   1.944
 4993WAT     OW14977   6.151   2.895   3.270
 4993WAT    HW114978   6.188   2.976   3.305
 4993WAT    HW214979   6.099   2.859   3.342
 4994WAT     OW14980   0.974   1.484   6.625
 4994WAT    HW114981   1.037   1.549   6.657
 4994WAT    HW214982   1.000   1.469   6.534
 4995WAT     OW14983   0.579   5.398   5.855
 4995WAT    HW114984   0.551   5.382   5.765
 4995WAT    HW214985   0.594   5.311   5.892
 4996WAT     OW14986   3.793   6.482   2.263
 4996WAT    HW114987   3.796   6.389   2.238
 4996WAT    HW214988   3.786   6.480   2.359
 4997WAT     OW14989   4.648   3.589   2.802
 4997WAT    HW114990   4.719   3.551   2.751
 4997WAT    HW214991   4.615   3.517   2.855
 4998WAT     OW14992   2.805   1.319   0.764
 4998WAT    HW114993   2.894   1.284   0.760
 4998WAT    HW214994   2.791   1.340   0.857
 4999WAT     OW14995   4.854   1.204   3.337
 4999WAT    HW114996   4.934   1.179   3.291
 4999WAT    HW214997   4.880   1.279   3.391
 5000WAT     OW14998   4.735   4.065   1.904
 5000WAT    HW114999   4.671   4.135   1.914
 5000WAT    HW215000   4.682   3.987   1.886
 5001WAT     OW15001   0.405   1.299   4.226
 5001WAT    HW115002   0.476   1.245   4.261
 5001WAT    HW215003   0.436   1.389   4.235
 5002WAT     OW15004   3.086   4.287   4.097
 5002WAT    HW115005   3.150   4.239   4.149
 5002WAT    HW215006   3.009   4.293   4.153
 5003WAT     OW15007   3.948   5.844   4.202
 5003WAT    HW115008   3.974   5.928   4.239
 5003WAT    HW215009   3.997   5.837   4.120
 5004WAT     OW15010   2.725   4.088   3.848
 5004WAT    HW115011   2.792   4.110   3.782
 5004WAT    HW215012   2.772   4.037   3.913
 5005WAT     OW15013   6.017   2.538   2.202
 5005WAT    HW115014   5.935   2.489   2.198
 5005WAT    HW215015   6.050   2.537   2.112
 5006WAT     OW15016   6.692   6.458   0.005
 5006WAT    HW115017   6.743   6.411  -0.060
 5006WAT    HW215018   6.694   6.401   0.082
 5007WAT     OW15019   2.329   3.599   4.316
 5007WAT    HW115020   2.295   3.510   4.311
 5007WAT    HW215021   2.370   3.605   4.402
 5008WAT     OW15022   0.197   2.559   5.626
 5008WAT    HW115023   0.200   2.535   5.719
 5008WAT    HW215024   0.103   2.566   5.606
 5009WAT     OW15025   3.665   6.621   2.072
 5009WAT    HW115026   3.708   6.577   2.146
 5009WAT    HW215027   3.579   6.646   2.106
 5010WAT     OW15028   4.239   4.008   2.512
 5010WAT    HW115029   4.252   3.916   2.491
 5010WAT    HW215030   4.253   4.014   2.606
 5011WAT     OW15031   4.396   2.225   6.272
 5011WAT    HW115032   4.380   2.132   6.288
 5011WAT    HW215033   4.399   2.233   6.176
 5012WAT     OW15034   3.300   3.873   6.641
 5012WAT    HW115035   3.226   3.921   6.678
 5012WAT    HW215036   3.300   3.896   6.548
 5013WAT     OW15037   6.377   3.335   5.318
 5013WAT    HW115038   6.401   3.421   5.353
 5013WAT    HW215039   6.302   3.352   5.261
 5014WAT     OW15040   1.337   2.035   1.902
 5014WAT    HW115041   1.386   2.008   1.824
 5014WAT    HW215042   1.402   2.079   1.957
 5015WAT     OW15043   6.651   5.533   3.532
 5015WAT    HW115044   6.668   5.606   3.472
 5015WAT    HW215045   6.732   5.525   3.582
 5016WAT     OW15046   0.832   2.725   6.639
 5016WAT    HW115047   0.911   2.753   6.686
 5016WAT    HW215048   0.838   2.769   6.554
 5017WAT     OW15049   3.241   5.479   0.637
 5017WAT    HW115050   3.216   5.486   0.545
 5017WAT    HW215051   3.325   5.433   0.635
 5018WAT     OW15052   1.751   3.707   3.095
 5018WAT    HW115053   1.746   3.614   3.116
 5018WAT    HW215054   1.763   3.709   3.000
 5019WAT     OW15055   5.740   2.167   3.039
 5019WAT    HW115056   5.831   2.181   3.011
 5019WAT    HW215057   5.713   2.253   3.073
 5020WAT     OW15058   1.694   5.996   4.828
 5020WAT    HW115059   1.691   5.965   4.737
 5020WAT    HW215060   1.605   6.027   4.845
 5021WAT     OW15061   4.498   2.689   1.217
 5021WAT    HW115062   4.424   2.666   1.274
 5021WAT    HW215063   4.467   2.671   1.128
 5022WAT     OW15064   1.975   5.008   5.704
 5022WAT    HW115065   2.027   4.931   5.680
 5022WAT    HW215066   2.037   5.081   5.704
 5023WAT     OW15067   2.336   0.767   4.622
 5023WAT    HW115068   2.337   0.727   4.709
 5023WAT    HW215069   2.253   0.814   4.618
 5024WAT     OW15070   4.215   2.743   6.126
 5024WAT    HW115071   4.296   2.776   6.087
 5024WAT    HW215072   4.169   2.821   6.157
 5025WAT     OW15073   3.805   1.117   2.897
 5025WAT    HW115074   3.862   1.155   2.964
 5025WAT    HW215075   3.860   1.053   2.852
 5026WAT     OW15076   1.249   4.339   3.006
 5026WAT    HW115077   1.321   4.300   3.056
 5026WAT    HW215078   1.181   4.355   3.071
 5027WAT     OW15079   0.268   0.115   4.234
 5027WAT    HW115080   0.245   0.069   4.153
 5027WAT    HW215081   0.186   0.153   4.265
 5028WAT     OW15082   4.673   6.116   6.601
 5028WAT    HW115083   4.715   6.048   6.548
 5028WAT    HW215084   4.735   6.131   6.673
 5029WAT     OW15085   0.198   4.932   4.863
 5029WAT    HW115086   0.160   4.982   4.790
 5029WAT    HW215087   0.150   4.962   4.940
 5030WAT     OW15088   1.010   1.022   6.409
 5030WAT    HW115089   1.106   1.014   6.416
 5030WAT    HW215090   0.982   1.043   6.498
 5031WAT     OW15091   6.238   0.999   6.397
 5031WAT    HW115092   6.275   0.916   6.369
 5031WAT    HW215093   6.222   0.987   6.491
 5032WAT     OW15094   1.968   5.608   0.902
 5032WAT    HW115095   1.993   5.602   0.810
 5032WAT    HW215096   1.893   5.549   0.911
 5033WAT     OW15097   5.282   5.068   0.937
 5033WAT    HW115098   5.366   5.025   0.953
 5033WAT    HW215099   5.239   5.068   1.023
 5034WAT     OW15100   3.482   3.447   5.846
 5034WAT    HW115101   3.388   3.456   5.862
 5034WAT    HW215102   3.491   3.455   5.751
 5035WAT     OW15103   0.131   1.819   2.721
 5035WAT    HW115104   0.157   1.727   2.723
 5035WAT    HW215105   0.072   1.824   2.645
 5036WAT     OW15106   2.120   3.605   3.765
 5036WAT    HW115107   2.172   3.531   3.735
 5036WAT    HW215108   2.145   3.616   3.857
 5037WAT     OW15109   3.424   4.720   2.344
 5037WAT    HW115110   3.433   4.731   2.249
 5037WAT    HW215111   3.330   4.730   2.360
 5038WAT     OW15112   4.168   0.992   2.364
 5038WAT    HW115113   4.182   0.922   2.301
 5038WAT    HW215114   4.184   1.072   2.315
 5039WAT     OW15115   5.162   1.682   0.633
 5039WAT    HW115116   5.116   1.612   0.681
 5039WAT    HW215117   5.127   1.677   0.544
 5040WAT     OW15118   2.699   1.235   5.206
 5040WAT    HW115119   2.712   1.210   5.115
 5040WAT    HW215120   2.764   1.185   5.254
 5041WAT     OW15121   2.600   4.524   1.129
 5041WAT    HW115122   2.576   4.609   1.092
 5041WAT    HW215123   2.657   4.484   1.063
 5042WAT     OW15124   3.766   1.938   3.996
 5042WAT    HW115125   3.676   1.908   3.979
 5042WAT    HW215126   3.755   2.025   4.035
 5043WAT     OW15127   0.091   3.242   0.267
 5043WAT    HW115128   0.184   3.243   0.248
 5043WAT    HW215129   0.085   3.247   0.362
 5044WAT     OW15130   4.135   4.671   5.068
 5044WAT    HW115131   4.092   4.657   4.983
 5044WAT    HW215132   4.227   4.688   5.046
 5045WAT     OW15133   5.495   6.095   6.228
 5045WAT    HW115134   5.444   6.033   6.280
 5045WAT    HW215135   5.458   6.087   6.139
 5046WAT     OW15136   1.268   0.302   0.109
 5046WAT    HW115137   1.192   0.243   0.113
 5046WAT    HW215138   1.331   0.257   0.053
 5047WAT     OW15139   2.494   6.287   3.473
 5047WAT    HW115140   2.496   6.346   3.549
 5047WAT    HW215141   2.409   6.302   3.433
 5048WAT     OW15142   1.540   0.634   6.417
 5048WAT    HW115143   1.527   0.562   6.479
 5048WAT    HW215144   1.542   0.591   6.331
 5049WAT     OW15145   4.244   0.564   3.278
 5049WAT    HW115146   4.294   0.495   3.321
 5049WAT    HW215147   4.298   0.643   3.289
 5050WAT     OW15148   4.279   2.544   3.517
 5050WAT    HW115149   4.367   2.568   3.485
 5050WAT    HW215150   4.293   2.518   3.608
 5051WAT     OW15151   6.247   5.663   1.203
 5051WAT    HW115152   6.181   5.726   1.174
 5051WAT    HW215153   6.297   5.644   1.124
 5052WAT     OW15154   2.989   0.548   0.111
 5052WAT    HW115155   3.065   0.607   0.112
 5052WAT    HW215156   2.921   0.597   0.065
 5053WAT     OW15157   4.055   1.642   1.807
 5053WAT    HW115158   4.132   1.616   1.756
 5053WAT    HW215159   4.023   1.561   1.845
 5054WAT     OW15160   4.600   2.450   4.346
 5054WAT    HW115161   4.676   2.484   4.392
 5054WAT    HW215162   4.550   2.403   4.414
 5055WAT     OW15163   5.887   3.565   3.619
 5055WAT    HW115164   5.860   3.605   3.702
 5055WAT    HW215165   5.822   3.496   3.604
 5056WAT     OW15166   1.626   5.937   1.528
 5056WAT    HW115167   1.654   5.933   1.619
 5056WAT    HW215168   1.604   5.846   1.506
 5057WAT     OW15169   3.942   2.428   1.484
 5057WAT    HW115170   3.992   2.352   1.453
 5057WAT    HW215171   3.931   2.412   1.577
 5058WAT     OW15172   5.047   3.766   1.657
 5058WAT    HW115173   5.044   3.682   1.612
 5058WAT    HW215174   4.957   3.800   1.651
 5059WAT     OW15175   4.641   5.346   1.023
 5059WAT    HW115176   4.730   5.316   1.008
 5059WAT    HW215177   4.612   5.301   1.102
 5060WAT     OW15178   3.602   2.146   3.073
 5060WAT    HW115179   3.660   2.216   3.104
 5060WAT    HW215180   3.580   2.097   3.152
 5061WAT     OW15181   2.905   0.148   6.010
 5061WAT    HW115182   2.820   0.121   6.047
 5061WAT    HW215183   2.894   0.137   5.916
 5062WAT     OW15184   3.144   4.187   2.135
 5062WAT    HW115185   3.184   4.130   2.201
 5062WAT    HW215186   3.218   4.225   2.088
 5063WAT     OW15187   2.381   5.526   0.539
 5063WAT    HW115188   2.356   5.437   0.512
 5063WAT    HW215189   2.462   5.514   0.587
 5064WAT     OW15190   5.780   0.339   6.423
 5064WAT    HW115191   5.875   0.345   6.429
 5064WAT    HW215192   5.754   0.417   6.375
 5065WAT     OW15193   4.789   4.044   6.664
 5065WAT    HW115194   4.783   4.102   6.740
 5065WAT    HW215195   4.848   3.974   6.692
 5066WAT     OW15196   2.474   1.787   2.203
 5066WAT    HW115197   2.488   1.720   2.136
 5066WAT    HW215198   2.472   1.869   2.153
 5067WAT     OW15199   6.597   0.334   2.733
 5067WAT    HW115200   6.556   0.254   2.701
 5067WAT    HW215201   6.576   0.400   2.666
 5068WAT     OW15202   5.713   5.543   5.881
 5068WAT    HW115203   5.789   5.486   5.889
 5068WAT    HW215204   5.641   5.492   5.918
 5069WAT     OW15205   3.307   2.718   5.386
 5069WAT    HW115206   3.376   2.781   5.366
 5069WAT    HW215207   3.228   2.771   5.398
 5070WAT     OW15208   1.483   1.616   2.325
 5070WAT    HW115209   1.484   1.535   2.273
 5070WAT    HW215210   1.570   1.653   2.314
 5071WAT     OW15211   3.365   3.531   4.196
 5071WAT    HW115212   3.449   3.576   4.205
 5071WAT    HW215213   3.386   3.448   4.155
 5072WAT     OW15214   3.131   1.884   4.573
 5072WAT    HW115215   3.172   1.832   4.642
 5072WAT    HW215216   3.190   1.957   4.560
 5073WAT     OW15217   5.004   3.162   6.590
 5073WAT    HW115218   4.990   3.247   6.548
 5073WAT    HW215219   5.024   3.102   6.518
 5074WAT     OW15220   1.887   2.566   0.254
 5074WAT    HW115221   1.864   2.565   0.161
 5074WAT    HW215222   1.923   2.654   0.268
 5075WAT     OW15223   6.362   3.342   3.261
 5075WAT    HW115224   6.366   3.433   3.288
 5075WAT    HW215225   6.445   3.305   3.289
 5076WAT     OW15226   0.672   2.775   4.428
 5076WAT    HW115227   0.709   2.692   4.457
 5076WAT    HW215228   0.736   2.809   4.365
 5077WAT     OW15229   4.016   2.036   5.834
 5077WAT    HW115230   3.974   1.950   5.840
 5077WAT    HW215231   3.942   2.097   5.830
 5078WAT     OW15232   4.388   0.032   3.554
 5078WAT    HW115233   4.340   0.071   3.480
 5078WAT    HW215234   4.443  -0.035   3.514
 5079WAT     OW15235   3.003   0.664   4.503
 5079WAT    HW115236   2.937   0.594   4.507
 5079WAT    HW215237   3.080   0.622   4.465
 5080WAT     OW15238   1.065   1.662   3.045
 5080WAT    HW115239   0.997   1.676   2.979
 5080WAT    HW215240   1.133   1.613   2.998
 5081WAT     OW15241   5.460   0.163   2.276
 5081WAT    HW115242   5.453   0.068   2.272
 5081WAT    HW215243   5.377   0.195   2.240
 5082WAT     OW15244   3.708   1.131   4.734
 5082WAT    HW115245   3.760   1.054   4.709
 5082WAT    HW215246   3.761   1.206   4.708
 5083WAT     OW15247   5.629   0.063   0.872
 5083WAT    HW115248   5.705   0.094   0.823
 5083WAT    HW215249   5.556   0.074   0.811
 5084WAT     OW15250   0.755   6.379   3.328
 5084WAT    HW115251   0.843   6.416   3.336
 5084WAT    HW215252   0.704   6.448   3.286
 5085WAT     OW15253   2.875   5.763   6.717
 5085WAT    HW115254   2.851   5.825   6.786
 5085WAT    HW215255   2.900   5.818   6.643
 5086WAT     OW15256   1.331   1.229   0.880
 5086WAT    HW115257   1.368   1.306   0.836
 5086WAT    HW215258   1.264   1.197   0.821
 5087WAT     OW15259   1.579   1.976   0.420
 5087WAT    HW115260   1.505   1.951   0.477
 5087WAT    HW215261   1.656   1.963   0.475
 5088WAT     OW15262   1.031   6.134   4.455
 5088WAT    HW115263   0.941   6.113   4.432
 5088WAT    HW215264   1.035   6.230   4.454
 5089WAT     OW15265   1.379   0.512   1.691
 5089WAT    HW115266   1.443   0.445   1.666
 5089WAT    HW215267   1.415   0.593   1.655
 5090WAT     OW15268   5.859   5.456   0.303
 5090WAT    HW115269   5.903   5.488   0.224
 5090WAT    HW215270   5.922   5.399   0.346
 5091WAT     OW15271   6.377   2.176   4.528
 5091WAT    HW115272   6.414   2.262   4.546
 5091WAT    HW215273   6.385   2.129   4.612
 5092WAT     OW15274   0.538   4.879   1.846
 5092WAT    HW115275   0.605   4.933   1.805
 5092WAT    HW215276   0.531   4.913   1.935
 5093WAT     OW15277   3.857   1.477   5.966
 5093WAT    HW115278   3.932   1.536   5.953
 5093WAT    HW215279   3.829   1.493   6.056
 5094WAT     OW15280   1.557   2.607   4.242
 5094WAT    HW115281   1.463   2.620   4.247
 5094WAT    HW215282   1.569   2.539   4.175
 5095WAT     OW15283   5.707   1.091   3.821
 5095WAT    HW115284   5.624   1.127   3.789
 5095WAT    HW215285   5.689   1.063   3.911
 5096WAT     OW15286   3.337   0.526   3.548
 5096WAT    HW115287   3.315   0.596   3.610
 5096WAT    HW215288   3.334   0.446   3.601
 5097WAT     OW15289   0.979   5.646   5.767
 5097WAT    HW115290   1.043   5.695   5.819
 5097WAT    HW215291   0.918   5.610   5.832
 5098WAT     OW15292   3.556   1.093   3.923
 5098WAT    HW115293   3.638   1.045   3.928
 5098WAT    HW215294   3.513   1.077   4.007
 5099WAT     OW15295   0.224   5.423   2.677
 5099WAT    HW115296   0.168   5.345   2.668
 5099WAT    HW215297   0.180   5.490   2.625
 5100WAT     OW15298   1.241   4.630   5.920
 5100WAT    HW115299   1.217   4.626   5.828
 5100WAT    HW215300   1.226   4.542   5.953
 5101WAT     OW15301   4.967   6.474   6.560
 5101WAT    HW115302   5.016   6.549   6.527
 5101WAT    HW215303   4.902   6.511   6.619
 5102WAT     OW15304   3.108   2.438   1.907
 5102WAT    HW115305   3.048   2.395   1.845
 5102WAT    HW215306   3.121   2.373   1.976
 5103WAT     OW15307   0.940   3.282   3.338
 5103WAT    HW115308   0.937   3.303   3.432
 5103WAT    HW215309   1.017   3.328   3.305
 5104WAT     OW15310   4.570   5.537   4.524
 5104WAT    HW115311   4.520   5.456   4.526
 5104WAT    HW215312   4.601   5.544   4.433
 5105WAT     OW15313   3.205   4.752   5.872
 5105WAT    HW115314   3.240   4.669   5.903
 5105WAT    HW215315   3.279   4.795   5.830
 5106WAT     OW15316   5.708   0.293   3.462
 5106WAT    HW115317   5.642   0.332   3.521
 5106WAT    HW215318   5.706   0.350   3.385
 5107WAT     OW15319   6.080   6.194   1.175
 5107WAT    HW115320   6.047   6.284   1.166
 5107WAT    HW215321   6.165   6.204   1.218
 5108WAT     OW15322   1.199   1.720   6.296
 5108WAT    HW115323   1.210   1.750   6.206
 5108WAT    HW215324   1.287   1.701   6.326
 5109WAT     OW15325   2.861   4.236   3.178
 5109WAT    HW115326   2.833   4.270   3.263
 5109WAT    HW215327   2.784   4.191   3.144
 5110WAT     OW15328   6.551   5.658   5.218
 5110WAT    HW115329   6.603   5.723   5.170
 5110WAT    HW215330   6.489   5.711   5.269
 5111WAT     OW15331   3.183   2.504   1.411
 5111WAT    HW115332   3.121   2.486   1.341
 5111WAT    HW215333   3.175   2.429   1.470
 5112WAT     OW15334   3.788   4.632   2.064
 5112WAT    HW115335   3.790   4.609   2.157
 5112WAT    HW215336   3.712   4.690   2.056
 5113WAT     OW15337   6.257   6.045   5.927
 5113WAT    HW115338   6.258   5.973   5.989
 5113WAT    HW215339   6.193   6.019   5.860
 5114WAT     OW15340   6.724   4.104   0.831
 5114WAT    HW115341   6.670   4.047   0.777
 5114WAT    HW215342   6.780   4.151   0.768
 5115WAT     OW15343   4.799   4.866   0.723
 5115WAT    HW115344   4.792   4.924   0.648
 5115WAT    HW215345   4.708   4.847   0.748
 5116WAT     OW15346   5.994   1.061   1.630
 5116WAT    HW115347   5.956   0.988   1.679
 5116WAT    HW215348   5.971   1.042   1.539
 5117WAT     OW15349   2.658   6.131   2.794
 5117WAT    HW115350   2.603   6.052   2.796
 5117WAT    HW215351   2.651   6.168   2.882
 5118WAT     OW15352   4.464   4.218   0.913
 5118WAT    HW115353   4.506   4.273   0.979
 5118WAT    HW215354   4.488   4.128   0.939
 5119WAT     OW15355   5.466   3.519   4.550
 5119WAT    HW115356   5.404   3.541   4.620
 5119WAT    HW215357   5.422   3.452   4.499
 5120WAT     OW15358   0.963   1.045   6.683
 5120WAT    HW115359   0.877   1.009   6.663
 5120WAT    HW215360   0.949   1.100   6.760
 5121WAT     OW15361   3.911   4.811   1.451
 5121WAT    HW115362   3.897   4.813   1.546
 5121WAT    HW215363   3.938   4.901   1.429
 5122WAT     OW15364   0.227   2.167   5.816
 5122WAT    HW115365   0.236   2.201   5.727
 5122WAT    HW215366   0.242   2.072   5.808
 5123WAT     OW15367   0.880   4.480   1.708
 5123WAT    HW115368   0.840   4.492   1.794
 5123WAT    HW215369   0.838   4.401   1.673
 5124WAT     OW15370   4.760   1.384   2.836
 5124WAT    HW115371   4.796   1.472   2.828
 5124WAT    HW215372   4.698   1.388   2.908
 5125WAT     OW15373   2.710   3.442   3.821
 5125WAT    HW115374   2.694   3.359   3.866
 5125WAT    HW215375   2.763   3.493   3.883
 5126WAT     OW15376   2.430   4.997   0.162
 5126WAT    HW115377   2.470   5.082   0.146
 5126WAT    HW215378   2.482   4.936   0.109
 5127WAT     OW15379   1.928   1.263   4.590
 5127WAT    HW115380   1.971   1.252   4.506
 5127WAT    HW215381   1.990   1.229   4.654
 5128WAT     OW15382   1.627   3.418   1.664
 5128WAT    HW115383   1.606   3.446   1.575
 5128WAT    HW215384   1.575   3.475   1.720
 5129WAT     OW15385   2.022   4.876   6.705
 5129WAT    HW115386   1.944   4.821   6.700
 5129WAT    HW215387   2.079   4.843   6.636
 5130WAT     OW15388   5.673   4.598   0.782
 5130WAT    HW115389   5.703   4.521   0.830
 5130WAT    HW215390   5.708   4.672   0.832
 5131WAT     OW15391   5.295   4.109   0.661
 5131WAT    HW115392   5.347   4.154   0.594
 5131WAT    HW215393   5.262   4.030   0.617
 5132WAT     OW15394   1.136   1.095   1.904
 5132WAT    HW115395   1.135   1.130   1.994
 5132WAT    HW215396   1.065   1.141   1.860
 5133WAT     OW15397   0.667   3.940   0.451
 5133WAT    HW115398   0.675   3.948   0.546
 5133WAT    HW215399   0.668   4.030   0.419
 5134WAT     OW15400   0.154   3.642   6.407
 5134WAT    HW115401   0.076   3.633   6.462
 5134WAT    HW215402   0.121   3.675   6.323
 5135WAT     OW15403   0.460   3.652   4.451
 5135WAT    HW115404   0.445   3.677   4.360
 5135WAT    HW215405   0.446   3.558   4.453
 5136WAT     OW15406   5.207   5.895   1.031
 5136WAT    HW115407   5.227   5.815   0.982
 5136WAT    HW215408   5.292   5.930   1.057
 5137WAT     OW15409   5.119   6.150   4.869
 5137WAT    HW115410   5.092   6.232   4.826
 5137WAT    HW215411   5.102   6.082   4.803
 5138WAT     OW15412   2.114   0.076   3.946
 5138WAT    HW115413   2.064  -0.004   3.929
 5138WAT    HW215414   2.183   0.076   3.879
 5139WAT     OW15415   3.853   1.246   3.297
 5139WAT    HW115416   3.904   1.224   3.219
 5139WAT    HW215417   3.892   1.195   3.367
 5140WAT     OW15418   2.269   6.670   6.636
 5140WAT    HW115419   2.243   6.747   6.686
 5140WAT    HW215420   2.189   6.616   6.633
 5141WAT     OW15421   5.051   0.646   2.501
 5141WAT    HW115422   5.052   0.687   2.415
 5141WAT    HW215423   5.044   0.720   2.562
 5142WAT     OW15424   2.321   3.699   2.739
 5142WAT    HW115425   2.322   3.702   2.835
 5142WAT    HW215426   2.355   3.784   2.712
 5143WAT     OW15427   2.347   6.096   4.259
 5143WAT    HW115428   2.275   6.036   4.238
 5143WAT    HW215429   2.333   6.120   4.351
 5144WAT     OW15430   3.520   0.816   5.264
 5144WAT    HW115431   3.584   0.840   5.331
 5144WAT    HW215432   3.441   0.793   5.313
 5145WAT     OW15433   4.499   4.636   0.371
 5145WAT    HW115434   4.564   4.617   0.439
 5145WAT    HW215435   4.426   4.677   0.418
 5146WAT     OW15436   5.113   4.363   2.568
 5146WAT    HW115437   5.051   4.435   2.558
 5146WAT    HW215438   5.195   4.397   2.530
 5147WAT     OW15439   5.861   0.805   2.461
 5147WAT    HW115440   5.897   0.837   2.377
 5147WAT    HW215441   5.934   0.813   2.522
 5148WAT     OW15442   1.851   1.080   3.830
 5148WAT    HW115443   1.928   1.077   3.887
 5148WAT    HW215444   1.777   1.059   3.887
 5149WAT     OW15445   2.773   3.396   0.183
 5149WAT    HW115446   2.817   3.355   0.109
 5149WAT    HW215447   2.830   3.378   0.258
 5150WAT     OW15448   1.306   1.625   2.543
 5150WAT    HW115449   1.224   1.590   2.507
 5150WAT    HW215450   1.367   1.624   2.469
 5151WAT     OW15451   3.169   2.588   0.391
 5151WAT    HW115452   3.231   2.630   0.451
 5151WAT    HW215453   3.189   2.626   0.306
 5152WAT     OW15454   0.428   2.394   5.915
 5152WAT    HW115455   0.415   2.300   5.899
 5152WAT    HW215456   0.341   2.432   5.904
 5153WAT     OW15457   5.139   5.443   2.861
 5153WAT    HW115458   5.165   5.431   2.770
 5153WAT    HW215459   5.217   5.480   2.904
 5154WAT     OW15460   5.178   5.845   2.426
 5154WAT    HW115461   5.120   5.917   2.450
 5154WAT    HW215462   5.192   5.855   2.332
 5155WAT     OW15463   6.217   0.983   1.363
 5155WAT    HW115464   6.121   0.987   1.364
 5155WAT    HW215465   6.244   1.075   1.360
 5156WAT     OW15466   1.190   5.236   2.079
 5156WAT    HW115467   1.249   5.309   2.096
 5156WAT    HW215468   1.247   5.158   2.081
 5157WAT     OW15469   6.521   5.089   3.726
 5157WAT    HW115470   6.521   5.184   3.728
 5157WAT    HW215471   6.599   5.064   3.776
 5158WAT     OW15472   3.834   0.518   1.917
 5158WAT    HW115473   3.852   0.509   2.010
 5158WAT    HW215474   3.763   0.583   1.912
 5159WAT     OW15475   2.526   0.768   0.351
 5159WAT    HW115476   2.464   0.720   0.296
 5159WAT    HW215477   2.573   0.825   0.290
 5160WAT     OW15478   0.735   2.520   4.518
 5160WAT    HW115479   0.715   2.491   4.607
 5160WAT    HW215480   0.670   2.476   4.463
 5161WAT     OW15481   5.750   5.895   2.706
 5161WAT    HW115482   5.750   5.943   2.623
 5161WAT    HW215483   5.662   5.907   2.741
 5162WAT     OW15484   6.604   5.128   6.216
 5162WAT    HW115485   6.685   5.173   6.190
 5162WAT    HW215486   6.632   5.065   6.282
 5163WAT     OW15487   1.483   3.999   1.343
 5163WAT    HW115488   1.459   4.008   1.251
 5163WAT    HW215489   1.528   3.914   1.348
 5164WAT     OW15490   6.360   0.175   1.932
 5164WAT    HW115491   6.329   0.219   2.012
 5164WAT    HW215492   6.368   0.083   1.958
 5165WAT     OW15493   3.576   4.054   0.304
 5165WAT    HW115494   3.653   4.057   0.248
 5165WAT    HW215495   3.510   4.105   0.257
 5166WAT     OW15496   2.415   3.943   2.668
 5166WAT    HW115497   2.376   4.018   2.713
 5166WAT    HW215498   2.399   3.959   2.575
 5167WAT     OW15499   2.385   4.637   2.342
 5167WAT    HW115500   2.357   4.728   2.352
 5167WAT    HW215501   2.369   4.598   2.428
 5168WAT     OW15502   5.903   2.729   5.279
 5168WAT    HW115503   5.997   2.715   5.292
 5168WAT    HW215504   5.894   2.823   5.265
 5169WAT     OW15505   3.414   6.455   4.367
 5169WAT    HW115506   3.478   6.488   4.305
 5169WAT    HW215507   3.449   6.369   4.394
 5170WAT     OW15508   4.324   6.708   2.493
 5170WAT    HW115509   4.284   6.787   2.529
 5170WAT    HW215510   4.292   6.637   2.548
 5171WAT     OW15511   5.308   3.186   3.001
 5171WAT    HW115512   5.392   3.148   2.973
 5171WAT    HW215513   5.318   3.280   2.986
 5172WAT     OW15514   3.049   6.688   6.153
 5172WAT    HW115515   2.989   6.614   6.150
 5172WAT    HW215516   3.000   6.760   6.113
 5173WAT     OW15517   3.541   4.032   1.144
 5173WAT    HW115518   3.621   3.989   1.113
 5173WAT    HW215519   3.567   4.073   1.227
 5174WAT     OW15520   5.799   1.738   5.282
 5174WAT    HW115521   5.885   1.731   5.239
 5174WAT    HW215522   5.794   1.829   5.310
 5175WAT     OW15523   5.435   5.652   6.107
 5175WAT    HW115524   5.457   5.567   6.068
 5175WAT    HW215525   5.505   5.710   6.078
 5176WAT     OW15526   4.113   1.711   1.124
 5176WAT    HW115527   4.119   1.732   1.031
 5176WAT    HW215528   4.122   1.616   1.129
 5177WAT     OW15529   0.595   0.337   3.110
 5177WAT    HW115530   0.640   0.328   3.194
 5177WAT    HW215531   0.587   0.432   3.097
 5178WAT     OW15532   2.191   6.362   2.778
 5178WAT    HW115533   2.122   6.348   2.844
 5178WAT    HW215534   2.217   6.274   2.751
 5179WAT     OW15535   1.812   1.556   0.811
 5179WAT    HW115536   1.753   1.566   0.886
 5179WAT    HW215537   1.893   1.522   0.849
 5180WAT     OW15538   4.545   4.400   0.233
 5180WAT    HW115539   4.533   4.420   0.140
 5180WAT    HW215540   4.522   4.480   0.279
 5181WAT     OW15541   2.813   2.464   2.432
 5181WAT    HW115542   2.857   2.545   2.458
 5181WAT    HW215543   2.855   2.439   2.350
 5182WAT     OW15544   4.381   2.410   2.595
 5182WAT    HW115545   4.316   2.428   2.528
 5182WAT    HW215546   4.331   2.409   2.677
 5183WAT     OW15547   3.828   1.578   0.797
 5183WAT    HW115548   3.797   1.651   0.850
 5183WAT    HW215549   3.894   1.616   0.739
 5184WAT     OW15550   1.208   3.552   3.700
 5184WAT    HW115551   1.123   3.550   3.744
 5184WAT    HW215552   1.267   3.594   3.763
 5185WAT     OW15553   4.904   6.331   2.185
 5185WAT    HW115554   4.831   6.356   2.127
 5185WAT    HW215555   4.906   6.236   2.182
 5186WAT     OW15556   5.254   5.555   0.463
 5186WAT    HW115557   5.219   5.537   0.551
 5186WAT    HW215558   5.327   5.616   0.479
 5187WAT     OW15559   2.786   2.064   0.140
 5187WAT    HW115560   2.726   2.047   0.067
 5187WAT    HW215561   2.785   1.983   0.191
 5188WAT     OW15562   5.933   0.909   2.221
 5188WAT    HW115563   5.861   0.972   2.219
 5188WAT    HW215564   6.010   0.961   2.242
 5189WAT     OW15565   5.886   0.808   3.075
 5189WAT    HW115566   5.928   0.890   3.101
 5189WAT    HW215567   5.859   0.767   3.157
 5190WAT     OW15568   5.044   3.002   6.370
 5190WAT    HW115569   4.971   2.941   6.364
 5190WAT    HW215570   5.033   3.060   6.295
 5191WAT     OW15571   1.289   1.816   2.748
 5191WAT    HW115572   1.205   1.859   2.731
 5191WAT    HW215573   1.295   1.747   2.682
 5192WAT     OW15574   3.784   0.005   2.790
 5192WAT    HW115575   3.852   0.073   2.791
 5192WAT    HW215576   3.702   0.054   2.799
 5193WAT     OW15577   2.291   0.715   3.996
 5193WAT    HW115578   2.223   0.653   3.969
 5193WAT    HW215579   2.372   0.678   3.961
 5194WAT     OW15580   5.724   3.740   1.859
 5194WAT    HW115581   5.745   3.649   1.839
 5194WAT    HW215582   5.642   3.756   1.812
 5195WAT     OW15583   1.750   2.401   6.369
 5195WAT    HW115584   1.671   2.378   6.418
 5195WAT    HW215585   1.740   2.493   6.348
 5196WAT     OW15586   3.408   6.459   6.714
 5196WAT    HW115587   3.492   6.419   6.692
 5196WAT    HW215588   3.401   6.450   6.809
 5197WAT     OW15589   3.147   0.579   1.811
 5197WAT    HW115590   3.234   0.570   1.850
 5197WAT    HW215591   3.103   0.646   1.865
 5198WAT     OW15592   3.566   2.461   1.640
 5198WAT    HW115593   3.489   2.467   1.697
 5198WAT    HW215594   3.610   2.381   1.669
 5199WAT     OW15595   1.716   1.003   2.131
 5199WAT    HW115596   1.632   0.966   2.103
 5199WAT    HW215597   1.748   0.943   2.197
 5200WAT     OW15598   5.455   4.620   4.263
 5200WAT    HW115599   5.461   4.680   4.189
 5200WAT    HW215600   5.462   4.676   4.340
 5201WAT     OW15601   3.729   2.835   5.578
 5201WAT    HW115602   3.644   2.880   5.581
 5201WAT    HW215603   3.786   2.888   5.633
 5202WAT     OW15604   0.126   0.885   6.592
 5202WAT    HW115605   0.106   0.803   6.638
 5202WAT    HW215606   0.126   0.862   6.500
 5203WAT     OW15607   0.653   5.922   6.030
 5203WAT    HW115608   0.588   5.993   6.030
 5203WAT    HW215609   0.665   5.901   5.938
 5204WAT     OW15610   0.889   6.344   4.012
 5204WAT    HW115611   0.900   6.437   3.989
 5204WAT    HW215612   0.796   6.327   3.997
 5205WAT     OW15613   2.465   6.168   1.923
 5205WAT    HW115614   2.431   6.238   1.868
 5205WAT    HW215615   2.502   6.212   2.000
 5206WAT     OW15616   4.550   6.024   4.357
 5206WAT    HW115617   4.529   6.091   4.291
 5206WAT    HW215618   4.492   5.951   4.337
 5207WAT     OW15619   5.684   0.740   1.509
 5207WAT    HW115620   5.757   0.733   1.448
 5207WAT    HW215621   5.695   0.666   1.568
 5208WAT     OW15622   5.204   0.137   0.903
 5208WAT    HW115623   5.130   0.153   0.845
 5208WAT    HW215624   5.275   0.110   0.845
 5209WAT     OW15625   5.078   3.466   6.673
 5209WAT    HW115626   5.016   3.421   6.731
 5209WAT    HW215627   5.039   3.457   6.586
 5210WAT     OW15628   1.786   4.200   6.332
 5210WAT    HW115629   1.782   4.290   6.299
 5210WAT    HW215630   1.871   4.168   6.302
 5211WAT     OW15631   1.608   4.824   1.444
 5211WAT    HW115632   1.595   4.758   1.376
 5211WAT    HW215633   1.520   4.847   1.473
 5212WAT     OW15634   6.596   1.208   6.390
 5212WAT    HW115635   6.674   1.205   6.333
 5212WAT    HW215636   6.628   1.179   6.476
 5213WAT     OW15637   1.793   5.631   0.287
 5213WAT    HW115638   1.780   5.569   0.215
 5213WAT    HW215639   1.786   5.576   0.366
 5214WAT     OW15640   6.330   2.820   0.877
 5214WAT    HW115641   6.346   2.737   0.832
 5214WAT    HW215642   6.274   2.869   0.816
 5215WAT     OW15643   0.560   3.345   5.889
 5215WAT    HW115644   0.635   3.377   5.940
 5215WAT    HW215645   0.485   3.354   5.948
 5216WAT     OW15646   0.544   2.371   0.768
 5216WAT    HW115647   0.495   2.316   0.829
 5216WAT    HW215648   0.477   2.418   0.718
 5217WAT     OW15649   5.690   0.247   6.668
 5217WAT    HW115650   5.725   0.274   6.583
 5217WAT    HW215651   5.596   0.243   6.655
 5218WAT     OW15652   1.470   6.157   6.719
 5218WAT    HW115653   1.480   6.073   6.763
 5218WAT    HW215654   1.388   6.149   6.670
 5219WAT     OW15655   3.679   6.471   5.578
 5219WAT    HW115656   3.771   6.452   5.561
 5219WAT    HW215657   3.677   6.564   5.599
 5220WAT     OW15658   3.495   2.973   5.641
 5220WAT    HW115659   3.414   2.923   5.646
 5220WAT    HW215660   3.467   3.061   5.615
 5221WAT     OW15661   3.716   4.281   6.069
 5221WAT    HW115662   3.806   4.255   6.085
 5221WAT    HW215663   3.664   4.206   6.099
 5222WAT     OW15664   5.547   5.345   6.253
 5222WAT    HW115665   5.498   5.413   6.299
 5222WAT    HW215666   5.505   5.263   6.281
 5223WAT     OW15667   4.847   0.277   0.002
 5223WAT    HW115668   4.811   0.195   0.035
 5223WAT    HW215669   4.772   0.323  -0.035
 5224WAT     OW15670   0.289   2.007   5.387
 5224WAT    HW115671   0.260   2.038   5.301
 5224WAT    HW215672   0.220   1.948   5.416
 5225WAT     OW15673   3.416   5.954   4.873
 5225WAT    HW115674   3.369   5.881   4.832
 5225WAT    HW215675   3.362   5.978   4.948
 5226WAT     OW15676   0.093   6.323   6.526
 5226WAT    HW115677   0.178   6.361   6.503
 5226WAT    HW215678   0.047   6.315   6.443
 5227WAT     OW15679   4.426   0.778   1.901
 5227WAT    HW115680   4.463   0.690   1.900
 5227WAT    HW215681   4.470   0.822   1.975
 5228WAT     OW15682   1.206   5.844   4.778
 5228WAT    HW115683   1.274   5.789   4.737
 5228WAT    HW215684   1.238   5.859   4.867
 5229WAT     OW15685   5.560   6.568   0.091
 5229WAT    HW115686   5.470   6.582   0.061
 5229WAT    HW215687   5.576   6.474   0.077
 5230WAT     OW15688   3.248   4.914   0.874
 5230WAT    HW115689   3.268   4.825   0.903
 5230WAT    HW215690   3.189   4.949   0.941
 5231WAT     OW15691   0.413   5.014   5.893
 5231WAT    HW115692   0.487   5.068   5.921
 5231WAT    HW215693   0.361   5.071   5.837
 5232WAT     OW15694   5.735   2.545   3.517
 5232WAT    HW115695   5.650   2.502   3.522
 5232WAT    HW215696   5.719   2.624   3.464
 5233WAT     OW15697   2.909   6.474   4.194
 5233WAT    HW115698   2.872   6.430   4.270
 5233WAT    HW215699   3.003   6.478   4.213
 5234WAT     OW15700   5.594   4.845   6.049
 5234WAT    HW115701   5.584   4.906   5.976
 5234WAT    HW215702   5.660   4.782   6.019
 5235WAT     OW15703   0.851   2.043   5.889
 5235WAT    HW115704   0.875   2.056   5.981
 5235WAT    HW215705   0.932   2.059   5.841
 5236WAT     OW15706   1.935   2.530   2.094
 5236WAT    HW115707   1.900   2.500   2.178
 5236WAT    HW215708   1.962   2.621   2.111
 5237WAT     OW15709   2.503   2.304   5.233
 5237WAT    HW115710   2.464   2.222   5.262
 5237WAT    HW215711   2.462   2.321   5.148
 5238WAT     OW15712   1.636   6.134   0.739
 5238WAT    HW115713   1.639   6.118   0.834
 5238WAT    HW215714   1.546   6.160   0.721
 5239WAT     OW15715   2.907   2.470   6.111
 5239WAT    HW115716   2.914   2.374   6.119
 5239WAT    HW215717   2.998   2.501   6.114
 5240WAT     OW15718   6.603   0.930   3.556
 5240WAT    HW115719   6.696   0.954   3.550
 5240WAT    HW215720   6.603   0.834   3.562
 5241WAT     OW15721   5.488   6.029   4.412
 5241WAT    HW115722   5.571   6.064   4.381
 5241WAT    HW215723   5.509   5.988   4.496
 5242WAT     OW15724   6.333   2.087   4.147
 5242WAT    HW115725   6.326   1.996   4.119
 5242WAT    HW215726   6.412   2.089   4.201
 5243WAT     OW15727   4.584   1.878   5.216
 5243WAT    HW115728   4.504   1.919   5.248
 5243WAT    HW215729   4.633   1.950   5.176
 5244WAT     OW15730   6.613   5.709   0.587
 5244WAT    HW115731   6.568   5.727   0.504
 5244WAT    HW215732   6.696   5.670   0.561
 5245WAT     OW15733   2.664   1.765   5.678
 5245WAT    HW115734   2.726   1.833   5.705
 5245WAT    HW215735   2.583   1.787   5.725
 5246WAT     OW15736   0.697   1.212   5.163
 5246WAT    HW115737   0.658   1.154   5.097
 5246WAT    HW215738   0.769   1.255   5.118
 5247WAT     OW15739   3.413   1.759   3.331
 5247WAT    HW115740   3.472   1.730   3.401
 5247WAT    HW215741   3.329   1.719   3.352
 5248WAT     OW15742   4.255   2.646   5.243
 5248WAT    HW115743   4.238   2.591   5.320
 5248WAT    HW215744   4.215   2.598   5.170
 5249WAT     OW15745   2.423   1.228   5.196
 5249WAT    HW115746   2.516   1.214   5.211
 5249WAT    HW215747   2.419   1.297   5.130
 5250WAT     OW15748   3.508   4.708   1.566
 5250WAT    HW115749   3.520   4.752   1.482
 5250WAT    HW215750   3.551   4.623   1.556
 5251WAT     OW15751   4.788   4.205   1.118
 5251WAT    HW115752   4.715   4.266   1.101
 5251WAT    HW215753   4.846   4.253   1.177
 5252WAT     OW15754   1.073   1.442   3.534
 5252WAT    HW115755   1.139   1.373   3.543
 5252WAT    HW215756   1.084   1.473   3.444
 5253WAT     OW15757   6.006   4.418   0.385
 5253WAT    HW115758   5.979   4.399   0.474
 5253WAT    HW215759   6.101   4.409   0.386
 5254WAT     OW15760   4.457   3.032   4.495
 5254WAT    HW115761   4.470   2.994   4.408
 5254WAT    HW215762   4.412   3.115   4.479
 5255WAT     OW15763   4.453   5.982   0.758
 5255WAT    HW115764   4.458   5.893   0.722
 5255WAT    HW215765   4.425   6.037   0.685
 5256WAT     OW15766   1.910   0.825   6.447
 5256WAT    HW115767   1.879   0.770   6.376
 5256WAT    HW215768   1.833   0.842   6.500
 5257WAT     OW15769   0.452   4.167   0.256
 5257WAT    HW115770   0.386   4.105   0.225
 5257WAT    HW215771   0.469   4.224   0.180
 5258WAT     OW15772   1.297   5.492   2.788
 5258WAT    HW115773   1.278   5.547   2.863
 5258WAT    HW215774   1.336   5.551   2.723
 5259WAT     OW15775   4.146   0.986   2.982
 5259WAT    HW115776   4.208   0.914   2.972
 5259WAT    HW215777   4.091   0.982   2.905
 5260WAT     OW15778   6.070   4.358   3.163
 5260WAT    HW115779   6.047   4.342   3.072
 5260WAT    HW215780   5.989   4.391   3.203
 5261WAT     OW15781   1.991   4.720   1.382
 5261WAT    HW115782   2.050   4.757   1.448
 5261WAT    HW215783   1.930   4.791   1.361
 5262WAT     OW15784   3.924   1.328   2.498
 5262WAT    HW115785   4.013   1.362   2.486
 5262WAT    HW215786   3.903   1.350   2.589
 5263WAT     OW15787   0.957   5.334   5.795
 5263WAT    HW115788   0.960   5.383   5.713
 5263WAT    HW215789   0.907   5.391   5.854
 5264WAT     OW15790   5.303   6.647   2.094
 5264WAT    HW115791   5.348   6.622   2.175
 5264WAT    HW215792   5.216   6.608   2.102
 5265WAT     OW15793   1.190   3.574   0.806
 5265WAT    HW115794   1.157   3.496   0.760
 5265WAT    HW215795   1.205   3.545   0.895
 5266WAT     OW15796   3.515   2.190   2.820
 5266WAT    HW115797   3.540   2.168   2.910
 5266WAT    HW215798   3.592   2.167   2.768
 5267WAT     OW15799   6.345   5.089   1.385
 5267WAT    HW115800   6.401   5.016   1.357
 5267WAT    HW215801   6.397   5.134   1.452
 5268WAT     OW15802   6.532   6.048   0.361
 5268WAT    HW115803   6.445   6.083   0.339
 5268WAT    HW215804   6.519   5.953   0.363
 5269WAT     OW15805   1.736   1.749   5.184
 5269WAT    HW115806   1.786   1.722   5.260
 5269WAT    HW215807   1.711   1.840   5.202
 5270WAT     OW15808   1.046   2.620   4.991
 5270WAT    HW115809   1.124   2.609   4.937
 5270WAT    HW215810   0.991   2.546   4.970
 5271WAT     OW15811   1.503   0.790   3.398
 5271WAT    HW115812   1.544   0.815   3.481
 5271WAT    HW215813   1.560   0.721   3.364
 5272WAT     OW15814   2.137   3.885   5.833
 5272WAT    HW115815   2.232   3.891   5.844
 5272WAT    HW215816   2.112   3.972   5.801
 5273WAT     OW15817   5.594   5.925   6.565
 5273WAT    HW115818   5.642   6.007   6.574
 5273WAT    HW215819   5.658   5.865   6.524
 5274WAT     OW15820   0.902   5.068   5.833
 5274WAT    HW115821   0.922   5.161   5.824
 5274WAT    HW215822   0.975   5.024   5.791
 5275WAT     OW15823   0.907   0.783   6.327
 5275WAT    HW115824   0.950   0.860   6.364
 5275WAT    HW215825   0.960   0.761   6.250
 5276WAT     OW15826   0.139   5.757   5.507
 5276WAT    HW115827   0.045   5.742   5.520
 5276WAT    HW215828   0.180   5.678   5.542
 5277WAT     OW15829   6.492   1.244   2.116
 5277WAT    HW115830   6.459   1.162   2.080
 5277WAT    HW215831   6.548   1.218   2.189
 5278WAT     OW15832   4.651   2.151   0.604
 5278WAT    HW115833   4.729   2.096   0.607
 5278WAT    HW215834   4.639   2.180   0.694
 5279WAT     OW15835   2.667   1.525   2.931
 5279WAT    HW115836   2.741   1.568   2.975
 5279WAT    HW215837   2.602   1.594   2.920
 5280WAT     OW15838   6.628   5.653   2.356
 5280WAT    HW115839   6.589   5.578   2.400
 5280WAT    HW215840   6.596   5.649   2.266
 5281WAT     OW15841   1.370   2.891   2.359
 5281WAT    HW115842   1.464   2.904   2.370
 5281WAT    HW215843   1.337   2.976   2.331
 5282WAT     OW15844   4.458   3.639   1.401
 5282WAT    HW115845   4.398   3.601   1.336
 5282WAT    HW215846   4.545   3.608   1.374
 5283WAT     OW15847   0.751   5.972   2.680
 5283WAT    HW115848   0.784   5.887   2.710
 5283WAT    HW215849   0.790   5.982   2.593
 5284WAT     OW15850   2.781   5.661   4.562
 5284WAT    HW115851   2.690   5.635   4.577
 5284WAT    HW215852   2.828   5.578   4.555
 5285WAT     OW15853   1.473   2.535   2.524
 5285WAT    HW115854   1.426   2.613   2.554
 5285WAT    HW215855   1.520   2.565   2.446
 5286WAT     OW15856   3.455   3.816   2.535
 5286WAT    HW115857   3.464   3.912   2.533
 5286WAT    HW215858   3.368   3.800   2.497
 5287WAT     OW15859   0.408   0.978   5.142
 5287WAT    HW115860   0.444   0.922   5.211
 5287WAT    HW215861   0.330   0.931   5.111
 5288WAT     OW15862   4.021   5.054   1.373
 5288WAT    HW115863   4.111   5.047   1.407
 5288WAT    HW215864   4.007   5.148   1.361
 5289WAT     OW15865   0.767   0.929   2.038
 5289WAT    HW115866   0.690   0.911   2.092
 5289WAT    HW215867   0.770   0.857   1.975
 5290WAT     OW15868   4.532   0.229   3.195
 5290WAT    HW115869   4.602   0.258   3.136
 5290WAT    HW215870   4.546   0.134   3.203
 5291WAT     OW15871   3.580   6.572   3.128
 5291WAT    HW115872   3.601   6.564   3.035
 5291WAT    HW215873   3.485   6.582   3.130
 5292WAT     OW15874   2.312   4.751   0.838
 5292WAT    HW115875   2.330   4.770   0.746
 5292WAT    HW215876   2.309   4.837   0.880
 5293WAT     OW15877   1.392   0.296   1.015
 5293WAT    HW115878   1.360   0.209   0.993
 5293WAT    HW215879   1.478   0.281   1.055
 5294WAT     OW15880   2.292   4.047   1.922
 5294WAT    HW115881   2.340   3.988   1.863
 5294WAT    HW215882   2.359   4.082   1.980
 5295WAT     OW15883   6.108   6.582   2.664
 5295WAT    HW115884   6.094   6.625   2.579
 5295WAT    HW215885   6.065   6.497   2.656
 5296WAT     OW15886   5.475   6.328   5.053
 5296WAT    HW115887   5.411   6.388   5.014
 5296WAT    HW215888   5.431   6.244   5.055
 5297WAT     OW15889   3.759   5.530   3.721
 5297WAT    HW115890   3.714   5.458   3.675
 5297WAT    HW215891   3.835   5.549   3.666
 5298WAT     OW15892   5.206   4.983   6.277
 5298WAT    HW115893   5.112   4.966   6.270
 5298WAT    HW215894   5.242   4.904   6.318
 5299WAT     OW15895   4.588   2.952   1.251
 5299WAT    HW115896   4.567   2.859   1.240
 5299WAT    HW215897   4.514   2.988   1.300
 5300WAT     OW15898   0.813   0.445   4.044
 5300WAT    HW115899   0.792   0.364   3.998
 5300WAT    HW215900   0.905   0.460   4.024
 5301WAT     OW15901   0.217   2.142   4.739
 5301WAT    HW115902   0.224   2.171   4.648
 5301WAT    HW215903   0.256   2.054   4.739
 5302WAT     OW15904   0.767   3.068   0.741
 5302WAT    HW115905   0.763   3.033   0.652
 5302WAT    HW215906   0.826   3.009   0.788
 5303WAT     OW15907   0.730   1.341   5.721
 5303WAT    HW115908   0.690   1.400   5.657
 5303WAT    HW215909   0.783   1.281   5.668
 5304WAT     OW15910   3.173   3.160   4.376
 5304WAT    HW115911   3.208   3.246   4.399
 5304WAT    HW215912   3.104   3.178   4.312
 5305WAT     OW15913   2.838   3.121   4.473
 5305WAT    HW115914   2.914   3.068   4.498
 5305WAT    HW215915   2.783   3.062   4.421
 5306WAT     OW15916   5.400   6.082   0.730
 5306WAT    HW115917   5.471   6.145   0.723
 5306WAT    HW215918   5.348   6.113   0.805
 5307WAT     OW15919   3.795   4.928   0.500
 5307WAT    HW115920   3.777   5.015   0.465
 5307WAT    HW215921   3.710   4.894   0.526
 5308WAT     OW15922   2.778   1.497   3.891
 5308WAT    HW115923   2.759   1.590   3.906
 5308WAT    HW215924   2.753   1.454   3.973
 5309WAT     OW15925   6.071   0.646   6.544
 5309WAT    HW115926   6.154   0.656   6.591
 5309WAT    HW215927   6.004   0.658   6.611
 5310WAT     OW15928   5.840   0.226   6.049
 5310WAT    HW115929   5.931   0.196   6.049
 5310WAT    HW215930   5.801   0.185   6.125
 5311WAT     OW15931   2.985   1.696   0.345
 5311WAT    HW115932   3.043   1.639   0.295
 5311WAT    HW215933   3.004   1.676   0.436
 5312WAT     OW15934   1.345   0.134   5.059
 5312WAT    HW115935   1.313   0.048   5.032
 5312WAT    HW215936   1.334   0.189   4.982
 5313WAT     OW15937   4.114   0.451   2.463
 5313WAT    HW115938   4.023   0.428   2.442
 5313WAT    HW215939   4.109   0.538   2.501
 5314WAT     OW15940   2.588   5.298   0.373
 5314WAT    HW115941   2.675   5.261   0.389
 5314WAT    HW215942   2.570   5.278   0.282
 5315WAT     OW15943   3.915   4.274   5.631
 5315WAT    HW115944   3.928   4.211   5.561
 5315WAT    HW215945   3.988   4.336   5.622
 5316WAT     OW15946   1.282   2.597   4.834
 5316WAT    HW115947   1.281   2.549   4.751
 5316WAT    HW215948   1.373   2.593   4.863
 5317WAT     OW15949   4.884   2.401   2.908
 5317WAT    HW115950   4.830   2.324   2.887
 5317WAT    HW215951   4.974   2.372   2.890
 5318WAT     OW15952   2.604   3.395   1.089
 5318WAT    HW115953   2.697   3.413   1.100
 5318WAT    HW215954   2.600   3.323   1.026
 5319WAT     OW15955   3.405   4.958   0.042
 5319WAT    HW115956   3.392   4.931  -0.049
 5319WAT    HW215957   3.337   5.023   0.058
 5320WAT     OW15958   3.824   5.914   2.528
 5320WAT    HW115959   3.728   5.918   2.532
 5320WAT    HW215960   3.848   5.840   2.583
 5321WAT     OW15961   5.099   2.084   4.177
 5321WAT    HW115962   5.087   2.067   4.084
 5321WAT    HW215963   5.170   2.149   4.181
 5322WAT     OW15964   5.819   5.639   2.758
 5322WAT    HW115965   5.785   5.726   2.737
 5322WAT    HW215966   5.833   5.642   2.852
 5323WAT     OW15967   1.861   3.235   3.333
 5323WAT    HW115968   1.897   3.244   3.422
 5323WAT    HW215969   1.780   3.185   3.344
 5324WAT     OW15970   4.152   1.507   3.959
 5324WAT    HW115971   4.196   1.589   3.938
 5324WAT    HW215972   4.166   1.495   4.053
 5325WAT     OW15973   3.045   5.101   2.591
 5325WAT    HW115974   2.955   5.071   2.575
 5325WAT    HW215975   3.037   5.163   2.663
 5326WAT     OW15976   4.467   2.084   4.328
 5326WAT    HW115977   4.460   2.167   4.374
 5326WAT    HW215978   4.446   2.018   4.394
 5327WAT     OW15979   5.032   1.263   3.989
 5327WAT    HW115980   5.099   1.296   4.050
 5327WAT    HW215981   5.041   1.320   3.912
 5328WAT     OW15982   1.227   1.297   2.552
 5328WAT    HW115983   1.207   1.212   2.593
 5328WAT    HW215984   1.294   1.335   2.608
 5329WAT     OW15985   6.653   0.947   1.908
 5329WAT    HW115986   6.694   1.024   1.869
 5329WAT    HW215987   6.726   0.896   1.942
 5330WAT     OW15988   1.150   3.436   3.255
 5330WAT    HW115989   1.133   3.497   3.184
 5330WAT    HW215990   1.221   3.381   3.222
 5331WAT     OW15991   0.901   1.482   5.447
 5331WAT    HW115992   0.911   1.391   5.419
 5331WAT    HW215993   0.821   1.512   5.404
 5332WAT     OW15994   1.669   0.216   2.246
 5332WAT    HW115995   1.692   0.251   2.160
 5332WAT    HW215996   1.620   0.287   2.288
 5333WAT     OW15997   3.878   0.043   0.708
 5333WAT    HW115998   3.897   0.120   0.654
 5333WAT    HW215999   3.963   0.018   0.744
 5334WAT     OW16000   6.299   2.129   5.929
 5334WAT    HW116001   6.209   2.145   5.959
 5334WAT    HW216002   6.303   2.035   5.916
 5335WAT     OW16003   2.258   4.491   2.019
 5335WAT    HW116004   2.250   4.419   1.957
 5335WAT    HW216005   2.348   4.484   2.052
 5336WAT     OW16006   3.484   5.183   5.476
 5336WAT    HW116007   3.496   5.097   5.436
 5336WAT    HW216008   3.405   5.218   5.436
 5337WAT     OW16009   2.846   6.331   2.196
 5337WAT    HW116010   2.909   6.261   2.216
 5337WAT    HW216011   2.887   6.381   2.125
 5338WAT     OW16012   2.220   4.331   3.225
 5338WAT    HW116013   2.209   4.254   3.280
 5338WAT    HW216014   2.132   4.369   3.218
 5339WAT     OW16015   1.630   4.980   3.379
 5339WAT    HW116016   1.638   4.888   3.405
 5339WAT    HW216017   1.703   4.994   3.318
 5340WAT     OW16018   5.575   1.043   5.631
 5340WAT    HW116019   5.497   1.025   5.579
 5340WAT    HW216020   5.619   1.114   5.585
 5341WAT     OW16021   5.690   0.226   5.825
 5341WAT    HW116022   5.621   0.160   5.835
 5341WAT    HW216023   5.740   0.220   5.907
 5342WAT     OW16024   0.509   4.379   2.263
 5342WAT    HW116025   0.513   4.466   2.303
 5342WAT    HW216026   0.466   4.392   2.179
 5343WAT     OW16027   0.876   4.499   5.941
 5343WAT    HW116028   0.873   4.576   5.884
 5343WAT    HW216029   0.825   4.524   6.017
 5344WAT     OW16030   3.762   6.560   0.105
 5344WAT    HW116031   3.839   6.615   0.119
 5344WAT    HW216032   3.753   6.509   0.185
 5345WAT     OW16033   2.687   6.529   3.858
 5345WAT    HW116034   2.682   6.462   3.926
 5345WAT    HW216035   2.731   6.603   3.900
 5346WAT     OW16036   1.391   4.307   2.387
 5346WAT    HW116037   1.478   4.305   2.349
 5346WAT    HW216038   1.387   4.229   2.442
 5347WAT     OW16039   6.723   2.827   1.155
 5347WAT    HW116040   6.667   2.876   1.094
 5347WAT    HW216041   6.718   2.877   1.237
 5348WAT     OW16042   6.105   3.039   4.463
 5348WAT    HW116043   6.199   3.027   4.449
 5348WAT    HW216044   6.073   3.077   4.380
 5349WAT     OW16045   4.035   4.792   0.527
 5349WAT    HW116046   4.019   4.747   0.610
 5349WAT    HW216047   3.956   4.844   0.513
 5350WAT     OW16048   0.915   0.896   5.713
 5350WAT    HW116049   0.904   0.981   5.670
 5350WAT    HW216050   0.961   0.842   5.649
 5351WAT     OW16051   2.025   4.875   0.667
 5351WAT    HW116052   1.988   4.814   0.731
 5351WAT    HW216053   2.075   4.820   0.607
 5352WAT     OW16054   4.386   6.449   0.716
 5352WAT    HW116055   4.358   6.491   0.798
 5352WAT    HW216056   4.305   6.423   0.673
 5353WAT     OW16057   1.847   1.830   1.615
 5353WAT    HW116058   1.822   1.906   1.667
 5353WAT    HW216059   1.764   1.789   1.590
 5354WAT     OW16060   1.263   1.480   5.910
 5354WAT    HW116061   1.192   1.422   5.936
 5354WAT    HW216062   1.333   1.463   5.974
 5355WAT     OW16063   5.519   2.315   5.561
 5355WAT    HW116064   5.563   2.385   5.514
 5355WAT    HW216065   5.449   2.286   5.502
 5356WAT     OW16066   1.832   2.524   2.612
 5356WAT    HW116067   1.784   2.517   2.694
 5356WAT    HW216068   1.896   2.594   2.627
 5357WAT     OW16069   4.132   6.677   1.673
 5357WAT    HW116070   4.092   6.644   1.754
 5357WAT    HW216071   4.111   6.770   1.672
 5358WAT     OW16072   1.600   4.267   0.313
 5358WAT    HW116073   1.632   4.178   0.323
 5358WAT    HW216074   1.525   4.272   0.372
 5359WAT     OW16075   2.835   3.387   0.819
 5359WAT    HW116076   2.762   3.359   0.764
 5359WAT    HW216077   2.856   3.475   0.787
 5360WAT     OW16078   5.906   0.695   5.769
 5360WAT    HW116079   5.890   0.613   5.816
 5360WAT    HW216080   5.920   0.667   5.678
 5361WAT     OW16081   1.544   0.437   2.364
 5361WAT    HW116082   1.604   0.505   2.394
 5361WAT    HW216083   1.487   0.419   2.439
 5362WAT     OW16084   5.463   4.897   0.364
 5362WAT    HW116085   5.492   4.820   0.413
 5362WAT    HW216086   5.425   4.862   0.284
 5363WAT     OW16087   0.018   0.218   6.207
 5363WAT    HW116088  -0.069   0.185   6.226
 5363WAT    HW216089   0.004   0.298   6.156
 5364WAT     OW16090   4.867   1.988   0.617
 5364WAT    HW116091   4.864   1.963   0.709
 5364WAT    HW216092   4.955   2.022   0.603
 5365WAT     OW16093   5.525   0.926   4.302
 5365WAT    HW116094   5.598   0.909   4.362
 5365WAT    HW216095   5.464   0.854   4.317
 5366WAT     OW16096   2.950   3.625   1.437
 5366WAT    HW116097   2.990   3.656   1.519
 5366WAT    HW216098   2.948   3.530   1.446
 5367WAT     OW16099   3.004   5.830   5.412
 5367WAT    HW116100   2.953   5.749   5.416
 5367WAT    HW216101   3.029   5.838   5.320
 5368WAT     OW16102   4.952   2.656   2.848
 5368WAT    HW116103   4.882   2.698   2.797
 5368WAT    HW216104   4.914   2.574   2.879
 5369WAT     OW16105   0.670   3.283   6.274
 5369WAT    HW116106   0.614   3.205   6.282
 5369WAT    HW216107   0.611   3.352   6.243
 5370WAT     OW16108   4.265   6.459   3.765
 5370WAT    HW116109   4.184   6.410   3.757
 5370WAT    HW216110   4.239   6.551   3.757
 5371WAT     OW16111   3.958   5.831   4.907
 5371WAT    HW116112   3.883   5.780   4.939
 5371WAT    HW216113   3.979   5.890   4.979
 5372WAT     OW16114   0.897   5.783   6.687
 5372WAT    HW116115   0.861   5.861   6.729
 5372WAT    HW216116   0.820   5.737   6.654
 5373WAT     OW16117   5.049   6.554   2.111
 5373WAT    HW116118   5.015   6.470   2.142
 5373WAT    HW216119   4.990   6.579   2.039
 5374WAT     OW16120   4.533   2.184   2.519
 5374WAT    HW116121   4.616   2.227   2.503
 5374WAT    HW216122   4.474   2.254   2.546
 5375WAT     OW16123   1.773   5.338   3.615
 5375WAT    HW116124   1.693   5.346   3.564
 5375WAT    HW216125   1.799   5.429   3.632
 5376WAT     OW16126   0.720   1.383   4.606
 5376WAT    HW116127   0.651   1.334   4.562
 5376WAT    HW216128   0.707   1.364   4.699
 5377WAT     OW16129   2.307   1.897   0.770
 5377WAT    HW116130   2.321   1.805   0.751
 5377WAT    HW216131   2.257   1.930   0.695
 5378WAT     OW16132   1.889   4.136   5.984
 5378WAT    HW116133   1.869   4.042   5.986
 5378WAT    HW216134   1.936   4.152   6.066
 5379WAT     OW16135   1.802   4.799   4.770
 5379WAT    HW116136   1.794   4.826   4.678
 5379WAT    HW216137   1.848   4.715   4.767
 5380WAT     OW16138   4.043   4.935   3.192
 5380WAT    HW116139   3.958   4.970   3.215
 5380WAT    HW216140   4.091   4.929   3.275
 5381WAT     OW16141   2.856   2.633   5.691
 5381WAT    HW116142   2.837   2.717   5.650
 5381WAT    HW216143   2.914   2.589   5.629
 5382WAT     OW16144   1.604   0.571   4.458
 5382WAT    HW116145   1.554   0.494   4.434
 5382WAT    HW216146   1.539   0.633   4.492
 5383WAT     OW16147   2.138   2.078   1.261
 5383WAT    HW116148   2.099   2.011   1.317
 5383WAT    HW216149   2.162   2.032   1.181
 5384WAT     OW16150   5.379   5.520   2.964
 5384WAT    HW116151   5.390   5.484   3.052
 5384WAT    HW216152   5.395   5.614   2.974
 5385WAT     OW16153   6.340   5.079   2.048
 5385WAT    HW116154   6.341   5.164   2.003
 5385WAT    HW216155   6.288   5.094   2.127
 5386WAT     OW16156   2.811   1.338   0.478
 5386WAT    HW116157   2.895   1.296   0.459
 5386WAT    HW216158   2.806   1.341   0.573
 5387WAT     OW16159   2.804   0.095   5.757
 5387WAT    HW116160   2.860   0.046   5.697
 5387WAT    HW216161   2.730   0.038   5.773
 5388WAT     OW16162   5.401   5.671   4.507
 5388WAT    HW116163   5.415   5.727   4.430
 5388WAT    HW216164   5.338   5.605   4.477
 5389WAT     OW16165   2.012   0.689   6.658
 5389WAT    HW116166   1.988   0.743   6.583
 5389WAT    HW216167   1.993   0.744   6.734
 5390WAT     OW16168   5.130   2.895   0.475
 5390WAT    HW116169   5.154   2.975   0.523
 5390WAT    HW216170   5.146   2.916   0.383
 5391WAT     OW16171   0.886   0.156   5.923
 5391WAT    HW116172   0.815   0.220   5.926
 5391WAT    HW216173   0.924   0.158   6.011
 5392WAT     OW16174   4.759   3.990   4.647
 5392WAT    HW116175   4.821   3.990   4.720
 5392WAT    HW216176   4.783   3.913   4.595
 5393WAT     OW16177   1.997   0.895   0.124
 5393WAT    HW116178   2.091   0.906   0.129
 5393WAT    HW216179   1.967   0.968   0.070
 5394WAT     OW16180   5.619   0.738   2.004
 5394WAT    HW116181   5.553   0.687   1.957
 5394WAT    HW216182   5.677   0.673   2.042
 5395WAT     OW16183   6.114   5.477   6.185
 5395WAT    HW116184   6.103   5.536   6.111
 5395WAT    HW216185   6.146   5.396   6.146
 5396WAT     OW16186   6.435   1.354   2.830
 5396WAT    HW116187   6.445   1.449   2.830
 5396WAT    HW216188   6.525   1.321   2.830
 5397WAT     OW16189   2.929   2.999   1.425
 5397WAT    HW116190   2.891   2.928   1.374
 5397WAT    HW216191   2.855   3.037   1.473
 5398WAT     OW16192   5.069   0.859   3.448
 5398WAT    HW116193   5.110   0.790   3.395
 5398WAT    HW216194   4.976   0.853   3.427
 5399WAT     OW16195   6.041   2.714   1.722
 5399WAT    HW116196   5.949   2.687   1.720
 5399WAT    HW216197   6.038   2.807   1.746
 5400WAT     OW16198   2.284   5.138   3.436
 5400WAT    HW116199   2.231   5.213   3.410
 5400WAT    HW216200   2.258   5.067   3.377
 5401WAT     OW16201   4.080   5.826   1.830
 5401WAT    HW116202   4.168   5.836   1.795
 5401WAT    HW216203   4.083   5.867   1.916
 5402WAT     OW16204   0.063   4.765   2.282
 5402WAT    HW116205   0.087   4.694   2.223
 5402WAT    HW216206   0.113   4.840   2.250
 5403WAT     OW16207   4.557   6.575   3.445
 5403WAT    HW116208   4.572   6.610   3.357
 5403WAT    HW216209   4.644   6.550   3.476
 5404WAT     OW16210   2.149   5.105   5.222
 5404WAT    HW116211   2.229   5.140   5.262
 5404WAT    HW216212   2.086   5.178   5.226
 5405WAT     OW16213   2.325   5.212   2.014
 5405WAT    HW116214   2.279   5.220   1.931
 5405WAT    HW216215   2.255   5.214   2.080
 5406WAT     OW16216   4.572   4.131   2.483
 5406WAT    HW116217   4.494   4.151   2.535
 5406WAT    HW216218   4.642   4.124   2.548
 5407WAT     OW16219   6.697   2.259   5.569
 5407WAT    HW116220   6.793   2.254   5.564
 5407WAT    HW216221   6.672   2.186   5.626
 5408WAT     OW16222   1.193   2.662   3.347
 5408WAT    HW116223   1.164   2.720   3.277
 5408WAT    HW216224   1.113   2.642   3.396
 5409WAT     OW16225   1.942   2.597   5.364
 5409WAT    HW116226   1.936   2.517   5.416
 5409WAT    HW216227   2.031   2.597   5.329
 5410WAT     OW16228   3.729   6.413   5.904
 5410WAT    HW116229   3.643   6.454   5.895
 5410WAT    HW216230   3.745   6.412   5.998
 5411WAT     OW16231   5.934   6.679   0.574
 5411WAT    HW116232   5.914   6.753   0.630
 5411WAT    HW216233   5.899   6.603   0.621
 5412WAT     OW16234   6.630   0.199   0.704
 5412WAT    HW116235   6.565   0.177   0.638
 5412WAT    HW216236   6.583   0.253   0.768
 5413WAT     OW16237   0.397   1.054   2.799
 5413WAT    HW116238   0.353   0.969   2.797
 5413WAT    HW216239   0.453   1.054   2.721
 5414WAT     OW16240   3.906   3.388   3.750
 5414WAT    HW116241   3.842   3.417   3.815
 5414WAT    HW216242   3.959   3.465   3.731
 5415WAT     OW16243   0.591   0.205   6.459
 5415WAT    HW116244   0.518   0.267   6.461
 5415WAT    HW216245   0.559   0.129   6.508
 5416WAT     OW16246   5.978   6.550   2.207
 5416WAT    HW116247   5.908   6.485   2.212
 5416WAT    HW216248   6.058   6.498   2.205
 5417WAT     OW16249   0.518   4.340   5.835
 5417WAT    HW116250   0.560   4.284   5.901
 5417WAT    HW216251   0.569   4.324   5.755
 5418WAT     OW16252   5.929   4.801   3.412
 5418WAT    HW116253   5.923   4.736   3.481
 5418WAT    HW216254   5.853   4.785   3.356
 5419WAT     OW16255   0.581   5.624   0.131
 5419WAT    HW116256   0.650   5.661   0.186
 5419WAT    HW216257   0.503   5.675   0.151
 5420WAT     OW16258   4.852   5.767   2.566
 5420WAT    HW116259   4.855   5.679   2.603
 5420WAT    HW216260   4.880   5.824   2.638
 5421WAT     OW16261   2.578   0.086   6.537
 5421WAT    HW116262   2.653   0.062   6.590
 5421WAT    HW216263   2.533   0.003   6.519
 5422WAT     OW16264   3.626   0.468   6.151
 5422WAT    HW116265   3.644   0.393   6.095
 5422WAT    HW216266   3.540   0.449   6.189
 5423WAT     OW16267   0.585   0.151   0.532
 5423WAT    HW116268   0.531   0.073   0.548
 5423WAT    HW216269   0.529   0.207   0.479
 5424WAT     OW16270   6.498   0.013   5.062
 5424WAT    HW116271   6.499   0.038   4.970
 5424WAT    HW216272   6.584   0.040   5.095
 5425WAT     OW16273   1.250   1.118   2.331
 5425WAT    HW116274   1.204   1.157   2.257
 5425WAT    HW216275   1.248   1.185   2.399
 5426WAT     OW16276   1.006   1.133   0.452
 5426WAT    HW116277   1.053   1.130   0.536
 5426WAT    HW216278   0.983   1.042   0.434
 5427WAT     OW16279   3.875   0.035   6.111
 5427WAT    HW116280   3.894   0.055   6.203
 5427WAT    HW216281   3.867   0.121   6.069
 5428WAT     OW16282   3.539   2.362   4.026
 5428WAT    HW116283   3.466   2.326   3.976
 5428WAT    HW216284   3.602   2.390   3.960
 5429WAT     OW16285   2.579   5.337   3.160
 5429WAT    HW116286   2.652   5.333   3.222
 5429WAT    HW216287   2.551   5.246   3.150
 5430WAT     OW16288   0.151   3.482   1.598
 5430WAT    HW116289   0.109   3.488   1.684
 5430WAT    HW216290   0.243   3.503   1.614
 5431WAT     OW16291   2.764   3.131   5.694
 5431WAT    HW116292   2.713   3.211   5.689
 5431WAT    HW216293   2.809   3.136   5.779
 5432WAT     OW16294   2.382   2.086   6.294
 5432WAT    HW116295   2.330   2.132   6.228
 5432WAT    HW216296   2.382   1.995   6.265
 5433WAT     OW16297   0.137   6.087   5.706
 5433WAT    HW116298   0.087   6.133   5.772
 5433WAT    HW216299   0.183   6.018   5.755
 5434WAT     OW16300   5.274   3.898   4.129
 5434WAT    HW116301   5.183   3.918   4.106
 5434WAT    HW216302   5.268   3.856   4.215
 5435WAT     OW16303   5.264   5.584   4.102
 5435WAT    HW116304   5.262   5.562   4.195
 5435WAT    HW216305   5.172   5.582   4.075
 5436WAT     OW16306   1.513   2.128   4.293
 5436WAT    HW116307   1.608   2.116   4.291
 5436WAT    HW216308   1.491   2.158   4.205
 5437WAT     OW16309   2.982   2.191   6.714
 5437WAT    HW116310   2.920   2.149   6.773
 5437WAT    HW216311   2.929   2.217   6.639
 5438WAT     OW16312   3.600   1.550   0.632
 5438WAT    HW116313   3.541   1.475   0.638
 5438WAT    HW216314   3.673   1.528   0.690
 5439WAT     OW16315   4.899   6.008   1.204
 5439WAT    HW116316   4.958   5.944   1.244
 5439WAT    HW216317   4.954   6.083   1.184
 5440WAT     OW16318   5.908   1.439   4.867
 5440WAT    HW116319   5.949   1.486   4.794
 5440WAT    HW216320   5.837   1.497   4.896
 5441WAT     OW16321   6.177   4.787   0.655
 5441WAT    HW116322   6.126   4.776   0.736
 5441WAT    HW216323   6.237   4.859   0.674
 5442WAT     OW16324   6.395   5.340   0.042
 5442WAT    HW116325   6.435   5.297  -0.034
 5442WAT    HW216326   6.301   5.341   0.023
 5443WAT     OW16327   5.284   6.625   4.615
 5443WAT    HW116328   5.200   6.585   4.594
 5443WAT    HW216329   5.264   6.717   4.632
 5444WAT     OW16330   1.972   6.610   4.388
 5444WAT    HW116331   1.933   6.628   4.303
 5444WAT    HW216332   1.898   6.593   4.446
 5445WAT     OW16333   1.166   4.463   0.500
 5445WAT    HW116334   1.172   4.544   0.550
 5445WAT    HW216335   1.157   4.492   0.409
 5446WAT     OW16336   5.634   2.063   6.421
 5446WAT    HW116337   5.640   1.969   6.441
 5446WAT    HW216338   5.638   2.067   6.326
 5447WAT     OW16339   3.942   0.337   0.012
 5447WAT    HW116340   3.906   0.374   0.092
 5447WAT    HW216341   4.019   0.391  -0.007
 5448WAT     OW16342   5.405   2.473   4.007
 5448WAT    HW116343   5.480   2.532   4.005
 5448WAT    HW216344   5.343   2.515   4.066
 5449WAT     OW16345   5.490   2.959   0.789
 5449WAT    HW116346   5.566   2.920   0.747
 5449WAT    HW216347   5.464   3.030   0.730
 5450WAT     OW16348   3.467   5.952   3.122
 5450WAT    HW116349   3.445   6.044   3.109
 5450WAT    HW216350   3.419   5.927   3.201
 5451WAT     OW16351   2.253   2.436   4.773
 5451WAT    HW116352   2.258   2.531   4.776
 5451WAT    HW216353   2.160   2.416   4.772
 5452WAT     OW16354   3.469   0.847   0.298
 5452WAT    HW116355   3.376   0.843   0.320
 5452WAT    HW216356   3.502   0.760   0.320
 5453WAT     OW16357   2.136   1.348   0.696
 5453WAT    HW116358   2.169   1.404   0.625
 5453WAT    HW216359   2.198   1.275   0.699
 5454WAT     OW16360   4.024   4.478   3.785
 5454WAT    HW116361   4.038   4.552   3.843
 5454WAT    HW216362   4.112   4.448   3.761
 5455WAT     OW16363   3.661   2.364   6.473
 5455WAT    HW116364   3.576   2.406   6.489
 5455WAT    HW216365   3.725   2.423   6.514
 5456WAT     OW16366   6.202   0.098   1.172
 5456WAT    HW116367   6.159   0.095   1.087
 5456WAT    HW216368   6.187   0.187   1.204
 5457WAT     OW16369   4.243   5.419   4.176
 5457WAT    HW116370   4.269   5.337   4.134
 5457WAT    HW216371   4.161   5.398   4.221
 5458WAT     OW16372   2.182   5.927   0.846
 5458WAT    HW116373   2.233   6.005   0.824
 5458WAT    HW216374   2.226   5.856   0.800
 5459WAT     OW16375   6.451   0.118   3.327
 5459WAT    HW116376   6.503   0.182   3.278
 5459WAT    HW216377   6.361   0.151   3.322
 5460WAT     OW16378   0.206   1.011   2.499
 5460WAT    HW116379   0.273   0.948   2.523
 5460WAT    HW216380   0.172   0.979   2.415
 5461WAT     OW16381   2.983   1.322   1.228
 5461WAT    HW116382   2.966   1.378   1.303
 5461WAT    HW216383   3.061   1.359   1.187
 5462WAT     OW16384   2.677   6.107   5.247
 5462WAT    HW116385   2.651   6.016   5.255
 5462WAT    HW216386   2.596   6.154   5.227
 5463WAT     OW16387   0.925   4.839   3.558
 5463WAT    HW116388   1.009   4.823   3.601
 5463WAT    HW216389   0.926   4.932   3.536
 5464WAT     OW16390   2.192   4.724   4.684
 5464WAT    HW116391   2.118   4.721   4.623
 5464WAT    HW216392   2.154   4.708   4.770
 5465WAT     OW16393   5.102   5.583   2.445
 5465WAT    HW116394   5.109   5.561   2.352
 5465WAT    HW216395   5.124   5.676   2.449
 5466WAT     OW16396   5.474   2.022   2.124
 5466WAT    HW116397   5.570   2.022   2.126
 5466WAT    HW216398   5.452   2.064   2.040
 5467WAT     OW16399   3.652   3.818   3.805
 5467WAT    HW116400   3.701   3.782   3.879
 5467WAT    HW216401   3.560   3.812   3.831
 5468WAT     OW16402   4.772   5.913   4.023
 5468WAT    HW116403   4.799   5.842   4.081
 5468WAT    HW216404   4.813   5.892   3.939
 5469WAT     OW16405   0.836   4.645   2.997
 5469WAT    HW116406   0.824   4.564   3.048
 5469WAT    HW216407   0.846   4.614   2.907
 5470WAT     OW16408   0.188   1.544   2.239
 5470WAT    HW116409   0.162   1.487   2.312
 5470WAT    HW216410   0.245   1.489   2.186
 5471WAT     OW16411   2.822   0.618   3.989
 5471WAT    HW116412   2.823   0.523   3.983
 5471WAT    HW216413   2.764   0.636   4.063
 5472WAT     OW16414   1.419   4.337   4.703
 5472WAT    HW116415   1.470   4.321   4.624
 5472WAT    HW216416   1.347   4.392   4.673
 5473WAT     OW16417   0.027   1.693   0.222
 5473WAT    HW116418  -0.058   1.734   0.240
 5473WAT    HW216419   0.015   1.601   0.244
 5474WAT     OW16420   5.835   4.360   1.970
 5474WAT    HW116421   5.890   4.400   2.037
 5474WAT    HW216422   5.752   4.340   2.015
 5475WAT     OW16423   0.219   5.569   4.957
 5475WAT    HW116424   0.279   5.495   4.946
 5475WAT    HW216425   0.147   5.534   5.009
 5476WAT     OW16426   3.700   3.915   2.742
 5476WAT    HW116427   3.651   3.975   2.798
 5476WAT    HW216428   3.713   3.837   2.796
 5477WAT     OW16429   6.635   1.720   0.705
 5477WAT    HW116430   6.674   1.758   0.784
 5477WAT    HW216431   6.699   1.738   0.636
 5478WAT     OW16432   2.220   1.941   1.033
 5478WAT    HW116433   2.245   1.924   0.943
 5478WAT    HW216434   2.295   1.912   1.085
 5479WAT     OW16435   5.015   1.694   5.381
 5479WAT    HW116436   4.999   1.660   5.469
 5479WAT    HW216437   4.927   1.708   5.345
 5480WAT     OW16438   0.331   6.022   4.034
 5480WAT    HW116439   0.364   6.008   4.123
 5480WAT    HW216440   0.236   6.020   4.043
 5481WAT     OW16441   6.360   3.686   6.050
 5481WAT    HW116442   6.371   3.755   5.985
 5481WAT    HW216443   6.267   3.689   6.073
 5482WAT     OW16444   1.764   6.336   1.051
 5482WAT    HW116445   1.838   6.333   0.991
 5482WAT    HW216446   1.725   6.248   1.046
 5483WAT     OW16447   2.212   6.347   5.077
 5483WAT    HW116448   2.243   6.419   5.023
 5483WAT    HW216449   2.290   6.317   5.124
 5484WAT     OW16450   2.864   5.693   0.831
 5484WAT    HW116451   2.911   5.612   0.809
 5484WAT    HW216452   2.837   5.680   0.922
 5485WAT     OW16453   3.050   4.546   1.637
 5485WAT    HW116454   3.060   4.493   1.716
 5485WAT    HW216455   2.972   4.510   1.594
 5486WAT     OW16456   3.885   5.362   2.430
 5486WAT    HW116457   3.822   5.290   2.426
 5486WAT    HW216458   3.837   5.438   2.398
 5487WAT     OW16459   4.592   5.017   5.765
 5487WAT    HW116460   4.677   5.056   5.745
 5487WAT    HW216461   4.558   5.070   5.837
 5488WAT     OW16462   1.720   0.859   1.485
 5488WAT    HW116463   1.770   0.857   1.567
 5488WAT    HW216464   1.774   0.912   1.426
 5489WAT     OW16465   6.407   1.193   5.954
 5489WAT    HW116466   6.502   1.195   5.946
 5489WAT    HW216467   6.391   1.184   6.048
 5490WAT     OW16468   4.617   1.944   6.433
 5490WAT    HW116469   4.526   1.955   6.406
 5490WAT    HW216470   4.627   2.002   6.508
 5491WAT     OW16471   3.907   0.108   6.392
 5491WAT    HW116472   3.884   0.020   6.419
 5491WAT    HW216473   3.842   0.164   6.434
 5492WAT     OW16474   0.096   1.221   0.810
 5492WAT    HW116475   0.015   1.207   0.761
 5492WAT    HW216476   0.075   1.197   0.900
 5493WAT     OW16477   0.692   5.800   0.651
 5493WAT    HW116478   0.598   5.808   0.640
 5493WAT    HW216479   0.708   5.828   0.742
 5494WAT     OW16480   6.382   4.432   4.939
 5494WAT    HW116481   6.427   4.506   4.899
 5494WAT    HW216482   6.358   4.463   5.027
 5495WAT     OW16483   6.633   5.317   0.808
 5495WAT    HW116484   6.719   5.358   0.802
 5495WAT    HW216485   6.570   5.387   0.790
 5496WAT     OW16486   4.995   1.376   4.501
 5496WAT    HW116487   4.903   1.354   4.517
 5496WAT    HW216488   5.043   1.299   4.531
 5497WAT     OW16489   0.261   3.118   2.214
 5497WAT    HW116490   0.269   3.112   2.119
 5497WAT    HW216491   0.217   3.036   2.239
 5498WAT     OW16492   3.285   4.402   5.078
 5498WAT    HW116493   3.275   4.358   5.163
 5498WAT    HW216494   3.364   4.455   5.087
 5499WAT     OW16495   5.926   4.045   4.293
 5499WAT    HW116496   5.914   4.097   4.214
 5499WAT    HW216497   5.839   4.008   4.311
 5500WAT     OW16498   0.298   5.365   1.821
 5500WAT    HW116499   0.264   5.341   1.735
 5500WAT    HW216500   0.258   5.450   1.841
 5501WAT     OW16501   3.098   6.631   5.877
 5501WAT    HW116502   3.088   6.537   5.860
 5501WAT    HW216503   3.083   6.640   5.971
 5502WAT     OW16504   1.679   0.794   6.595
 5502WAT    HW116505   1.634   0.779   6.679
 5502WAT    HW216506   1.630   0.742   6.532
 5503WAT     OW16507   1.372   1.401   5.015
 5503WAT    HW116508   1.437   1.453   5.063
 5503WAT    HW216509   1.302   1.386   5.078
 5504WAT     OW16510   3.105   5.190   5.877
 5504WAT    HW116511   3.196   5.211   5.895
 5504WAT    HW216512   3.089   5.109   5.925
 5505WAT     OW16513   3.909   5.671   2.644
 5505WAT    HW116514   3.958   5.590   2.660
 5505WAT    HW216515   3.819   5.643   2.633
 5506WAT     OW16516   3.150   2.592   0.914
 5506WAT    HW116517   3.225   2.635   0.955
 5506WAT    HW216518   3.185   2.510   0.880
 5507WAT     OW16519   0.207   2.127   3.225
 5507WAT    HW116520   0.284   2.155   3.176
 5507WAT    HW216521   0.242   2.079   3.300
 5508WAT     OW16522   1.375   4.252   5.491
 5508WAT    HW116523   1.466   4.223   5.486
 5508WAT    HW216524   1.324   4.173   5.472
 5509WAT     OW16525   5.032   0.463   3.114
 5509WAT    HW116526   5.094   0.530   3.088
 5509WAT    HW216527   4.946   0.504   3.107
 5510WAT     OW16528   2.542   5.240   0.113
 5510WAT    HW116529   2.622   5.246   0.060
 5510WAT    HW216530   2.486   5.310   0.080
 5511WAT     OW16531   3.410   5.277   3.486
 5511WAT    HW116532   3.356   5.340   3.439
 5511WAT    HW216533   3.347   5.220   3.530
 5512WAT     OW16534   0.373   4.392   5.504
 5512WAT    HW116535   0.376   4.485   5.526
 5512WAT    HW216536   0.320   4.352   5.573
 5513WAT     OW16537   0.445   2.642   4.329
 5513WAT    HW116538   0.509   2.703   4.366
 5513WAT    HW216539   0.427   2.676   4.242
 5514WAT     OW16540   0.224   6.675   3.189
 5514WAT    HW116541   0.286   6.748   3.183
 5514WAT    HW216542   0.237   6.640   3.277
 5515WAT     OW16543   1.776   5.704   2.139
 5515WAT    HW116544   1.698   5.727   2.088
 5515WAT    HW216545   1.784   5.609   2.130
 5516WAT     OW16546   1.550   5.490   1.278
 5516WAT    HW116547   1.492   5.452   1.211
 5516WAT    HW216548   1.550   5.425   1.349
 5517WAT     OW16549   1.261   1.466   2.945
 5517WAT    HW116550   1.212   1.383   2.948
 5517WAT    HW216551   1.312   1.461   2.864
 5518WAT     OW16552   2.050   1.246   0.336
 5518WAT    HW116553   1.999   1.243   0.417
 5518WAT    HW216554   1.988   1.278   0.270
 5519WAT     OW16555   1.170   3.753   1.553
 5519WAT    HW116556   1.080   3.765   1.524
 5519WAT    HW216557   1.203   3.841   1.567
 5520WAT     OW16558   1.004   1.873   1.519
 5520WAT    HW116559   0.972   1.944   1.576
 5520WAT    HW216560   1.092   1.855   1.551
 5521WAT     OW16561   4.802   4.985   4.836
 5521WAT    HW116562   4.720   4.948   4.804
 5521WAT    HW216563   4.780   5.027   4.919
 5522WAT     OW16564   3.905   2.053   1.335
 5522WAT    HW116565   3.863   2.016   1.413
 5522WAT    HW216566   3.978   2.105   1.370
 5523WAT     OW16567   1.173   3.130   0.565
 5523WAT    HW116568   1.174   3.066   0.636
 5523WAT    HW216569   1.262   3.128   0.529
 5524WAT     OW16570   2.145   2.943   2.821
 5524WAT    HW116571   2.129   3.038   2.817
 5524WAT    HW216572   2.207   2.926   2.750
 5525WAT     OW16573   6.114   5.966   2.270
 5525WAT    HW116574   6.037   5.968   2.214
 5525WAT    HW216575   6.185   5.999   2.215
 5526WAT     OW16576   1.042   3.596   2.250
 5526WAT    HW116577   1.004   3.680   2.221
 5526WAT    HW216578   1.086   3.562   2.172
 5527WAT     OW16579   6.350   2.647   4.463
 5527WAT    HW116580   6.266   2.684   4.486
 5527WAT    HW216581   6.348   2.639   4.368
 5528WAT     OW16582   2.158   6.426   5.830
 5528WAT    HW116583   2.241   6.455   5.867
 5528WAT    HW216584   2.126   6.502   5.781
 5529WAT     OW16585   3.351   3.388   2.118
 5529WAT    HW116586   3.440   3.414   2.143
 5529WAT    HW216587   3.349   3.395   2.023
 5530WAT     OW16588   0.430   1.611   2.561
 5530WAT    HW116589   0.447   1.578   2.472
 5530WAT    HW216590   0.412   1.704   2.549
 5531WAT     OW16591   2.371   2.733   3.644
 5531WAT    HW116592   2.420   2.787   3.582
 5531WAT    HW216593   2.285   2.722   3.603
 5532WAT     OW16594   3.499   1.849   3.931
 5532WAT    HW116595   3.468   1.874   3.844
 5532WAT    HW216596   3.539   1.762   3.918
 5533WAT     OW16597   4.882   4.883   6.554
 5533WAT    HW116598   4.804   4.933   6.577
 5533WAT    HW216599   4.955   4.937   6.584
 5534WAT     OW16600   4.186   4.419   1.440
 5534WAT    HW116601   4.124   4.475   1.393
 5534WAT    HW216602   4.159   4.329   1.419
 5535WAT     OW16603   1.548   1.548   5.168
 5535WAT    HW116604   1.621   1.610   5.161
 5535WAT    HW216605   1.473   1.602   5.192
 5536WAT     OW16606   6.352   2.434   2.594
 5536WAT    HW116607   6.418   2.366   2.610
 5536WAT    HW216608   6.319   2.414   2.506
 5537WAT     OW16609   3.212   3.341   0.329
 5537WAT    HW116610   3.250   3.429   0.332
 5537WAT    HW216611   3.267   3.294   0.267
 5538WAT     OW16612   3.894   5.235   4.983
 5538WAT    HW116613   3.870   5.277   4.900
 5538WAT    HW216614   3.953   5.164   4.957
 5539WAT     OW16615   2.194   0.325   5.180
 5539WAT    HW116616   2.205   0.285   5.094
 5539WAT    HW216617   2.215   0.255   5.242
 5540WAT     OW16618   4.707   6.138   5.598
 5540WAT    HW116619   4.787   6.176   5.561
 5540WAT    HW216620   4.718   6.148   5.693
 5541WAT     OW16621   1.963   0.423   5.283
 5541WAT    HW116622   2.044   0.380   5.255
 5541WAT    HW216623   1.940   0.480   5.210
 5542WAT     OW16624   2.385   3.229   0.608
 5542WAT    HW116625   2.394   3.135   0.598
 5542WAT    HW216626   2.474   3.261   0.624
 5543WAT     OW16627   2.390   6.381   1.760
 5543WAT    HW116628   2.417   6.362   1.670
 5543WAT    HW216629   2.307   6.428   1.750
 5544WAT     OW16630   2.510   2.902   3.471
 5544WAT    HW116631   2.511   2.988   3.429
 5544WAT    HW216632   2.580   2.906   3.536
 5545WAT     OW16633   3.237   6.543   3.367
 5545WAT    HW116634   3.263   6.552   3.275
 5545WAT    HW216635   3.320   6.546   3.415
 5546WAT     OW16636   5.864   3.681   0.692
 5546WAT    HW116637   5.829   3.769   0.683
 5546WAT    HW216638   5.823   3.647   0.771
 5547WAT     OW16639   1.381   5.314   5.185
 5547WAT    HW116640   1.326   5.332   5.108
 5547WAT    HW216641   1.466   5.351   5.162
 5548WAT     OW16642   3.206   1.353   3.738
 5548WAT    HW116643   3.135   1.359   3.802
 5548WAT    HW216644   3.247   1.268   3.755
 5549WAT     OW16645   2.796   0.771   1.167
 5549WAT    HW116646   2.848   0.724   1.101
 5549WAT    HW216647   2.705   0.757   1.141
 5550WAT     OW16648   5.921   6.294   5.076
 5550WAT    HW116649   5.887   6.333   5.157
 5550WAT    HW216650   5.851   6.306   5.012
 5551WAT     OW16651   2.878   2.958   6.602
 5551WAT    HW116652   2.874   2.931   6.694
 5551WAT    HW216653   2.966   2.992   6.590
 5552WAT     OW16654   0.430   3.706   4.187
 5552WAT    HW116655   0.485   3.771   4.144
 5552WAT    HW216656   0.345   3.715   4.145
 5553WAT     OW16657   0.593   0.228   1.733
 5553WAT    HW116658   0.665   0.233   1.796
 5553WAT    HW216659   0.523   0.280   1.773
 5554WAT     OW16660   4.236   5.644   0.539
 5554WAT    HW116661   4.158   5.676   0.583
 5554WAT    HW216662   4.244   5.698   0.460
 5555WAT     OW16663   6.224   0.619   6.017
 5555WAT    HW116664   6.165   0.694   6.013
 5555WAT    HW216665   6.177   0.553   6.069
 5556WAT     OW16666   3.102   5.440   1.788
 5556WAT    HW116667   3.143   5.519   1.822
 5556WAT    HW216668   3.051   5.470   1.713
 5557WAT     OW16669   5.199   3.850   2.773
 5557WAT    HW116670   5.200   3.789   2.699
 5557WAT    HW216671   5.275   3.826   2.826
 5558WAT     OW16672   3.609   0.224   3.091
 5558WAT    HW116673   3.685   0.206   3.147
 5558WAT    HW216674   3.536   0.233   3.152
 5559WAT     OW16675   1.301   6.712   3.477
 5559WAT    HW116676   1.379   6.657   3.486
 5559WAT    HW216677   1.292   6.724   3.382
 5560WAT     OW16678   3.065   0.635   1.553
 5560WAT    HW116679   3.106   0.618   1.638
 5560WAT    HW216680   2.972   0.646   1.572
 5561WAT     OW16681   4.971   4.969   1.099
 5561WAT    HW116682   4.962   5.000   1.009
 5561WAT    HW216683   5.041   5.022   1.136
 5562WAT     OW16684   3.941   6.073   6.373
 5562WAT    HW116685   4.023   6.122   6.368
 5562WAT    HW216686   3.895   6.093   6.292
 5563WAT     OW16687   2.167   5.078   0.099
 5563WAT    HW116688   2.255   5.044   0.116
 5563WAT    HW216689   2.121   5.005   0.057
 5564WAT     OW16690   0.055   6.580   1.880
 5564WAT    HW116691   0.028   6.659   1.928
 5564WAT    HW216692   0.150   6.578   1.889
 5565WAT     OW16693   5.087   5.056   6.627
 5565WAT    HW116694   5.176   5.021   6.621
 5565WAT    HW216695   5.088   5.111   6.706
 5566WAT     OW16696   4.726   5.322   4.982
 5566WAT    HW116697   4.806   5.341   5.031
 5566WAT    HW216698   4.691   5.408   4.959
 5567WAT     OW16699   6.514   3.450   3.984
 5567WAT    HW116700   6.431   3.413   4.014
 5567WAT    HW216701   6.496   3.543   3.971
 5568WAT     OW16702   1.478   1.264   3.338
 5568WAT    HW116703   1.464   1.328   3.268
 5568WAT    HW216704   1.573   1.265   3.352
 5569WAT     OW16705   0.140   3.954   1.017
 5569WAT    HW116706   0.139   3.878   0.958
 5569WAT    HW216707   0.094   4.023   0.969
 5570WAT     OW16708   1.865   3.350   0.948
 5570WAT    HW116709   1.840   3.341   0.856
 5570WAT    HW216710   1.915   3.432   0.952
 5571WAT     OW16711   4.019   5.532   1.541
 5571WAT    HW116712   4.017   5.456   1.482
 5571WAT    HW216713   3.928   5.559   1.548
 5572WAT     OW16714   6.114   6.605   1.813
 5572WAT    HW116715   6.031   6.613   1.860
 5572WAT    HW216716   6.126   6.510   1.802
 5573WAT     OW16717   5.125   3.122   1.342
 5573WAT    HW116718   5.167   3.078   1.268
 5573WAT    HW216719   5.032   3.105   1.330
 5574WAT     OW16720   1.585   3.207   2.446
 5574WAT    HW116721   1.605   3.118   2.418
 5574WAT    HW216722   1.536   3.197   2.527
 5575WAT     OW16723   3.775   0.495   4.845
 5575WAT    HW116724   3.701   0.440   4.817
 5575WAT    HW216725   3.745   0.584   4.828
 5576WAT     OW16726   6.074   6.143   4.264
 5576WAT    HW116727   6.012   6.192   4.319
 5576WAT    HW216728   6.079   6.193   4.183
 5577WAT     OW16729   0.318   5.930   1.283
 5577WAT    HW116730   0.272   6.001   1.330
 5577WAT    HW216731   0.406   5.964   1.268
 5578WAT     OW16732   3.407   1.871   4.391
 5578WAT    HW116733   3.407   1.778   4.413
 5578WAT    HW216734   3.372   1.875   4.302
 5579WAT     OW16735   0.064   5.624   1.315
 5579WAT    HW116736   0.066   5.575   1.233
 5579WAT    HW216737   0.005   5.697   1.298
 5580WAT     OW16738   4.193   2.214   3.227
 5580WAT    HW116739   4.184   2.310   3.229
 5580WAT    HW216740   4.112   2.184   3.184
 5581WAT     OW16741   6.317   3.411   2.992
 5581WAT    HW116742   6.330   3.375   3.080
 5581WAT    HW216743   6.394   3.466   2.977
 5582WAT     OW16744   6.720   4.844   5.885
 5582WAT    HW116745   6.671   4.784   5.942
 5582WAT    HW216746   6.803   4.856   5.930
 5583WAT     OW16747   3.533   2.265   1.259
 5583WAT    HW116748   3.524   2.231   1.348
 5583WAT    HW216749   3.451   2.240   1.216
 5584WAT     OW16750   2.797   2.644   3.660
 5584WAT    HW116751   2.766   2.603   3.741
 5584WAT    HW216752   2.761   2.589   3.590
 5585WAT     OW16753   2.009   3.713   3.289
 5585WAT    HW116754   2.089   3.673   3.322
 5585WAT    HW216755   2.007   3.689   3.196
 5586WAT     OW16756   3.682   4.521   3.128
 5586WAT    HW116757   3.646   4.609   3.114
 5586WAT    HW216758   3.647   4.470   3.055
 5587WAT     OW16759   6.107   5.711   4.697
 5587WAT    HW116760   6.163   5.770   4.646
 5587WAT    HW216761   6.110   5.628   4.648
 5588WAT     OW16762   6.445   1.827   2.543
 5588WAT    HW116763   6.381   1.848   2.475
 5588WAT    HW216764   6.419   1.881   2.618
 5589WAT     OW16765   2.587   3.313   4.139
 5589WAT    HW116766   2.612   3.334   4.229
 5589WAT    HW216767   2.531   3.386   4.112
 5590WAT     OW16768   6.714   5.728   3.344
 5590WAT    HW116769   6.698   5.818   3.371
 5590WAT    HW216770   6.740   5.734   3.252
 5591WAT     OW16771   0.586   1.564   6.537
 5591WAT    HW116772   0.548   1.489   6.492
 5591WAT    HW216773   0.570   1.547   6.630
 5592WAT     OW16774   1.570   0.522   6.161
 5592WAT    HW116775   1.590   0.429   6.173
 5592WAT    HW216776   1.615   0.546   6.080
 5593WAT     OW16777   4.804   6.081   4.454
 5593WAT    HW116778   4.718   6.069   4.413
 5593WAT    HW216779   4.851   6.139   4.394
 5594WAT     OW16780   5.972   5.883   5.487
 5594WAT    HW116781   5.973   5.788   5.502
 5594WAT    HW216782   5.885   5.900   5.451
 5595WAT     OW16783   5.045   2.028   4.738
 5595WAT    HW116784   4.957   1.996   4.720
 5595WAT    HW216785   5.103   1.955   4.717
 5596WAT     OW16786   1.651   3.284   5.673
 5596WAT    HW116787   1.567   3.288   5.628
 5596WAT    HW216788   1.635   3.227   5.749
 5597WAT     OW16789   2.925   4.533   0.277
 5597WAT    HW116790   2.857   4.490   0.330
 5597WAT    HW216791   2.959   4.464   0.221
 5598WAT     OW16792   6.051   0.395   6.434
 5598WAT    HW116793   6.082   0.346   6.510
 5598WAT    HW216794   6.059   0.487   6.458
 5599WAT     OW16795   3.170   2.032   0.512
 5599WAT    HW116796   3.217   1.955   0.543
 5599WAT    HW216797   3.144   2.010   0.422
 5600WAT     OW16798   2.922   3.830   4.934
 5600WAT    HW116799   2.992   3.888   4.963
 5600WAT    HW216800   2.856   3.836   5.002
 5601WAT     OW16801   4.034   3.341   0.391
 5601WAT    HW116802   4.123   3.368   0.414
 5601WAT    HW216803   4.043   3.252   0.357
 5602WAT     OW16804   0.933   1.198   4.554
 5602WAT    HW116805   0.862   1.262   4.555
 5602WAT    HW216806   1.000   1.237   4.498
 5603WAT     OW16807   4.053   2.116   2.022
 5603WAT    HW116808   4.032   2.045   1.961
 5603WAT    HW216809   3.969   2.155   2.043
 5604WAT     OW16810   4.364   3.329   3.543
 5604WAT    HW116811   4.387   3.251   3.593
 5604WAT    HW216812   4.447   3.359   3.505
 5605WAT     OW16813   0.848   5.558   1.038
 5605WAT    HW116814   0.838   5.566   0.944
 5605WAT    HW216815   0.933   5.516   1.050
 5606WAT     OW16816   5.232   3.148   3.263
 5606WAT    HW116817   5.191   3.233   3.278
 5606WAT    HW216818   5.255   3.149   3.170
 5607WAT     OW16819   2.384   2.272   2.467
 5607WAT    HW116820   2.399   2.264   2.562
 5607WAT    HW216821   2.437   2.347   2.441
 5608WAT     OW16822   3.234   2.880   5.673
 5608WAT    HW116823   3.202   2.962   5.710
 5608WAT    HW216824   3.182   2.867   5.593
 5609WAT     OW16825   6.501   2.354   2.057
 5609WAT    HW116826   6.442   2.280   2.043
 5609WAT    HW216827   6.553   2.329   2.133
 5610WAT     OW16828   3.242   6.195   1.499
 5610WAT    HW116829   3.327   6.224   1.533
 5610WAT    HW216830   3.226   6.253   1.424
 5611WAT     OW16831   3.310   5.882   3.341
 5611WAT    HW116832   3.353   5.796   3.343
 5611WAT    HW216833   3.220   5.864   3.368
 5612WAT     OW16834   0.433   0.828   1.161
 5612WAT    HW116835   0.424   0.872   1.246
 5612WAT    HW216836   0.411   0.737   1.178
 5613WAT     OW16837   3.141   1.696   1.453
 5613WAT    HW116838   3.216   1.667   1.504
 5613WAT    HW216839   3.084   1.619   1.446
 5614WAT     OW16840   5.868   3.266   0.721
 5614WAT    HW116841   5.871   3.219   0.805
 5614WAT    HW216842   5.952   3.313   0.719
 5615WAT     OW16843   2.969   4.919   2.020
 5615WAT    HW116844   3.046   4.872   1.990
 5615WAT    HW216845   2.924   4.945   1.940
 5616WAT     OW16846   5.954   2.227   0.475
 5616WAT    HW116847   6.023   2.203   0.537
 5616WAT    HW216848   5.887   2.158   0.485
 5617WAT     OW16849   1.798   3.622   3.456
 5617WAT    HW116850   1.866   3.642   3.393
 5617WAT    HW216851   1.719   3.608   3.403
 5618WAT     OW16852   6.545   0.779   1.413
 5618WAT    HW116853   6.531   0.807   1.503
 5618WAT    HW216854   6.512   0.689   1.410
 5619WAT     OW16855   0.763   1.992   3.433
 5619WAT    HW116856   0.810   1.980   3.516
 5619WAT    HW216857   0.819   1.950   3.368
 5620WAT     OW16858   1.585   0.875   0.285
 5620WAT    HW116859   1.529   0.851   0.359
 5620WAT    HW216860   1.569   0.807   0.220
 5621WAT     OW16861   2.153   5.754   6.532
 5621WAT    HW116862   2.245   5.768   6.512
 5621WAT    HW216863   2.107   5.776   6.451
 5622WAT     OW16864   0.073   4.796   2.945
 5622WAT    HW116865  -0.006   4.838   2.910
 5622WAT    HW216866   0.143   4.860   2.930
 5623WAT     OW16867   0.987   4.601   6.321
 5623WAT    HW116868   1.018   4.658   6.250
 5623WAT    HW216869   1.064   4.586   6.376
 5624WAT     OW16870   5.525   2.070   3.198
 5624WAT    HW116871   5.563   2.099   3.281
 5624WAT    HW216872   5.592   2.091   3.132
 5625WAT     OW16873   0.433   5.975   4.284
 5625WAT    HW116874   0.516   5.945   4.249
 5625WAT    HW216875   0.436   5.950   4.377
 5626WAT     OW16876   3.463   3.891   3.073
 5626WAT    HW116877   3.439   3.955   3.140
 5626WAT    HW216878   3.508   3.941   3.006
 5627WAT     OW16879   3.893   3.236   2.089
 5627WAT    HW116880   3.906   3.318   2.136
 5627WAT    HW216881   3.957   3.176   2.128
 5628WAT     OW16882   5.276   3.851   0.965
 5628WAT    HW116883   5.355   3.835   0.913
 5628WAT    HW216884   5.260   3.769   1.010
 5629WAT     OW16885   2.562   3.317   1.578
 5629WAT    HW116886   2.475   3.323   1.538
 5629WAT    HW216887   2.584   3.407   1.602
 5630WAT     OW16888   6.368   4.995   6.598
 5630WAT    HW116889   6.427   4.922   6.584
 5630WAT    HW216890   6.421   5.073   6.581
 5631WAT     OW16891   4.950   3.030   0.097
 5631WAT    HW116892   4.974   2.942   0.066
 5631WAT    HW216893   4.960   3.086   0.020
 5632WAT     OW16894   2.141   6.512   1.734
 5632WAT    HW116895   2.095   6.468   1.805
 5632WAT    HW216896   2.080   6.509   1.661
 5633WAT     OW16897   3.562   0.763   6.579
 5633WAT    HW116898   3.538   0.855   6.596
 5633WAT    HW216899   3.563   0.756   6.484
 5634WAT     OW16900   5.705   5.057   1.112
 5634WAT    HW116901   5.635   4.997   1.087
 5634WAT    HW216902   5.732   5.099   1.031
 5635WAT     OW16903   4.095   2.980   6.205
 5635WAT    HW116904   4.016   2.946   6.247
 5635WAT    HW216905   4.136   3.034   6.272
 5636WAT     OW16906   0.488   1.692   2.950
 5636WAT    HW116907   0.529   1.709   3.035
 5636WAT    HW216908   0.505   1.771   2.899
 5637WAT     OW16909   3.494   4.093   2.486
 5637WAT    HW116910   3.452   4.171   2.523
 5637WAT    HW216911   3.577   4.125   2.451
 5638WAT     OW16912   2.842   3.353   2.030
 5638WAT    HW116913   2.771   3.303   2.069
 5638WAT    HW216914   2.801   3.403   1.960
 5639WAT     OW16915   2.620   3.364   5.675
 5639WAT    HW116916   2.532   3.398   5.690
 5639WAT    HW216917   2.678   3.433   5.707
 5640WAT     OW16918   4.731   6.031   0.304
 5640WAT    HW116919   4.659   5.969   0.303
 5640WAT    HW216920   4.809   5.977   0.322
 5641WAT     OW16921   3.284   2.983   1.827
 5641WAT    HW116922   3.220   2.949   1.765
 5641WAT    HW216923   3.333   3.048   1.777
 5642WAT     OW16924   1.295   6.118   3.073
 5642WAT    HW116925   1.269   6.058   3.003
 5642WAT    HW216926   1.368   6.074   3.117
 5643WAT     OW16927   0.810   5.848   4.581
 5643WAT    HW116928   0.862   5.795   4.641
 5643WAT    HW216929   0.837   5.819   4.493
 5644WAT     OW16930   1.730   5.787   3.418
 5644WAT    HW116931   1.636   5.770   3.408
 5644WAT    HW216932   1.735   5.877   3.447
 5645WAT     OW16933   5.062   0.655   0.461
 5645WAT    HW116934   5.009   0.720   0.507
 5645WAT    HW216935   5.081   0.589   0.527
 5646WAT     OW16936   4.018   0.399   1.200
 5646WAT    HW116937   4.021   0.493   1.217
 5646WAT    HW216938   3.947   0.389   1.137
 5647WAT     OW16939   2.858   6.326   5.203
 5647WAT    HW116940   2.799   6.256   5.232
 5647WAT    HW216941   2.819   6.358   5.122
 5648WAT     OW16942   3.900   4.353   3.120
 5648WAT    HW116943   3.831   4.420   3.121
 5648WAT    HW216944   3.863   4.281   3.070
 5649WAT     OW16945   6.477   5.884   3.692
 5649WAT    HW116946   6.451   5.836   3.771
 5649WAT    HW216947   6.566   5.914   3.710
 5650WAT     OW16948   5.218   0.381   1.043
 5650WAT    HW116949   5.234   0.376   1.137
 5650WAT    HW216950   5.231   0.291   1.012
 5651WAT     OW16951   4.226   1.417   3.395
 5651WAT    HW116952   4.250   1.477   3.323
 5651WAT    HW216953   4.291   1.347   3.389
 5652WAT     OW16954   4.763   6.169   4.112
 5652WAT    HW116955   4.841   6.179   4.165
 5652WAT    HW216956   4.767   6.078   4.081
 5653WAT     OW16957   0.996   6.515   6.048
 5653WAT    HW116958   1.027   6.561   5.970
 5653WAT    HW216959   0.911   6.478   6.022
 5654WAT     OW16960   4.549   5.160   2.638
 5654WAT    HW116961   4.454   5.158   2.627
 5654WAT    HW216962   4.575   5.245   2.603
 5655WAT     OW16963   6.305   6.192   3.164
 5655WAT    HW116964   6.332   6.104   3.136
 5655WAT    HW216965   6.222   6.178   3.209
 5656WAT     OW16966   6.680   2.988   1.390
 5656WAT    HW116967   6.623   3.050   1.435
 5656WAT    HW216968   6.715   2.933   1.460
 5657WAT     OW16969   1.791   4.192   4.194
 5657WAT    HW116970   1.817   4.201   4.102
 5657WAT    HW216971   1.794   4.098   4.211
 5658WAT     OW16972   2.295   5.714   0.714
 5658WAT    HW116973   2.328   5.664   0.639
 5658WAT    HW216974   2.360   5.699   0.783
 5659WAT     OW16975   3.077   6.563   3.604
 5659WAT    HW116976   2.984   6.545   3.587
 5659WAT    HW216977   3.120   6.546   3.520
 5660WAT     OW16978   5.585   4.434   3.917
 5660WAT    HW116979   5.634   4.496   3.970
 5660WAT    HW216980   5.590   4.351   3.965
 5661WAT     OW16981   4.516   6.693   3.810
 5661WAT    HW116982   4.490   6.721   3.722
 5661WAT    HW216983   4.609   6.673   3.802
 5662WAT     OW16984   3.231   2.610   3.783
 5662WAT    HW116985   3.271   2.534   3.740
 5662WAT    HW216986   3.220   2.583   3.874
 5663WAT     OW16987   0.038   1.221   1.107
 5663WAT    HW116988  -0.032   1.160   1.086
 5663WAT    HW216989   0.094   1.172   1.168
 5664WAT     OW16990   4.672   4.264   2.879
 5664WAT    HW116991   4.716   4.205   2.816
 5664WAT    HW216992   4.707   4.351   2.858
 5665WAT     OW16993   1.782   5.518   0.546
 5665WAT    HW116994   1.865   5.560   0.568
 5665WAT    HW216995   1.784   5.435   0.593
 5666WAT     OW16996   0.691   6.242   6.127
 5666WAT    HW116997   0.690   6.332   6.094
 5666WAT    HW216998   0.608   6.204   6.098
 5667WAT     OW16999   2.930   2.818   0.481
 5667WAT    HW117000   3.002   2.862   0.436
 5667WAT    HW217001   2.967   2.789   0.564
 5668WAT     OW17002   6.166   0.924   5.407
 5668WAT    HW117003   6.165   0.974   5.489
 5668WAT    HW217004   6.091   0.956   5.358
 5669WAT     OW17005   3.367   1.952   0.807
 5669WAT    HW117006   3.280   1.985   0.832
 5669WAT    HW217007   3.415   2.030   0.780
 5670WAT     OW17008   1.318   1.590   3.856
 5670WAT    HW117009   1.314   1.657   3.925
 5670WAT    HW217010   1.342   1.510   3.902
 5671WAT     OW17011   1.735   5.461   0.912
 5671WAT    HW117012   1.745   5.399   0.840
 5671WAT    HW217013   1.685   5.534   0.874
 5672WAT     OW17014   2.507   0.969   3.225
 5672WAT    HW117015   2.520   1.063   3.237
 5672WAT    HW217016   2.445   0.963   3.152
 5673WAT     OW17017   3.585   4.953   0.817
 5673WAT    HW117018   3.534   5.034   0.813
 5673WAT    HW217019   3.573   4.913   0.730
 5674WAT     OW17020   1.406   1.441   2.713
 5674WAT    HW117021   1.375   1.513   2.659
 5674WAT    HW217022   1.500   1.436   2.696
 5675WAT     OW17023   2.606   1.713   6.133
 5675WAT    HW117024   2.679   1.748   6.081
 5675WAT    HW217025   2.591   1.626   6.096
 5676WAT     OW17026   2.909   1.568   6.356
 5676WAT    HW117027   2.983   1.549   6.415
 5676WAT    HW217028   2.942   1.637   6.298
 5677WAT     OW17029   1.084   1.939   0.432
 5677WAT    HW117030   1.029   1.961   0.507
 5677WAT    HW217031   1.093   2.021   0.383
 5678WAT     OW17032   2.234   4.761   3.712
 5678WAT    HW117033   2.167   4.825   3.687
 5678WAT    HW217034   2.289   4.753   3.634
 5679WAT     OW17035   2.785   2.456   4.292
 5679WAT    HW117036   2.855   2.449   4.228
 5679WAT    HW217037   2.777   2.367   4.329
 5680WAT     OW17038   3.045   0.168   2.888
 5680WAT    HW117039   2.975   0.210   2.938
 5680WAT    HW217040   3.000   0.099   2.838
 5681WAT     OW17041   5.049   1.807   1.330
 5681WAT    HW117042   5.007   1.739   1.276
 5681WAT    HW217043   5.064   1.765   1.414
 5682WAT     OW17044   0.544   5.921   0.020
 5682WAT    HW117045   0.551   5.914  -0.075
 5682WAT    HW217046   0.463   5.971   0.035
 5683WAT     OW17047   2.559   1.009   6.640
 5683WAT    HW117048   2.615   0.994   6.564
 5683WAT    HW217049   2.478   0.963   6.621
 5684WAT     OW17050   3.226   6.380   3.980
 5684WAT    HW117051   3.160   6.311   3.974
 5684WAT    HW217052   3.306   6.334   4.009
 5685WAT     OW17053   2.668   3.298   6.587
 5685WAT    HW117054   2.755   3.289   6.624
 5685WAT    HW217055   2.616   3.229   6.629
 5686WAT     OW17056   2.903   3.970   4.035
 5686WAT    HW117057   2.965   4.015   3.977
 5686WAT    HW217058   2.956   3.943   4.110
 5687WAT     OW17059   1.967   3.046   3.802
 5687WAT    HW117060   1.908   3.066   3.874
 5687WAT    HW217061   2.054   3.042   3.843
 5688WAT     OW17062   2.114   5.812   3.314
 5688WAT    HW117063   2.109   5.875   3.242
 5688WAT    HW217064   2.127   5.727   3.271
 5689WAT     OW17065   3.044   4.016   5.807
 5689WAT    HW117066   2.985   4.054   5.872
 5689WAT    HW217067   3.130   4.015   5.850
 5690WAT     OW17068   4.896   4.516   3.217
 5690WAT    HW117069   4.876   4.566   3.138
 5690WAT    HW217070   4.811   4.481   3.244
 5691WAT     OW17071   5.320   4.464   3.831
 5691WAT    HW117072   5.405   4.446   3.869
 5691WAT    HW217073   5.278   4.378   3.825
 5692WAT     OW17074   2.556   3.477   1.988
 5692WAT    HW117075   2.488   3.489   1.921
 5692WAT    HW217076   2.596   3.564   1.996
 5693WAT     OW17077   5.463   5.559   5.386
 5693WAT    HW117078   5.462   5.611   5.466
 5693WAT    HW217079   5.498   5.474   5.412
 5694WAT     OW17080   2.215   6.617   1.408
 5694WAT    HW117081   2.258   6.689   1.456
 5694WAT    HW217082   2.134   6.602   1.456
 5695WAT     OW17083   1.041   2.046   4.643
 5695WAT    HW117084   1.077   1.984   4.579
 5695WAT    HW217085   1.028   2.127   4.594
 5696WAT     OW17086   3.673   2.256   1.793
 5696WAT    HW117087   3.614   2.259   1.869
 5696WAT    HW217088   3.698   2.164   1.787
 5697WAT     OW17089   5.827   4.636   0.364
 5697WAT    HW117090   5.874   4.553   0.371
 5697WAT    HW217091   5.894   4.702   0.379
 5698WAT     OW17092   1.018   4.877   5.420
 5698WAT    HW117093   1.067   4.947   5.378
 5698WAT    HW217094   0.940   4.920   5.456
 5699WAT     OW17095   6.070   3.006   1.105
 5699WAT    HW117096   6.056   3.001   1.199
 5699WAT    HW217097   6.033   3.091   1.080
 5700WAT     OW17098   5.446   2.599   0.798
 5700WAT    HW117099   5.382   2.661   0.832
 5700WAT    HW217100   5.403   2.513   0.805
 5701WAT     OW17101   2.117   4.040   1.375
 5701WAT    HW117102   2.199   4.088   1.386
 5701WAT    HW217103   2.137   3.972   1.311
 5702WAT     OW17104   0.276   0.853   5.460
 5702WAT    HW117105   0.346   0.813   5.408
 5702WAT    HW217106   0.198   0.848   5.403
 5703WAT     OW17107   2.821   3.110   3.313
 5703WAT    HW117108   2.868   3.030   3.338
 5703WAT    HW217109   2.838   3.119   3.219
 5704WAT     OW17110   0.856   2.881   5.055
 5704WAT    HW117111   0.920   2.819   5.020
 5704WAT    HW217112   0.833   2.846   5.140
 5705WAT     OW17113   5.803   3.700   1.157
 5705WAT    HW117114   5.871   3.650   1.202
 5705WAT    HW217115   5.755   3.744   1.228
 5706WAT     OW17116   3.545   2.241   2.446
 5706WAT    HW117117   3.527   2.213   2.536
 5706WAT    HW217118   3.627   2.198   2.423
 5707WAT     OW17119   4.473   4.502   4.303
 5707WAT    HW117120   4.547   4.462   4.348
 5707WAT    HW217121   4.512   4.545   4.226
 5708WAT     OW17122   4.313   3.434   5.571
 5708WAT    HW117123   4.312   3.340   5.587
 5708WAT    HW217124   4.312   3.442   5.476
 5709WAT     OW17125   2.800   3.650   6.054
 5709WAT    HW117126   2.858   3.720   6.086
 5709WAT    HW217127   2.717   3.665   6.099
 5710WAT     OW17128   5.536   2.950   1.238
 5710WAT    HW117129   5.579   3.028   1.274
 5710WAT    HW217130   5.606   2.901   1.195
 5711WAT     OW17131   1.467   6.559   5.141
 5711WAT    HW117132   1.434   6.519   5.221
 5711WAT    HW217133   1.514   6.637   5.172
 5712WAT     OW17134   2.553   3.342   6.226
 5712WAT    HW117135   2.487   3.284   6.263
 5712WAT    HW217136   2.587   3.391   6.301
 5713WAT     OW17137   0.561   1.717   0.236
 5713WAT    HW117138   0.624   1.784   0.210
 5713WAT    HW217139   0.562   1.718   0.332
 5714WAT     OW17140   1.161   4.612   5.659
 5714WAT    HW117141   1.139   4.547   5.593
 5714WAT    HW217142   1.227   4.667   5.618
 5715WAT     OW17143   5.108   1.025   0.928
 5715WAT    HW117144   5.022   0.984   0.940
 5715WAT    HW217145   5.124   1.018   0.834
 5716WAT     OW17146   1.671   0.490   0.564
 5716WAT    HW117147   1.706   0.451   0.644
 5716WAT    HW217148   1.598   0.545   0.594
 5717WAT     OW17149   0.638   2.402   2.982
 5717WAT    HW117150   0.604   2.316   3.007
 5717WAT    HW217151   0.720   2.383   2.938
 5718WAT     OW17152   5.266   0.406   1.314
 5718WAT    HW117153   5.251   0.329   1.369
 5718WAT    HW217154   5.218   0.477   1.357
 5719WAT     OW17155   5.706   0.951   1.852
 5719WAT    HW117156   5.792   0.917   1.827
 5719WAT    HW217157   5.669   0.881   1.907
 5720WAT     OW17158   2.747   6.181   5.521
 5720WAT    HW117159   2.741   6.143   5.433
 5720WAT    HW217160   2.656   6.187   5.550
 5721WAT     OW17161   4.376   5.059   5.598
 5721WAT    HW117162   4.458   5.032   5.640
 5721WAT    HW217163   4.312   5.064   5.669
 5722WAT     OW17164   6.616   2.624   6.271
 5722WAT    HW117165   6.621   2.596   6.179
 5722WAT    HW217166   6.665   2.558   6.319
 5723WAT     OW17167   0.210   0.551   6.032
 5723WAT    HW117168   0.229   0.629   5.979
 5723WAT    HW217169   0.256   0.480   5.987
 5724WAT     OW17170   6.464   3.760   4.383
 5724WAT    HW117171   6.427   3.788   4.299
 5724WAT    HW217172   6.406   3.799   4.449
 5725WAT     OW17173   2.900   4.435   3.674
 5725WAT    HW117174   2.955   4.451   3.752
 5725WAT    HW217175   2.848   4.515   3.665
 5726WAT     OW17176   1.703   5.602   3.880
 5726WAT    HW117177   1.746   5.605   3.795
 5726WAT    HW217178   1.643   5.677   3.880
 5727WAT     OW17179   1.757   5.612   1.151
 5727WAT    HW117180   1.685   5.580   1.205
 5727WAT    HW217181   1.755   5.556   1.073
 5728WAT     OW17182   3.174   0.800   2.970
 5728WAT    HW117183   3.134   0.733   3.026
 5728WAT    HW217184   3.261   0.814   3.008
 5729WAT     OW17185   4.612   6.380   6.531
 5729WAT    HW117186   4.614   6.286   6.549
 5729WAT    HW217187   4.664   6.390   6.451
 5730WAT     OW17188   2.543   4.971   1.432
 5730WAT    HW117189   2.603   5.014   1.372
 5730WAT    HW217190   2.457   4.978   1.391
 5731WAT     OW17191   2.591   2.599   0.480
 5731WAT    HW117192   2.646   2.524   0.501
 5731WAT    HW217193   2.507   2.580   0.523
 5732WAT     OW17194   4.804   0.854   4.138
 5732WAT    HW117195   4.815   0.945   4.111
 5732WAT    HW217196   4.720   0.853   4.183
 5733WAT     OW17197   0.813   5.700   4.965
 5733WAT    HW117198   0.847   5.698   4.875
 5733WAT    HW217199   0.890   5.717   5.019
 5734WAT     OW17200   6.701   2.087   2.053
 5734WAT    HW117201   6.795   2.107   2.049
 5734WAT    HW217202   6.668   2.142   2.124
 5735WAT     OW17203   5.248   5.914   1.478
 5735WAT    HW117204   5.186   5.882   1.413
 5735WAT    HW217205   5.197   5.919   1.559
 5736WAT     OW17206   6.287   4.380   0.426
 5736WAT    HW117207   6.329   4.302   0.461
 5736WAT    HW217208   6.311   4.450   0.486
 5737WAT     OW17209   0.612   4.547   1.369
 5737WAT    HW117210   0.546   4.610   1.340
 5737WAT    HW217211   0.631   4.495   1.291
 5738WAT     OW17212   5.749   3.973   3.748
 5738WAT    HW117213   5.756   4.046   3.687
 5738WAT    HW217214   5.662   3.936   3.733
 5739WAT     OW17215   4.335   2.181   3.717
 5739WAT    HW117216   4.305   2.154   3.630
 5739WAT    HW217217   4.288   2.124   3.778
 5740WAT     OW17218   2.603   4.979   6.082
 5740WAT    HW117219   2.605   5.067   6.119
 5740WAT    HW217220   2.551   4.988   6.002
 5741WAT     OW17221   5.365   5.842   4.952
 5741WAT    HW117222   5.350   5.929   4.988
 5741WAT    HW217223   5.460   5.832   4.954
 5742WAT     OW17224   1.551   6.479   0.379
 5742WAT    HW117225   1.639   6.501   0.410
 5742WAT    HW217226   1.562   6.394   0.336
 5743WAT     OW17227   2.261   1.728   5.029
 5743WAT    HW117228   2.209   1.689   5.099
 5743WAT    HW217229   2.349   1.735   5.066
 5744WAT     OW17230   2.142   0.572   2.897
 5744WAT    HW117231   2.100   0.617   2.970
 5744WAT    HW217232   2.206   0.635   2.864
 5745WAT     OW17233   4.051   3.386   5.218
 5745WAT    HW117234   4.032   3.343   5.134
 5745WAT    HW217235   3.973   3.439   5.235
 5746WAT     OW17236   0.150   4.537   4.627
 5746WAT    HW117237   0.116   4.485   4.554
 5746WAT    HW217238   0.118   4.491   4.705
 5747WAT     OW17239   3.874   3.911   6.145
 5747WAT    HW117240   3.840   3.893   6.058
 5747WAT    HW217241   3.911   3.827   6.174
 5748WAT     OW17242   6.100   0.147   6.052
 5748WAT    HW117243   6.093   0.098   5.971
 5748WAT    HW217244   6.168   0.101   6.102
 5749WAT     OW17245   2.555   0.908   0.875
 5749WAT    HW117246   2.536   0.871   0.789
 5749WAT    HW217247   2.562   0.832   0.933
 5750WAT     OW17248   0.119   4.650   0.112
 5750WAT    HW117249   0.028   4.656   0.084
 5750WAT    HW217250   0.168   4.702   0.048
 5751WAT     OW17251   6.452   3.062   5.310
 5751WAT    HW117252   6.533   3.045   5.262
 5751WAT    HW217253   6.440   3.157   5.303
 5752WAT     OW17254   4.609   6.304   0.658
 5752WAT    HW117255   4.543   6.371   0.678
 5752WAT    HW217256   4.652   6.287   0.742
 5753WAT     OW17257   3.791   2.210   2.106
 5753WAT    HW117258   3.708   2.255   2.086
 5753WAT    HW217259   3.770   2.117   2.098
 5754WAT     OW17260   3.146   6.527   6.376
 5754WAT    HW117261   3.234   6.499   6.349
 5754WAT    HW217262   3.116   6.583   6.304
 5755WAT     OW17263   3.449   0.279   5.017
 5755WAT    HW117264   3.494   0.198   5.041
 5755WAT    HW217265   3.494   0.308   4.937
 5756WAT     OW17266   2.359   5.867   5.065
 5756WAT    HW117267   2.271   5.894   5.093
 5756WAT    HW217268   2.414   5.881   5.142
 5757WAT     OW17269   3.513   4.305   2.232
 5757WAT    HW117270   3.510   4.374   2.298
 5757WAT    HW217271   3.590   4.252   2.257
 5758WAT     OW17272   0.557   2.390   4.354
 5758WAT    HW117273   0.504   2.469   4.344
 5758WAT    HW217274   0.557   2.350   4.267
 5759WAT     OW17275   1.476   2.187   4.031
 5759WAT    HW117276   1.538   2.129   3.987
 5759WAT    HW217277   1.518   2.273   4.030
 5760WAT     OW17278   6.243   5.233   1.037
 5760WAT    HW117279   6.338   5.230   1.042
 5760WAT    HW217280   6.213   5.155   1.084
 5761WAT     OW17281   3.274   5.538   6.638
 5761WAT    HW117282   3.201   5.537   6.700
 5761WAT    HW217283   3.233   5.523   6.552
 5762WAT     OW17284   4.425   3.441   4.253
 5762WAT    HW117285   4.376   3.517   4.286
 5762WAT    HW217286   4.512   3.475   4.234
 5763WAT     OW17287   3.108   2.712   1.950
 5763WAT    HW117288   3.103   2.619   1.924
 5763WAT    HW217289   3.197   2.738   1.925
 5764WAT     OW17290   6.010   1.763   0.045
 5764WAT    HW117291   6.060   1.722  -0.026
 5764WAT    HW217292   6.074   1.774   0.116
 5765WAT     OW17293   3.081   1.466   3.059
 5765WAT    HW117294   3.170   1.434   3.049
 5765WAT    HW217295   3.045   1.415   3.131
 5766WAT     OW17296   0.358   2.223   6.485
 5766WAT    HW117297   0.286   2.220   6.422
 5766WAT    HW217298   0.315   2.229   6.570
 5767WAT     OW17299   0.626   3.300   5.169
 5767WAT    HW117300   0.714   3.269   5.148
 5767WAT    HW217301   0.568   3.233   5.133
 5768WAT     OW17302   2.771   5.330   1.635
 5768WAT    HW117303   2.846   5.307   1.580
 5768WAT    HW217304   2.719   5.249   1.640
 5769WAT     OW17305   1.950   1.717   2.744
 5769WAT    HW117306   1.980   1.808   2.739
 5769WAT    HW217307   1.856   1.724   2.760
 5770WAT     OW17308   3.141   3.020   2.419
 5770WAT    HW117309   3.167   3.107   2.391
 5770WAT    HW217310   3.100   3.033   2.504
 5771WAT     OW17311   1.847   4.058   1.957
 5771WAT    HW117312   1.905   3.982   1.953
 5771WAT    HW217313   1.853   4.088   2.048
 5772WAT     OW17314   1.652   5.337   2.579
 5772WAT    HW117315   1.737   5.300   2.601
 5772WAT    HW217316   1.600   5.326   2.658
 5773WAT     OW17317   4.862   0.242   2.641
 5773WAT    HW117318   4.870   0.245   2.545
 5773WAT    HW217319   4.899   0.325   2.671
 5774WAT     OW17320   5.041   6.248   5.261
 5774WAT    HW117321   5.080   6.332   5.238
 5774WAT    HW217322   4.968   6.238   5.200
 5775WAT     OW17323   0.540   0.420   0.095
 5775WAT    HW117324   0.578   0.434   0.008
 5775WAT    HW217325   0.522   0.507   0.128
 5776WAT     OW17326   1.988   3.997   3.268
 5776WAT    HW117327   1.994   3.903   3.286
 5776WAT    HW217328   2.059   4.035   3.319
 5777WAT     OW17329   2.818   1.321   1.920
 5777WAT    HW117330   2.851   1.231   1.919
 5777WAT    HW217331   2.725   1.313   1.901
 5778WAT     OW17332   2.258   1.875   0.116
 5778WAT    HW117333   2.349   1.888   0.144
 5778WAT    HW217334   2.259   1.791   0.071
 5779WAT     OW17335   0.284   5.556   2.908
 5779WAT    HW117336   0.266   5.501   2.832
 5779WAT    HW217337   0.270   5.645   2.877
 5780WAT     OW17338   2.539   2.481   2.377
 5780WAT    HW117339   2.629   2.487   2.411
 5780WAT    HW217340   2.520   2.569   2.344
 5781WAT     OW17341   0.426   5.542   2.385
 5781WAT    HW117342   0.453   5.487   2.311
 5781WAT    HW217343   0.452   5.492   2.462
 5782WAT     OW17344   3.564   0.370   1.731
 5782WAT    HW117345   3.654   0.342   1.747
 5782WAT    HW217346   3.510   0.311   1.782
 5783WAT     OW17347   5.794   5.282   4.576
 5783WAT    HW117348   5.756   5.367   4.554
 5783WAT    HW217349   5.721   5.221   4.570
 5784WAT     OW17350   3.277   3.497   5.339
 5784WAT    HW117351   3.284   3.402   5.330
 5784WAT    HW217352   3.367   3.529   5.329
 5785WAT     OW17353   4.292   0.202   4.615
 5785WAT    HW117354   4.221   0.188   4.552
 5785WAT    HW217355   4.281   0.292   4.644
 5786WAT     OW17356   6.677   1.133   5.232
 5786WAT    HW117357   6.638   1.046   5.231
 5786WAT    HW217358   6.719   1.139   5.318
 5787WAT     OW17359   1.255   2.857   6.100
 5787WAT    HW117360   1.268   2.873   6.007
 5787WAT    HW217361   1.188   2.788   6.103
 5788WAT     OW17362   0.148   4.039   5.349
 5788WAT    HW117363   0.173   4.049   5.257
 5788WAT    HW217364   0.104   4.121   5.371
 5789WAT     OW17365   4.309   2.936   2.205
 5789WAT    HW117366   4.357   2.937   2.123
 5789WAT    HW217367   4.354   2.999   2.260
 5790WAT     OW17368   2.922   2.855   0.131
 5790WAT    HW117369   2.984   2.896   0.192
 5790WAT    HW217370   2.864   2.804   0.186
 5791WAT     OW17371   3.454   3.464   5.027
 5791WAT    HW117372   3.517   3.402   4.990
 5791WAT    HW217373   3.369   3.427   5.004
 5792WAT     OW17374   1.782   4.460   6.238
 5792WAT    HW117375   1.703   4.481   6.188
 5792WAT    HW217376   1.854   4.482   6.179
 5793WAT     OW17377   6.382   4.269   5.654
 5793WAT    HW117378   6.348   4.242   5.739
 5793WAT    HW217379   6.449   4.203   5.634
 5794WAT     OW17380   0.796   1.461   3.567
 5794WAT    HW117381   0.776   1.542   3.521
 5794WAT    HW217382   0.892   1.460   3.574
 5795WAT     OW17383   1.988   1.899   4.196
 5795WAT    HW117384   1.977   1.810   4.230
 5795WAT    HW217385   2.071   1.928   4.234
 5796WAT     OW17386   1.000   0.158   0.084
 5796WAT    HW117387   1.015   0.221   0.013
 5796WAT    HW217388   0.925   0.193   0.132
 5797WAT     OW17389   5.070   3.018   3.445
 5797WAT    HW117390   5.117   3.030   3.527
 5797WAT    HW217391   5.124   3.062   3.379
 5798WAT     OW17392   3.116   6.460   4.593
 5798WAT    HW117393   3.045   6.470   4.658
 5798WAT    HW217394   3.107   6.537   4.537
 5799WAT     OW17395   2.536   1.737   4.807
 5799WAT    HW117396   2.525   1.725   4.902
 5799WAT    HW217397   2.525   1.831   4.794
 5800WAT     OW17398   4.072   0.710   0.065
 5800WAT    HW117399   3.984   0.714   0.027
 5800WAT    HW217400   4.058   0.689   0.157
 5801WAT     OW17401   1.054   2.290   3.410
 5801WAT    HW117402   0.983   2.310   3.349
 5801WAT    HW217403   1.057   2.194   3.414
 5802WAT     OW17404   4.479   2.906   5.119
 5802WAT    HW117405   4.564   2.871   5.092
 5802WAT    HW217406   4.473   2.884   5.211
 5803WAT     OW17407   5.869   6.648   1.949
 5803WAT    HW117408   5.891   6.622   2.039
 5803WAT    HW217409   5.783   6.607   1.934
 5804WAT     OW17410   5.309   2.690   4.396
 5804WAT    HW117411   5.293   2.623   4.463
 5804WAT    HW217412   5.375   2.747   4.435
 5805WAT     OW17413   3.527   1.138   1.209
 5805WAT    HW117414   3.471   1.130   1.287
 5805WAT    HW217415   3.485   1.082   1.144
 5806WAT     OW17416   3.676   2.071   0.916
 5806WAT    HW117417   3.703   1.979   0.927
 5806WAT    HW217418   3.714   2.115   0.992
 5807WAT     OW17419   0.698   5.923   5.253
 5807WAT    HW117420   0.649   5.881   5.182
 5807WAT    HW217421   0.634   5.935   5.323
 5808WAT     OW17422   4.491   4.464   2.656
 5808WAT    HW117423   4.484   4.375   2.690
 5808WAT    HW217424   4.409   4.478   2.608
 5809WAT     OW17425   2.144   5.829   2.377
 5809WAT    HW117426   2.238   5.821   2.358
 5809WAT    HW217427   2.134   5.792   2.464
 5810WAT     OW17428   6.398   5.624   3.148
 5810WAT    HW117429   6.308   5.593   3.154
 5810WAT    HW217430   6.446   5.571   3.212
 5811WAT     OW17431   4.923   4.339   1.313
 5811WAT    HW117432   4.973   4.281   1.371
 5811WAT    HW217433   4.880   4.401   1.371
 5812WAT     OW17434   0.447   3.372   4.431
 5812WAT    HW117435   0.433   3.343   4.521
 5812WAT    HW217436   0.538   3.350   4.413
 5813WAT     OW17437   2.040   2.941   2.374
 5813WAT    HW117438   2.135   2.944   2.382
 5813WAT    HW217439   2.008   2.994   2.446
 5814WAT     OW17440   0.517   4.862   4.593
 5814WAT    HW117441   0.470   4.941   4.566
 5814WAT    HW217442   0.448   4.805   4.627
 5815WAT     OW17443   2.833   5.765   4.889
 5815WAT    HW117444   2.912   5.766   4.835
 5815WAT    HW217445   2.781   5.839   4.857
 5816WAT     OW17446   3.922   2.364   1.750
 5816WAT    HW117447   3.942   2.392   1.839
 5816WAT    HW217448   3.835   2.325   1.755
 5817WAT     OW17449   4.483   0.945   0.839
 5817WAT    HW117450   4.484   0.979   0.928
 5817WAT    HW217451   4.486   0.850   0.851
 5818WAT     OW17452   6.345   4.489   0.180
 5818WAT    HW117453   6.326   4.450   0.265
 5818WAT    HW217454   6.303   4.575   0.183
 5819WAT     OW17455   0.341   4.282   3.074
 5819WAT    HW117456   0.264   4.301   3.021
 5819WAT    HW217457   0.348   4.187   3.073
 5820WAT     OW17458   4.527   5.058   3.932
 5820WAT    HW117459   4.573   5.123   3.879
 5820WAT    HW217460   4.550   5.081   4.022
 5821WAT     OW17461   3.321   0.945   1.923
 5821WAT    HW117462   3.255   0.960   1.854
 5821WAT    HW217463   3.381   0.881   1.884
 5822WAT     OW17464   1.329   2.866   0.394
 5822WAT    HW117465   1.406   2.825   0.353
 5822WAT    HW217466   1.355   2.957   0.406
 5823WAT     OW17467   5.112   2.978   0.812
 5823WAT    HW117468   5.057   2.910   0.773
 5823WAT    HW217469   5.136   3.034   0.738
 5824WAT     OW17470   1.598   4.605   2.336
 5824WAT    HW117471   1.572   4.525   2.291
 5824WAT    HW217472   1.693   4.596   2.347
 5825WAT     OW17473   2.167   4.735   0.474
 5825WAT    HW117474   2.214   4.813   0.443
 5825WAT    HW217475   2.219   4.662   0.440
 5826WAT     OW17476   3.396   1.890   1.445
 5826WAT    HW117477   3.381   1.814   1.500
 5826WAT    HW217478   3.473   1.867   1.392
 5827WAT     OW17479   0.855   5.234   3.273
 5827WAT    HW117480   0.867   5.306   3.211
 5827WAT    HW217481   0.776   5.257   3.322
 5828WAT     OW17482   1.165   6.104   4.696
 5828WAT    HW117483   1.177   6.011   4.715
 5828WAT    HW217484   1.118   6.105   4.613
 5829WAT     OW17485   0.740   5.648   3.185
 5829WAT    HW117486   0.786   5.578   3.139
 5829WAT    HW217487   0.677   5.682   3.121
 5830WAT     OW17488   4.660   4.407   3.322
 5830WAT    HW117489   4.666   4.347   3.396
 5830WAT    HW217490   4.623   4.354   3.251
 5831WAT     OW17491   5.779   1.961   1.741
 5831WAT    HW117492   5.827   1.978   1.660
 5831WAT    HW217493   5.694   2.003   1.729
 5832WAT     OW17494   4.858   1.919   4.198
 5832WAT    HW117495   4.926   1.987   4.198
 5832WAT    HW217496   4.882   1.862   4.271
 5833WAT     OW17497   2.673   2.026   5.398
 5833WAT    HW117498   2.729   2.045   5.323
 5833WAT    HW217499   2.584   2.023   5.362
 5834WAT     OW17500   2.512   5.610   4.635
 5834WAT    HW117501   2.447   5.680   4.638
 5834WAT    HW217502   2.545   5.603   4.724
 5835WAT     OW17503   0.407   2.027   4.461
 5835WAT    HW117504   0.422   2.003   4.370
 5835WAT    HW217505   0.364   2.113   4.457
 5836WAT     OW17506   0.732   5.509   5.149
 5836WAT    HW117507   0.752   5.581   5.089
 5836WAT    HW217508   0.790   5.438   5.123
 5837WAT     OW17509   6.710   1.857   2.493
 5837WAT    HW117510   6.617   1.854   2.515
 5837WAT    HW217511   6.717   1.806   2.412
 5838WAT     OW17512   3.430   5.179   2.849
 5838WAT    HW117513   3.404   5.259   2.802
 5838WAT    HW217514   3.349   5.149   2.890
 5839WAT     OW17515   4.076   5.088   2.961
 5839WAT    HW117516   4.065   5.030   3.036
 5839WAT    HW217517   4.130   5.160   2.994
 5840WAT     OW17518   4.619   4.041   4.410
 5840WAT    HW117519   4.660   4.024   4.495
 5840WAT    HW217520   4.692   4.038   4.348
 5841WAT     OW17521   1.376   0.700   2.960
 5841WAT    HW117522   1.307   0.694   3.025
 5841WAT    HW217523   1.423   0.781   2.981
 5842WAT     OW17524   4.221   5.160   4.375
 5842WAT    HW117525   4.194   5.078   4.334
 5842WAT    HW217526   4.150   5.221   4.356
 5843WAT     OW17527   0.188   5.333   1.565
 5843WAT    HW117528   0.265   5.301   1.518
 5843WAT    HW217529   0.114   5.313   1.507
 5844WAT     OW17530   4.271   6.062   5.657
 5844WAT    HW117531   4.179   6.042   5.644
 5844WAT    HW217532   4.310   5.980   5.686
 5845WAT     OW17533   1.852   6.693   2.978
 5845WAT    HW117534   1.761   6.672   2.999
 5845WAT    HW217535   1.860   6.786   2.997
 5846WAT     OW17536   5.196   6.605   5.610
 5846WAT    HW117537   5.176   6.590   5.702
 5846WAT    HW217538   5.262   6.675   5.610
 5847WAT     OW17539   3.437   6.220   4.057
 5847WAT    HW117540   3.506   6.212   4.123
 5847WAT    HW217541   3.396   6.134   4.054
 5848WAT     OW17542   0.722   5.763   0.322
 5848WAT    HW117543   0.801   5.799   0.362
 5848WAT    HW217544   0.659   5.836   0.325
 5849WAT     OW17545   0.503   1.997   2.701
 5849WAT    HW117546   0.514   2.083   2.660
 5849WAT    HW217547   0.457   1.944   2.636
 5850WAT     OW17548   0.520   4.225   2.853
 5850WAT    HW117549   0.482   4.255   2.935
 5850WAT    HW217550   0.462   4.259   2.785
 5851WAT     OW17551   4.097   5.226   3.751
 5851WAT    HW117552   4.064   5.205   3.663
 5851WAT    HW217553   4.185   5.259   3.737
 5852WAT     OW17554   2.526   2.271   4.116
 5852WAT    HW117555   2.450   2.273   4.057
 5852WAT    HW217556   2.560   2.360   4.114
 5853WAT     OW17557   6.512   4.539   0.815
 5853WAT    HW117558   6.513   4.494   0.900
 5853WAT    HW217559   6.593   4.510   0.772
 5854WAT     OW17560   1.181   0.969   2.923
 5854WAT    HW117561   1.136   0.887   2.908
 5854WAT    HW217562   1.153   0.997   3.010
 5855WAT     OW17563   5.434   0.946   4.979
 5855WAT    HW117564   5.526   0.923   4.967
 5855WAT    HW217565   5.387   0.884   4.922
 5856WAT     OW17566   1.387   5.831   5.488
 5856WAT    HW117567   1.385   5.736   5.501
 5856WAT    HW217568   1.473   5.858   5.520
 5857WAT     OW17569   3.499   3.783   6.133
 5857WAT    HW117570   3.563   3.726   6.091
 5857WAT    HW217571   3.416   3.737   6.124
 5858WAT     OW17572   4.872   3.242   4.662
 5858WAT    HW117573   4.923   3.249   4.582
 5858WAT    HW217574   4.811   3.171   4.646
 5859WAT     OW17575   4.442   2.751   3.804
 5859WAT    HW117576   4.350   2.727   3.811
 5859WAT    HW217577   4.489   2.672   3.830
 5860WAT     OW17578   3.397   1.597   4.413
 5860WAT    HW117579   3.478   1.546   4.407
 5860WAT    HW217580   3.327   1.533   4.398
 5861WAT     OW17581   2.355   3.064   5.738
 5861WAT    HW117582   2.297   3.004   5.785
 5861WAT    HW217583   2.427   3.081   5.799
 5862WAT     OW17584   3.380   0.261   3.253
 5862WAT    HW117585   3.448   0.271   3.320
 5862WAT    HW217586   3.317   0.199   3.291
 5863WAT     OW17587   3.684   5.882   4.229
 5863WAT    HW117588   3.779   5.868   4.226
 5863WAT    HW217589   3.659   5.893   4.138
 5864WAT     OW17590   3.784   4.326   0.792
 5864WAT    HW117591   3.821   4.260   0.849
 5864WAT    HW217592   3.857   4.353   0.736
 5865WAT     OW17593   5.893   6.106   5.895
 5865WAT    HW117594   5.804   6.135   5.916
 5865WAT    HW217595   5.939   6.186   5.871
 5866WAT     OW17596   4.501   6.575   4.158
 5866WAT    HW117597   4.535   6.657   4.120
 5866WAT    HW217598   4.428   6.603   4.214
 5867WAT     OW17599   3.728   5.944   3.030
 5867WAT    HW117600   3.739   5.858   2.988
 5867WAT    HW217601   3.640   5.940   3.068
 5868WAT     OW17602   1.295   3.134   2.267
 5868WAT    HW117603   1.213   3.159   2.311
 5868WAT    HW217604   1.346   3.215   2.264
 5869WAT     OW17605   1.518   1.187   5.449
 5869WAT    HW117606   1.562   1.245   5.386
 5869WAT    HW217607   1.586   1.129   5.481
 5870WAT     OW17608   6.499   4.002   3.456
 5870WAT    HW117609   6.554   4.037   3.386
 5870WAT    HW217610   6.450   4.078   3.489
 5871WAT     OW17611   3.171   1.943   3.545
 5871WAT    HW117612   3.145   1.859   3.584
 5871WAT    HW217613   3.089   1.981   3.514
 5872WAT     OW17614   4.353   3.852   6.046
 5872WAT    HW117615   4.382   3.818   6.130
 5872WAT    HW217616   4.263   3.820   6.037
 5873WAT     OW17617   6.624   0.123   3.540
 5873WAT    HW117618   6.567   0.115   3.463
 5873WAT    HW217619   6.563   0.124   3.614
 5874WAT     OW17620   5.893   6.535   5.964
 5874WAT    HW117621   5.803   6.561   5.947
 5874WAT    HW217622   5.946   6.607   5.931
 5875WAT     OW17623   2.383   0.830   3.430
 5875WAT    HW117624   2.428   0.881   3.363
 5875WAT    HW217625   2.335   0.764   3.381
 5876WAT     OW17626   1.741   2.247   1.912
 5876WAT    HW117627   1.726   2.341   1.903
 5876WAT    HW217628   1.837   2.239   1.911
 5877WAT     OW17629   3.768   1.232   1.321
 5877WAT    HW117630   3.840   1.235   1.258
 5877WAT    HW217631   3.691   1.209   1.268
 5878WAT     OW17632   4.220   6.047   3.223
 5878WAT    HW117633   4.223   5.993   3.143
 5878WAT    HW217634   4.127   6.064   3.237
 5879WAT     OW17635   3.179   4.836   0.310
 5879WAT    HW117636   3.177   4.758   0.366
 5879WAT    HW217637   3.266   4.873   0.325
 5880WAT     OW17638   6.256   0.494   5.164
 5880WAT    HW117639   6.337   0.497   5.114
 5880WAT    HW217640   6.187   0.481   5.098
 5881WAT     OW17641   6.632   4.277   2.262
 5881WAT    HW117642   6.591   4.356   2.227
 5881WAT    HW217643   6.578   4.254   2.338
 5882WAT     OW17644   5.463   6.315   1.906
 5882WAT    HW117645   5.498   6.251   1.844
 5882WAT    HW217646   5.375   6.335   1.874
 5883WAT     OW17647   0.514   6.578   2.114
 5883WAT    HW117648   0.564   6.648   2.156
 5883WAT    HW217649   0.564   6.498   2.133
 5884WAT     OW17650   3.168   5.378   4.942
 5884WAT    HW117651   3.262   5.379   4.962
 5884WAT    HW217652   3.132   5.452   4.991
 5885WAT     OW17653   3.269   6.583   4.982
 5885WAT    HW117654   3.190   6.624   4.947
 5885WAT    HW217655   3.339   6.612   4.923
 5886WAT     OW17656   4.090   6.304   4.076
 5886WAT    HW117657   4.087   6.237   4.008
 5886WAT    HW217658   4.000   6.308   4.110
 5887WAT     OW17659   4.228   3.012   2.538
 5887WAT    HW117660   4.294   3.030   2.472
 5887WAT    HW217661   4.255   3.063   2.614
 5888WAT     OW17662   1.960   6.516   1.515
 5888WAT    HW117663   1.938   6.464   1.438
 5888WAT    HW217664   1.888   6.578   1.523
 5889WAT     OW17665   1.645   6.304   3.045
 5889WAT    HW117666   1.687   6.227   3.007
 5889WAT    HW217667   1.592   6.340   2.974
 5890WAT     OW17668   0.650   4.164   6.577
 5890WAT    HW117669   0.640   4.119   6.493
 5890WAT    HW217670   0.738   4.139   6.607
 5891WAT     OW17671   0.678   4.045   6.323
 5891WAT    HW117672   0.705   4.132   6.293
 5891WAT    HW217673   0.734   3.984   6.276
 5892WAT     OW17674   2.138   4.915   1.837
 5892WAT    HW117675   2.214   4.859   1.854
 5892WAT    HW217676   2.076   4.892   1.906
 5893WAT     OW17677   1.125   4.520   2.489
 5893WAT    HW117678   1.183   4.585   2.529
 5893WAT    HW217679   1.101   4.461   2.561
 5894WAT     OW17680   0.261   2.447   3.173
 5894WAT    HW117681   0.206   2.412   3.244
 5894WAT    HW217682   0.204   2.449   3.097
 5895WAT     OW17683   3.185   0.007   5.402
 5895WAT    HW117684   3.261   0.030   5.455
 5895WAT    HW217685   3.213  -0.067   5.349
 5896WAT     OW17686   6.171   3.424   5.718
 5896WAT    HW117687   6.148   3.356   5.655
 5896WAT    HW217688   6.265   3.439   5.703
 5897WAT     OW17689   0.221   5.569   4.382
 5897WAT    HW117690   0.146   5.520   4.417
 5897WAT    HW217691   0.279   5.580   4.457
 5898WAT     OW17692   5.817   0.256   4.593
 5898WAT    HW117693   5.841   0.349   4.591
 5898WAT    HW217694   5.835   0.229   4.683
 5899WAT     OW17695   6.653   0.182   3.904
 5899WAT    HW117696   6.639   0.120   3.975
 5899WAT    HW217697   6.581   0.165   3.843
 5900WAT     OW17698   5.741   2.856   4.114
 5900WAT    HW117699   5.655   2.895   4.130
 5900WAT    HW217700   5.790   2.925   4.068
 5901WAT     OW17701   4.651   5.432   2.965
 5901WAT    HW117702   4.731   5.462   2.922
 5901WAT    HW217703   4.644   5.486   3.043
 5902WAT     OW17704   2.429   1.147   1.998
 5902WAT    HW117705   2.471   1.061   1.997
 5902WAT    HW217706   2.470   1.194   1.925
 5903WAT     OW17707   3.262   5.086   2.422
 5903WAT    HW117708   3.326   5.140   2.468
 5903WAT    HW217709   3.189   5.077   2.483
 5904WAT     OW17710   2.899   2.460   3.324
 5904WAT    HW117711   2.990   2.453   3.353
 5904WAT    HW217712   2.898   2.534   3.263
 5905WAT     OW17713   0.816   2.201   6.707
 5905WAT    HW117714   0.742   2.180   6.651
 5905WAT    HW217715   0.874   2.126   6.700
 5906WAT     OW17716   5.894   6.415   0.266
 5906WAT    HW117717   5.871   6.349   0.201
 5906WAT    HW217718   5.918   6.365   0.344
 5907WAT     OW17719   3.682   2.601   0.327
 5907WAT    HW117720   3.694   2.546   0.249
 5907WAT    HW217721   3.605   2.565   0.371
 5908WAT     OW17722   2.465   1.578   2.027
 5908WAT    HW117723   2.482   1.549   1.937
 5908WAT    HW217724   2.474   1.498   2.080
 5909WAT     OW17725   5.514   3.773   0.847
 5909WAT    HW117726   5.515   3.677   0.850
 5909WAT    HW217727   5.585   3.800   0.905
 5910WAT     OW17728   6.664   2.069   0.230
 5910WAT    HW117729   6.628   1.983   0.253
 5910WAT    HW217730   6.675   2.066   0.135
 5911WAT     OW17731   4.851   4.760   2.174
 5911WAT    HW117732   4.856   4.780   2.268
 5911WAT    HW217733   4.789   4.687   2.169
 5912WAT     OW17734   4.252   4.498   2.531
 5912WAT    HW117735   4.256   4.442   2.454
 5912WAT    HW217736   4.222   4.583   2.498
 5913WAT     OW17737   0.633   4.233   2.001
 5913WAT    HW117738   0.606   4.141   1.998
 5913WAT    HW217739   0.551   4.282   2.001
 5914WAT     OW17740   3.493   0.156   0.178
 5914WAT    HW117741   3.511   0.103   0.101
 5914WAT    HW217742   3.418   0.113   0.220
 5915WAT     OW17743   2.009   3.738   1.538
 5915WAT    HW117744   1.960   3.725   1.619
 5915WAT    HW217745   1.963   3.808   1.492
 5916WAT     OW17746   6.046   1.719   5.164
 5916WAT    HW117747   6.130   1.742   5.205
 5916WAT    HW217748   6.062   1.634   5.123
 5917WAT     OW17749   3.832   6.722   1.109
 5917WAT    HW117750   3.832   6.747   1.202
 5917WAT    HW217751   3.790   6.795   1.065
 5918WAT     OW17752   1.442   5.068   5.290
 5918WAT    HW117753   1.513   5.024   5.242
 5918WAT    HW217754   1.437   5.155   5.251
 5919WAT     OW17755   1.668   6.073   6.533
 5919WAT    HW117756   1.604   6.109   6.594
 5919WAT    HW217757   1.745   6.055   6.587
 5920WAT     OW17758   6.210   4.985   0.098
 5920WAT    HW117759   6.246   5.047   0.161
 5920WAT    HW217760   6.266   4.994   0.021
 5921WAT     OW17761   4.901   5.562   0.614
 5921WAT    HW117762   4.980   5.533   0.660
 5921WAT    HW217763   4.933   5.591   0.528
 5922WAT     OW17764   1.933   1.216   5.376
 5922WAT    HW117765   1.997   1.261   5.321
 5922WAT    HW217766   1.849   1.254   5.351
 5923WAT     OW17767   4.062   1.357   0.645
 5923WAT    HW117768   4.023   1.432   0.601
 5923WAT    HW217769   4.155   1.380   0.651
 5924WAT     OW17770   1.501   4.262   3.958
 5924WAT    HW117771   1.516   4.172   3.928
 5924WAT    HW217772   1.407   4.267   3.974
 5925WAT     OW17773   2.977   4.925   2.289
 5925WAT    HW117774   2.994   5.018   2.300
 5925WAT    HW217775   2.967   4.913   2.195
 5926WAT     OW17776   1.244   5.942   5.277
 5926WAT    HW117777   1.152   5.923   5.294
 5926WAT    HW217778   1.292   5.888   5.340
 5927WAT     OW17779   4.747   0.620   2.015
 5927WAT    HW117780   4.766   0.684   1.946
 5927WAT    HW217781   4.758   0.669   2.097
 5928WAT     OW17782   1.129   3.564   4.229
 5928WAT    HW117783   1.056   3.518   4.186
 5928WAT    HW217784   1.131   3.650   4.188
 5929WAT     OW17785   0.098   5.200   1.171
 5929WAT    HW117786   0.037   5.130   1.149
 5929WAT    HW217787   0.178   5.154   1.197
 5930WAT     OW17788   1.297   2.993   2.029
 5930WAT    HW117789   1.317   3.034   2.113
 5930WAT    HW217790   1.264   3.064   1.974
 5931WAT     OW17791   3.042   2.792   4.329
 5931WAT    HW117792   2.960   2.751   4.355
 5931WAT    HW217793   3.109   2.727   4.350
 5932WAT     OW17794   3.822   3.509   5.298
 5932WAT    HW117795   3.833   3.581   5.360
 5932WAT    HW217796   3.750   3.456   5.334
 5933WAT     OW17797   4.495   0.553   5.413
 5933WAT    HW117798   4.454   0.602   5.484
 5933WAT    HW217799   4.580   0.527   5.449
 5934WAT     OW17800   6.031   5.826   0.189
 5934WAT    HW117801   6.038   5.911   0.233
 5934WAT    HW217802   5.938   5.818   0.166
 5935WAT     OW17803   5.428   2.342   2.493
 5935WAT    HW117804   5.343   2.306   2.467
 5935WAT    HW217805   5.409   2.433   2.519
 5936WAT     OW17806   2.835   2.069   5.184
 5936WAT    HW117807   2.807   1.997   5.127
 5936WAT    HW217808   2.930   2.074   5.172
 5937WAT     OW17809   1.200   3.327   1.272
 5937WAT    HW117810   1.118   3.296   1.310
 5937WAT    HW217811   1.229   3.396   1.332
 5938WAT     OW17812   5.708   2.420   3.146
 5938WAT    HW117813   5.618   2.435   3.176
 5938WAT    HW217814   5.745   2.507   3.136
 5939WAT     OW17815   1.687   6.472   6.238
 5939WAT    HW117816   1.773   6.430   6.229
 5939WAT    HW217817   1.625   6.405   6.210
 5940WAT     OW17818   4.923   4.130   3.914
 5940WAT    HW117819   4.916   4.220   3.948
 5940WAT    HW217820   4.833   4.104   3.896
 5941WAT     OW17821   4.330   0.840   0.412
 5941WAT    HW117822   4.385   0.808   0.341
 5941WAT    HW217823   4.267   0.899   0.370
 5942WAT     OW17824   0.598   2.890   2.584
 5942WAT    HW117825   0.688   2.914   2.561
 5942WAT    HW217826   0.570   2.957   2.646
 5943WAT     OW17827   1.924   6.280   1.679
 5943WAT    HW117828   1.831   6.291   1.698
 5943WAT    HW217829   1.943   6.349   1.615
 5944WAT     OW17830   3.161   0.129   1.845
 5944WAT    HW117831   3.181   0.038   1.827
 5944WAT    HW217832   3.086   0.126   1.905
 5945WAT     OW17833   4.973   2.182   6.638
 5945WAT    HW117834   5.012   2.164   6.723
 5945WAT    HW217835   4.976   2.098   6.592
 5946WAT     OW17836   4.669   3.970   0.717
 5946WAT    HW117837   4.608   4.033   0.678
 5946WAT    HW217838   4.737   4.024   0.758
 5947WAT     OW17839   2.199   0.882   0.684
 5947WAT    HW117840   2.123   0.925   0.645
 5947WAT    HW217841   2.177   0.789   0.682
 5948WAT     OW17842   2.597   5.227   6.207
 5948WAT    HW117843   2.649   5.181   6.273
 5948WAT    HW217844   2.573   5.310   6.249
 5949WAT     OW17845   2.995   0.505   2.331
 5949WAT    HW117846   2.997   0.509   2.426
 5949WAT    HW217847   2.906   0.477   2.310
 5950WAT     OW17848   6.041   2.563   6.589
 5950WAT    HW117849   6.129   2.585   6.619
 5950WAT    HW217850   6.033   2.604   6.504
 5951WAT     OW17851   1.237   6.371   6.093
 5951WAT    HW117852   1.229   6.315   6.170
 5951WAT    HW217853   1.150   6.410   6.083
 5952WAT     OW17854   4.521   0.515   1.908
 5952WAT    HW117855   4.600   0.548   1.950
 5952WAT    HW217856   4.552   0.443   1.853
 5953WAT     OW17857   0.244   0.059   6.185
 5953WAT    HW117858   0.166   0.114   6.178
 5953WAT    HW217859   0.253   0.043   6.279
 5954WAT     OW17860   3.824   5.705   2.915
 5954WAT    HW117861   3.778   5.621   2.918
 5954WAT    HW217862   3.862   5.708   2.827
 5955WAT     OW17863   5.868   4.205   0.281
 5955WAT    HW117864   5.776   4.232   0.286
 5955WAT    HW217865   5.916   4.280   0.316
 5956WAT     OW17866   4.366   0.804   3.335
 5956WAT    HW117867   4.299   0.862   3.298
 5956WAT    HW217868   4.447   0.855   3.331
 5957WAT     OW17869   3.580   1.176   1.851
 5957WAT    HW117870   3.541   1.149   1.934
 5957WAT    HW217871   3.632   1.101   1.823
 5958WAT     OW17872   0.604   1.168   6.680
 5958WAT    HW117873   0.559   1.135   6.757
 5958WAT    HW217874   0.662   1.237   6.713
 5959WAT     OW17875   5.657   6.383   3.900
 5959WAT    HW117876   5.575   6.337   3.917
 5959WAT    HW217877   5.631   6.470   3.871
 5960WAT     OW17878   4.828   0.349   3.419
 5960WAT    HW117879   4.796   0.266   3.383
 5960WAT    HW217880   4.922   0.348   3.402
 5961WAT     OW17881   0.488   2.836   3.139
 5961WAT    HW117882   0.495   2.740   3.135
 5961WAT    HW217883   0.399   2.852   3.169
 5962WAT     OW17884   1.880   6.406   4.964
 5962WAT    HW117885   1.791   6.436   4.951
 5962WAT    HW217886   1.872   6.312   4.979
 5963WAT     OW17887   3.285   1.470   2.680
 5963WAT    HW117888   3.347   1.524   2.631
 5963WAT    HW217889   3.270   1.394   2.624
 5964WAT     OW17890   3.340   5.648   5.935
 5964WAT    HW117891   3.337   5.737   5.969
 5964WAT    HW217892   3.286   5.650   5.855
 5965WAT     OW17893   1.979   1.891   3.362
 5965WAT    HW117894   2.062   1.928   3.393
 5965WAT    HW217895   1.920   1.898   3.437
 5966WAT     OW17896   5.617   3.503   4.860
 5966WAT    HW117897   5.646   3.589   4.830
 5966WAT    HW217898   5.684   3.443   4.829
 5967WAT     OW17899   0.872   0.705   5.095
 5967WAT    HW117900   0.824   0.772   5.047
 5967WAT    HW217901   0.900   0.747   5.176
 5968WAT     OW17902   1.770   5.161   5.340
 5968WAT    HW117903   1.731   5.100   5.277
 5968WAT    HW217904   1.759   5.117   5.425
 5969WAT     OW17905   5.681   2.129   5.708
 5969WAT    HW117906   5.743   2.091   5.646
 5969WAT    HW217907   5.632   2.193   5.656
 5970WAT     OW17908   1.998   2.867   5.382
 5970WAT    HW117909   2.009   2.892   5.290
 5970WAT    HW217910   1.963   2.778   5.378
 5971WAT     OW17911   6.324   3.452   2.556
 5971WAT    HW117912   6.418   3.470   2.555
 5971WAT    HW217913   6.315   3.365   2.516
 5972WAT     OW17914   3.801   3.543   0.107
 5972WAT    HW117915   3.707   3.529   0.109
 5972WAT    HW217916   3.834   3.478   0.045
 5973WAT     OW17917   4.750   1.681   5.307
 5973WAT    HW117918   4.694   1.752   5.277
 5973WAT    HW217919   4.700   1.638   5.376
 5974WAT     OW17920   1.891   0.011   4.723
 5974WAT    HW117921   1.827   0.062   4.773
 5974WAT    HW217922   1.838  -0.041   4.663
 5975WAT     OW17923   4.184   6.332   5.677
 5975WAT    HW117924   4.229   6.247   5.670
 5975WAT    HW217925   4.184   6.351   5.771
 5976WAT     OW17926   1.591   0.030   1.286
 5976WAT    HW117927   1.596  -0.045   1.226
 5976WAT    HW217928   1.614   0.105   1.233
 5977WAT     OW17929   0.206   5.954   4.654
 5977WAT    HW117930   0.169   5.968   4.566
 5977WAT    HW217931   0.158   5.879   4.688
 5978WAT     OW17932   2.144   3.834   1.177
 5978WAT    HW117933   2.169   3.743   1.162
 5978WAT    HW217934   2.049   3.836   1.161
 5979WAT     OW17935   0.326   1.388   0.211
 5979WAT    HW117936   0.400   1.408   0.154
 5979WAT    HW217937   0.351   1.423   0.297
 5980WAT     OW17938   2.449   3.327   5.973
 5980WAT    HW117939   2.470   3.236   5.950
 5980WAT    HW217940   2.485   3.338   6.061
 5981WAT     OW17941   0.164   0.385   4.511
 5981WAT    HW117942   0.193   0.399   4.601
 5981WAT    HW217943   0.244   0.367   4.463
 5982WAT     OW17944   5.293   0.523   3.739
 5982WAT    HW117945   5.246   0.604   3.721
 5982WAT    HW217946   5.308   0.524   3.834
 5983WAT     OW17947   4.006   0.264   3.442
 5983WAT    HW117948   3.940   0.333   3.448
 5983WAT    HW217949   4.073   0.290   3.505
 5984WAT     OW17950   1.094   4.447   1.993
 5984WAT    HW117951   1.017   4.398   2.022
 5984WAT    HW217952   1.116   4.503   2.068
 5985WAT     OW17953   6.641   6.684   1.411
 5985WAT    HW117954   6.636   6.745   1.338
 5985WAT    HW217955   6.722   6.634   1.395
 5986WAT     OW17956   0.464   3.687   4.729
 5986WAT    HW117957   0.532   3.629   4.763
 5986WAT    HW217958   0.477   3.686   4.634
 5987WAT     OW17959   5.023   2.739   4.833
 5987WAT    HW117960   5.081   2.673   4.874
 5987WAT    HW217961   5.053   2.822   4.869
 5988WAT     OW17962   1.648   5.859   0.339
 5988WAT    HW117963   1.698   5.780   0.321
 5988WAT    HW217964   1.657   5.872   0.434
 5989WAT     OW17965   4.934   3.253   4.384
 5989WAT    HW117966   5.018   3.230   4.345
 5989WAT    HW217967   4.878   3.177   4.370
 5990WAT     OW17968   6.427   1.976   4.727
 5990WAT    HW117969   6.523   1.979   4.722
 5990WAT    HW217970   6.403   1.892   4.688
 5991WAT     OW17971   2.059   1.066   4.007
 5991WAT    HW117972   2.104   1.137   4.053
 5991WAT    HW217973   2.027   1.009   4.077
 5992WAT     OW17974   4.162   0.201   2.570
 5992WAT    HW117975   4.161   0.289   2.533
 5992WAT    HW217976   4.102   0.151   2.515
 5993WAT     OW17977   4.598   2.920   2.806
 5993WAT    HW117978   4.654   2.859   2.757
 5993WAT    HW217979   4.553   2.865   2.870
 5994WAT     OW17980   5.741   3.935   0.702
 5994WAT    HW117981   5.658   3.915   0.658
 5994WAT    HW217982   5.721   3.929   0.796
 5995WAT     OW17983   4.773   1.444   4.918
 5995WAT    HW117984   4.792   1.444   5.012
 5995WAT    HW217985   4.858   1.458   4.876
 5996WAT     OW17986   0.678   1.739   0.932
 5996WAT    HW117987   0.746   1.801   0.958
 5996WAT    HW217988   0.724   1.656   0.918
 5997WAT     OW17989   2.326   0.297   1.110
 5997WAT    HW117990   2.368   0.371   1.065
 5997WAT    HW217991   2.374   0.288   1.192
 5998WAT     OW17992   6.259   4.130   1.915
 5998WAT    HW117993   6.164   4.121   1.926
 5998WAT    HW217994   6.281   4.207   1.969
 5999WAT     OW17995   6.429   2.556   3.449
 5999WAT    HW117996   6.395   2.601   3.371
 5999WAT    HW217997   6.523   2.571   3.445
 6000WAT     OW17998   3.151   1.154   5.488
 6000WAT    HW117999   3.201   1.117   5.416
 6000WAT    HW218000   3.096   1.082   5.518
 6001WAT     OW18001   4.316   1.578   0.868
 6001WAT    HW118002   4.318   1.534   0.783
 6001WAT    HW218003   4.251   1.648   0.858
 6002WAT     OW18004   0.936   4.896   1.589
 6002WAT    HW118005   0.882   4.820   1.565
 6002WAT    HW218006   1.018   4.857   1.619
 6003WAT     OW18007   2.520   1.169   2.631
 6003WAT    HW118008   2.595   1.222   2.659
 6003WAT    HW218009   2.451   1.190   2.695
 6004WAT     OW18010   4.186   2.178   2.486
 6004WAT    HW118011   4.217   2.156   2.398
 6004WAT    HW218012   4.163   2.270   2.481
 6005WAT     OW18013   3.413   2.714   1.946
 6005WAT    HW118014   3.405   2.792   2.000
 6005WAT    HW218015   3.485   2.733   1.886
 6006WAT     OW18016   6.349   2.710   3.231
 6006WAT    HW118017   6.337   2.678   3.141
 6006WAT    HW218018   6.280   2.775   3.242
 6007WAT     OW18019   4.949   4.391   3.705
 6007WAT    HW118020   4.932   4.308   3.660
 6007WAT    HW218021   4.946   4.457   3.636
 6008WAT     OW18022   5.341   2.911   2.457
 6008WAT    HW118023   5.365   2.887   2.547
 6008WAT    HW218024   5.248   2.934   2.462
 6009WAT     OW18025   6.346   2.353   3.818
 6009WAT    HW118026   6.313   2.264   3.832
 6009WAT    HW218027   6.270   2.409   3.830
 6010WAT     OW18028   3.167   3.149   0.519
 6010WAT    HW118029   3.154   3.198   0.601
 6010WAT    HW218030   3.199   3.215   0.457
 6011WAT     OW18031   1.721   5.893   3.144
 6011WAT    HW118032   1.744   5.848   3.226
 6011WAT    HW218033   1.628   5.912   3.153
 6012WAT     OW18034   1.415   4.545   2.096
 6012WAT    HW118035   1.413   4.452   2.071
 6012WAT    HW218036   1.500   4.576   2.064
 6013WAT     OW18037   5.823   3.707   3.840
 6013WAT    HW118038   5.846   3.699   3.932
 6013WAT    HW218039   5.802   3.799   3.827
 6014WAT     OW18040   4.989   3.219   4.914
 6014WAT    HW118041   4.942   3.152   4.963
 6014WAT    HW218042   4.943   3.226   4.830
 6015WAT     OW18043   2.021   3.853   5.276
 6015WAT    HW118044   2.060   3.938   5.298
 6015WAT    HW218045   1.931   3.858   5.310
 6016WAT     OW18046   4.678   3.038   4.889
 6016WAT    HW118047   4.631   3.119   4.908
 6016WAT    HW218048   4.743   3.031   4.958
 6017WAT     OW18049   4.893   4.396   3.977
 6017WAT    HW118050   4.908   4.412   3.883
 6017WAT    HW218051   4.922   4.477   4.020
 6018WAT     OW18052   2.162   1.627   6.474
 6018WAT    HW118053   2.145   1.718   6.449
 6018WAT    HW218054   2.202   1.634   6.561
 6019WAT     OW18055   5.940   0.981   1.371
 6019WAT    HW118056   5.921   0.888   1.359
 6019WAT    HW218057   5.874   1.026   1.318
 6020WAT     OW18058   3.515   0.184   6.521
 6020WAT    HW118059   3.523   0.113   6.584
 6020WAT    HW218060   3.599   0.230   6.525
 6021WAT     OW18061   3.754   0.868   5.081
 6021WAT    HW118062   3.825   0.826   5.130
 6021WAT    HW218063   3.676   0.851   5.134
 6022WAT     OW18064   1.797   4.717   4.099
 6022WAT    HW118065   1.851   4.639   4.092
 6022WAT    HW218066   1.859   4.790   4.092
 6023WAT     OW18067   3.130   3.128   5.746
 6023WAT    HW118068   3.076   3.132   5.667
 6023WAT    HW218069   3.068   3.141   5.818
 6024WAT     OW18070   4.696   6.563   2.601
 6024WAT    HW118071   4.646   6.489   2.634
 6024WAT    HW218072   4.774   6.524   2.562
 6025WAT     OW18073   1.680   3.996   0.304
 6025WAT    HW118074   1.731   3.947   0.239
 6025WAT    HW218075   1.589   3.988   0.273
 6026WAT     OW18076   3.265   0.500   0.478
 6026WAT    HW118077   3.245   0.408   0.497
 6026WAT    HW218078   3.187   0.533   0.434
 6027WAT     OW18079   2.727   3.558   3.265
 6027WAT    HW118080   2.783   3.632   3.292
 6027WAT    HW218081   2.747   3.490   3.329
 6028WAT     OW18082   6.018   6.693   2.905
 6028WAT    HW118083   6.060   6.658   2.827
 6028WAT    HW218084   6.088   6.705   2.968
 6029WAT     OW18085   2.865   5.443   5.063
 6029WAT    HW118086   2.868   5.362   5.115
 6029WAT    HW218087   2.849   5.412   4.973
 6030WAT     OW18088   0.463   2.123   6.132
 6030WAT    HW118089   0.382   2.075   6.115
 6030WAT    HW218090   0.508   2.125   6.048
 6031WAT     OW18091   5.450   0.584   5.212
 6031WAT    HW118092   5.358   0.610   5.213
 6031WAT    HW218093   5.448   0.488   5.211
 6032WAT     OW18094   6.677   0.157   1.603
 6032WAT    HW118095   6.659   0.082   1.545
 6032WAT    HW218096   6.760   0.136   1.644
 6033WAT     OW18097   4.798   0.975   3.484
 6033WAT    HW118098   4.839   0.975   3.571
 6033WAT    HW218099   4.828   1.057   3.444
 6034WAT     OW18100   5.447   2.179   6.576
 6034WAT    HW118101   5.520   2.141   6.528
 6034WAT    HW218102   5.452   2.273   6.558
 6035WAT     OW18103   3.057   2.696   3.587
 6035WAT    HW118104   2.967   2.678   3.614
 6035WAT    HW218105   3.111   2.668   3.661
 6036WAT     OW18106   2.041   3.933   2.439
 6036WAT    HW118107   2.045   3.898   2.529
 6036WAT    HW218108   2.099   3.875   2.389
 6037WAT     OW18109   5.722   3.753   4.790
 6037WAT    HW118110   5.682   3.817   4.731
 6037WAT    HW218111   5.814   3.752   4.765
 6038WAT     OW18112   4.044   1.775   2.637
 6038WAT    HW118113   3.958   1.809   2.661
 6038WAT    HW218114   4.050   1.691   2.683
 6039WAT     OW18115   2.344   4.382   2.979
 6039WAT    HW118116   2.318   4.345   3.063
 6039WAT    HW218117   2.277   4.448   2.960
 6040WAT     OW18118   2.293   6.549   4.910
 6040WAT    HW118119   2.220   6.535   4.849
 6040WAT    HW218120   2.367   6.574   4.855
 6041WAT     OW18121   0.449   4.821   0.620
 6041WAT    HW118122   0.413   4.898   0.665
 6041WAT    HW218123   0.390   4.806   0.547
 6042WAT     OW18124   3.098   6.107   1.186
 6042WAT    HW118125   3.130   6.190   1.221
 6042WAT    HW218126   3.080   6.054   1.263
 6043WAT     OW18127   6.373   2.012   0.911
 6043WAT    HW118128   6.315   2.059   0.971
 6043WAT    HW218129   6.436   1.968   0.968
 6044WAT     OW18130   6.696   3.718   2.489
 6044WAT    HW118131   6.654   3.632   2.500
 6044WAT    HW218132   6.775   3.700   2.439
 6045WAT     OW18133   5.785   4.760   2.234
 6045WAT    HW118134   5.787   4.849   2.269
 6045WAT    HW218135   5.773   4.771   2.140
 6046WAT     OW18136   1.929   1.104   6.692
 6046WAT    HW118137   1.965   1.137   6.610
 6046WAT    HW218138   1.841   1.141   6.696
 6047WAT     OW18139   5.937   4.338   0.635
 6047WAT    HW118140   5.978   4.252   0.642
 6047WAT    HW218141   5.973   4.389   0.707
 6048WAT     OW18142   3.635   0.507   4.065
 6048WAT    HW118143   3.610   0.416   4.049
 6048WAT    HW218144   3.708   0.523   4.006
 6049WAT     OW18145   4.516   1.281   5.912
 6049WAT    HW118146   4.467   1.318   5.839
 6049WAT    HW218147   4.608   1.292   5.888
 6050WAT     OW18148   0.488   3.692   2.425
 6050WAT    HW118149   0.509   3.611   2.473
 6050WAT    HW218150   0.508   3.762   2.486
 6051WAT     OW18151   0.362   2.715   6.676
 6051WAT    HW118152   0.328   2.711   6.586
 6051WAT    HW218153   0.323   2.640   6.720
 6052WAT     OW18154   6.547   0.872   5.201
 6052WAT    HW118155   6.523   0.845   5.113
 6052WAT    HW218156   6.479   0.835   5.258
 6053WAT     OW18157   4.320   2.620   0.032
 6053WAT    HW118158   4.385   2.638  -0.036
 6053WAT    HW218159   4.346   2.536   0.069
 6054WAT     OW18160   5.469   4.245   0.835
 6054WAT    HW118161   5.551   4.238   0.786
 6054WAT    HW218162   5.406   4.193   0.785
 6055WAT     OW18163   1.756   1.276   3.334
 6055WAT    HW118164   1.788   1.335   3.265
 6055WAT    HW218165   1.814   1.292   3.408
 6056WAT     OW18166   5.244   6.095   0.497
 6056WAT    HW118167   5.306   6.093   0.571
 6056WAT    HW218168   5.284   6.038   0.431
 6057WAT     OW18169   2.374   1.196   5.466
 6057WAT    HW118170   2.385   1.199   5.371
 6057WAT    HW218171   2.437   1.131   5.496
 6058WAT     OW18172   1.974   2.380   4.798
 6058WAT    HW118173   1.895   2.421   4.764
 6058WAT    HW218174   1.997   2.314   4.732
 6059WAT     OW18175   0.708   6.499   6.040
 6059WAT    HW118176   0.719   6.569   6.105
 6059WAT    HW218177   0.704   6.545   5.956
 6060WAT     OW18178   2.135   0.147   0.060
 6060WAT    HW118179   2.073   0.181  -0.004
 6060WAT    HW218180   2.089   0.151   0.144
 6061WAT     OW18181   5.058   6.078   0.867
 6061WAT    HW118182   5.133   6.135   0.883
 6061WAT    HW218183   5.074   6.001   0.921
 6062WAT     OW18184   5.034   0.052   0.258
 6062WAT    HW118185   5.013   0.138   0.293
 6062WAT    HW218186   5.114   0.026   0.305
 6063WAT     OW18187   5.063   4.808   3.113
 6063WAT    HW118188   5.145   4.814   3.064
 6063WAT    HW218189   5.009   4.747   3.062
 6064WAT     OW18190   2.527   5.873   4.275
 6064WAT    HW118191   2.475   5.951   4.260
 6064WAT    HW218192   2.594   5.874   4.206
 6065WAT     OW18193   3.747   4.681   5.055
 6065WAT    HW118194   3.736   4.685   4.960
 6065WAT    HW218195   3.793   4.761   5.078
 6066WAT     OW18196   1.720   5.670   5.091
 6066WAT    HW118197   1.648   5.682   5.029
 6066WAT    HW218198   1.687   5.706   5.174
 6067WAT     OW18199   3.174   1.634   3.413
 6067WAT    HW118200   3.134   1.658   3.496
 6067WAT    HW218201   3.188   1.539   3.420
 6068WAT     OW18202   4.950   4.458   6.423
 6068WAT    HW118203   4.984   4.448   6.334
 6068WAT    HW218204   4.938   4.368   6.454
 6069WAT     OW18205   0.008   4.122   2.058
 6069WAT    HW118206  -0.068   4.070   2.033
 6069WAT    HW218207  -0.022   4.171   2.135
 6070WAT     OW18208   5.044   1.350   5.744
 6070WAT    HW118209   5.095   1.322   5.667
 6070WAT    HW218210   5.109   1.355   5.814
 6071WAT     OW18211   2.611   4.985   4.188
 6071WAT    HW118212   2.543   5.036   4.143
 6071WAT    HW218213   2.629   5.035   4.268
 6072WAT     OW18214   2.402   2.762   4.607
 6072WAT    HW118215   2.433   2.693   4.666
 6072WAT    HW218216   2.314   2.734   4.581
 6073WAT     OW18217   2.507   3.016   1.987
 6073WAT    HW118218   2.566   2.956   2.034
 6073WAT    HW218219   2.422   3.001   2.027
 6074WAT     OW18220   6.081   5.371   2.315
 6074WAT    HW118221   6.137   5.431   2.266
 6074WAT    HW218222   6.000   5.366   2.265
 6075WAT     OW18223   2.567   3.796   4.921
 6075WAT    HW118224   2.618   3.823   4.997
 6075WAT    HW218225   2.618   3.726   4.882
 6076WAT     OW18226   5.442   0.520   6.549
 6076WAT    HW118227   5.398   0.571   6.481
 6076WAT    HW218228   5.528   0.561   6.557
 6077WAT     OW18229   4.064   4.356   1.731
 6077WAT    HW118230   4.138   4.417   1.735
 6077WAT    HW218231   3.993   4.406   1.691
 6078WAT     OW18232   5.469   6.601   2.316
 6078WAT    HW118233   5.548   6.633   2.360
 6078WAT    HW218234   5.499   6.523   2.268
 6079WAT     OW18235   6.399   3.410   6.403
 6079WAT    HW118236   6.361   3.370   6.325
 6079WAT    HW218237   6.490   3.383   6.401
 6080WAT     OW18238   2.966   3.943   3.504
 6080WAT    HW118239   2.969   3.874   3.570
 6080WAT    HW218240   2.937   4.021   3.552
 6081WAT     OW18241   6.284   5.922   1.377
 6081WAT    HW118242   6.337   5.936   1.299
 6081WAT    HW218243   6.201   5.888   1.344
 6082WAT     OW18244   5.146   6.398   2.885
 6082WAT    HW118245   5.178   6.382   2.974
 6082WAT    HW218246   5.206   6.464   2.849
 6083WAT     OW18247   0.247   6.482   2.996
 6083WAT    HW118248   0.175   6.419   3.009
 6083WAT    HW218249   0.236   6.545   3.067
 6084WAT     OW18250   4.977   3.490   5.234
 6084WAT    HW118251   5.059   3.442   5.248
 6084WAT    HW218252   4.978   3.560   5.300
 6085WAT     OW18253   0.095   5.726   4.753
 6085WAT    HW118254   0.010   5.693   4.724
 6085WAT    HW218255   0.124   5.663   4.819
 6086WAT     OW18256   4.669   5.340   4.071
 6086WAT    HW118257   4.743   5.302   4.023
 6086WAT    HW218258   4.634   5.268   4.122
 6087WAT     OW18259   5.601   4.910   6.705
 6087WAT    HW118260   5.620   4.847   6.775
 6087WAT    HW218261   5.643   4.991   6.733
 6088WAT     OW18262   1.258   0.087   3.056
 6088WAT    HW118263   1.280   0.012   3.112
 6088WAT    HW218264   1.342   0.117   3.021
 6089WAT     OW18265   3.970   5.616   3.576
 6089WAT    HW118266   3.966   5.711   3.571
 6089WAT    HW218267   3.959   5.586   3.486
 6090WAT     OW18268   4.208   6.646   5.340
 6090WAT    HW118269   4.218   6.737   5.313
 6090WAT    HW218270   4.294   6.606   5.321
 6091WAT     OW18271   6.684   0.392   3.483
 6091WAT    HW118272   6.661   0.305   3.518
 6091WAT    HW218273   6.671   0.384   3.389
 6092WAT     OW18274   5.509   0.768   2.449
 6092WAT    HW118275   5.552   0.836   2.501
 6092WAT    HW218276   5.498   0.807   2.362
 6093WAT     OW18277   1.564   5.672   1.487
 6093WAT    HW118278   1.503   5.627   1.545
 6093WAT    HW218279   1.553   5.630   1.402
 6094WAT     OW18280   2.134   0.950   4.330
 6094WAT    HW118281   2.219   0.917   4.300
 6094WAT    HW218282   2.071   0.910   4.270
 6095WAT     OW18283   6.496   5.833   4.885
 6095WAT    HW118284   6.460   5.922   4.892
 6095WAT    HW218285   6.571   5.832   4.944
 6096WAT     OW18286   2.040   2.489   5.937
 6096WAT    HW118287   2.111   2.545   5.906
 6096WAT    HW218288   2.066   2.462   6.025
 6097WAT     OW18289   0.931   0.511   0.108
 6097WAT    HW118290   0.901   0.589   0.062
 6097WAT    HW218291   0.976   0.459   0.041
 6098WAT     OW18292   2.889   4.225   5.507
 6098WAT    HW118293   2.809   4.255   5.464
 6098WAT    HW218294   2.937   4.306   5.526
 6099WAT     OW18295   5.255   3.247   4.918
 6099WAT    HW118296   5.160   3.249   4.925
 6099WAT    HW218297   5.279   3.157   4.940
 6100WAT     OW18298   0.227   3.044   1.684
 6100WAT    HW118299   0.257   3.061   1.595
 6100WAT    HW218300   0.152   2.986   1.674
 6101WAT     OW18301   6.558   0.778   4.171
 6101WAT    HW118302   6.636   0.761   4.223
 6101WAT    HW218303   6.531   0.692   4.139
 6102WAT     OW18304   5.331   0.785   5.557
 6102WAT    HW118305   5.323   0.876   5.528
 6102WAT    HW218306   5.297   0.786   5.646
 6103WAT     OW18307   2.232   2.224   4.313
 6103WAT    HW118308   2.321   2.244   4.341
 6103WAT    HW218309   2.229   2.128   4.311
 6104WAT     OW18310   1.142   0.692   6.655
 6104WAT    HW118311   1.184   0.653   6.731
 6104WAT    HW218312   1.170   0.637   6.582
 6105WAT     OW18313   1.230   1.826   2.041
 6105WAT    HW118314   1.251   1.839   2.134
 6105WAT    HW218315   1.260   1.906   1.999
 6106WAT     OW18316   5.345   6.648   3.436
 6106WAT    HW118317   5.355   6.569   3.489
 6106WAT    HW218318   5.337   6.617   3.346
 6107WAT     OW18319   3.545   5.418   3.111
 6107WAT    HW118320   3.522   5.329   3.137
 6107WAT    HW218321   3.587   5.456   3.188
 6108WAT     OW18322   3.190   3.093   2.922
 6108WAT    HW118323   3.252   3.109   2.851
 6108WAT    HW218324   3.124   3.162   2.912
 6109WAT     OW18325   3.079   0.041   1.445
 6109WAT    HW118326   3.027   0.006   1.517
 6109WAT    HW218327   3.022   0.105   1.403
 6110WAT     OW18328   1.892   2.615   3.557
 6110WAT    HW118329   1.834   2.595   3.484
 6110WAT    HW218330   1.860   2.698   3.591
 6111WAT     OW18331   2.205   3.816   5.490
 6111WAT    HW118332   2.190   3.910   5.490
 6111WAT    HW218333   2.158   3.784   5.412
 6112WAT     OW18334   6.141   1.541   0.897
 6112WAT    HW118335   6.194   1.594   0.956
 6112WAT    HW218336   6.156   1.451   0.925
 6113WAT     OW18337   1.813   3.456   0.421
 6113WAT    HW118338   1.905   3.482   0.426
 6113WAT    HW218339   1.774   3.515   0.357
 6114WAT     OW18340   4.370   3.176   1.842
 6114WAT    HW118341   4.420   3.173   1.760
 6114WAT    HW218342   4.403   3.103   1.893
 6115WAT     OW18343   4.853   5.328   5.992
 6115WAT    HW118344   4.945   5.344   5.974
 6115WAT    HW218345   4.852   5.277   6.073
 6116WAT     OW18346   6.231   4.200   4.981
 6116WAT    HW118347   6.285   4.275   4.955
 6116WAT    HW218348   6.292   4.139   5.021
 6117WAT     OW18349   6.210   5.130   2.281
 6117WAT    HW118350   6.268   5.108   2.354
 6117WAT    HW218351   6.171   5.214   2.305
 6118WAT     OW18352   5.770   4.188   3.579
 6118WAT    HW118353   5.727   4.267   3.612
 6118WAT    HW218354   5.857   4.217   3.553
 6119WAT     OW18355   3.899   1.905   2.956
 6119WAT    HW118356   3.910   1.987   3.005
 6119WAT    HW218357   3.841   1.852   3.010
 6120WAT     OW18358   1.231   1.344   4.787
 6120WAT    HW118359   1.271   1.355   4.873
 6120WAT    HW218360   1.149   1.297   4.805
 6121WAT     OW18361   6.109   2.129   1.710
 6121WAT    HW118362   6.094   2.035   1.726
 6121WAT    HW218363   6.198   2.134   1.676
 6122WAT     OW18364   4.684   0.060   4.636
 6122WAT    HW118365   4.636   0.109   4.569
 6122WAT    HW218366   4.644   0.086   4.718
 6123WAT     OW18367   5.430   1.533   4.149
 6123WAT    HW118368   5.515   1.527   4.105
 6123WAT    HW218369   5.395   1.618   4.123
 6124WAT     OW18370   0.201   3.509   0.581
 6124WAT    HW118371   0.254   3.528   0.658
 6124WAT    HW218372   0.238   3.564   0.512
 6125WAT     OW18373   1.816   5.836   0.998
 6125WAT    HW118374   1.790   5.777   1.070
 6125WAT    HW218375   1.899   5.800   0.967
 6126WAT     OW18376   5.321   2.355   0.826
 6126WAT    HW118377   5.358   2.270   0.803
 6126WAT    HW218378   5.281   2.342   0.912
 6127WAT     OW18379   4.897   0.456   1.730
 6127WAT    HW118380   4.975   0.454   1.785
 6127WAT    HW218381   4.832   0.406   1.780
 6128WAT     OW18382   1.349   4.721   4.414
 6128WAT    HW118383   1.381   4.802   4.455
 6128WAT    HW218384   1.417   4.699   4.350
 6129WAT     OW18385   4.090   4.121   2.319
 6129WAT    HW118386   4.141   4.085   2.391
 6129WAT    HW218387   4.015   4.062   2.309
 6130WAT     OW18388   0.887   5.492   3.805
 6130WAT    HW118389   0.881   5.486   3.900
 6130WAT    HW218390   0.802   5.526   3.777
 6131WAT     OW18391   1.434   1.296   4.611
 6131WAT    HW118392   1.351   1.300   4.658
 6131WAT    HW218393   1.414   1.250   4.529
 6132WAT     OW18394   5.838   4.050   2.538
 6132WAT    HW118395   5.889   4.063   2.458
 6132WAT    HW218396   5.747   4.048   2.510
 6133WAT     OW18397   5.091   2.831   4.317
 6133WAT    HW118398   5.033   2.809   4.390
 6133WAT    HW218399   5.175   2.792   4.341
 6134WAT     OW18400   0.485   2.961   1.999
 6134WAT    HW118401   0.411   3.018   1.977
 6134WAT    HW218402   0.527   2.943   1.915
 6135WAT     OW18403   6.426   5.176   4.690
 6135WAT    HW118404   6.436   5.267   4.663
 6135WAT    HW218405   6.479   5.127   4.627
 6136WAT     OW18406   0.792   6.171   4.886
 6136WAT    HW118407   0.765   6.262   4.882
 6136WAT    HW218408   0.888   6.174   4.897
 6137WAT     OW18409   4.251   4.182   0.475
 6137WAT    HW118410   4.208   4.263   0.449
 6137WAT    HW218411   4.180   4.120   0.489
 6138WAT     OW18412   4.617   1.074   0.202
 6138WAT    HW118413   4.685   1.141   0.204
 6138WAT    HW218414   4.665   0.991   0.207
 6139WAT     OW18415   5.348   1.394   3.817
 6139WAT    HW118416   5.254   1.413   3.808
 6139WAT    HW218417   5.392   1.466   3.772
 6140WAT     OW18418   6.665   3.809   5.791
 6140WAT    HW118419   6.735   3.840   5.848
 6140WAT    HW218420   6.694   3.829   5.703
 6141WAT     OW18421   2.406   2.474   3.739
 6141WAT    HW118422   2.399   2.566   3.711
 6141WAT    HW218423   2.374   2.424   3.664
 6142WAT     OW18424   4.565   1.900   0.825
 6142WAT    HW118425   4.655   1.933   0.835
 6142WAT    HW218426   4.558   1.830   0.889
 6143WAT     OW18427   0.254   3.046   6.327
 6143WAT    HW118428   0.186   2.982   6.346
 6143WAT    HW218429   0.209   3.131   6.333
 6144WAT     OW18430   2.210   5.186   1.110
 6144WAT    HW118431   2.222   5.237   1.190
 6144WAT    HW218432   2.145   5.120   1.132
 6145WAT     OW18433   4.052   6.213   1.996
 6145WAT    HW118434   4.032   6.282   2.059
 6145WAT    HW218435   4.133   6.240   1.954
 6146WAT     OW18436   0.307   4.004   5.760
 6146WAT    HW118437   0.399   3.992   5.784
 6146WAT    HW218438   0.303   3.985   5.667
 6147WAT     OW18439   5.518   4.186   6.123
 6147WAT    HW118440   5.502   4.209   6.032
 6147WAT    HW218441   5.442   4.219   6.170
 6148WAT     OW18442   4.720   0.671   4.452
 6148WAT    HW118443   4.671   0.710   4.380
 6148WAT    HW218444   4.670   0.593   4.476
 6149WAT     OW18445   1.986   4.598   2.760
 6149WAT    HW118446   2.019   4.527   2.705
 6149WAT    HW218447   1.891   4.584   2.763
 6150WAT     OW18448   0.712   5.675   1.407
 6150WAT    HW118449   0.777   5.615   1.445
 6150WAT    HW218450   0.761   5.723   1.340
 6151WAT     OW18451   4.240   2.146   2.222
 6151WAT    HW118452   4.170   2.137   2.157
 6151WAT    HW218453   4.304   2.202   2.179
 6152WAT     OW18454   1.010   5.939   6.261
 6152WAT    HW118455   1.105   5.937   6.248
 6152WAT    HW218456   0.983   6.023   6.225
 6153WAT     OW18457   4.108   0.726   4.976
 6153WAT    HW118458   4.058   0.744   5.056
 6153WAT    HW218459   4.112   0.809   4.930
 6154WAT     OW18460   1.374   6.283   4.705
 6154WAT    HW118461   1.337   6.361   4.662
 6154WAT    HW218462   1.306   6.216   4.697
 6155WAT     OW18463   0.398   6.295   5.647
 6155WAT    HW118464   0.412   6.208   5.685
 6155WAT    HW218465   0.462   6.301   5.576
 6156WAT     OW18466   1.296   2.403   5.194
 6156WAT    HW118467   1.250   2.483   5.218
 6156WAT    HW218468   1.240   2.361   5.129
 6157WAT     OW18469   1.981   1.646   4.303
 6157WAT    HW118470   1.895   1.612   4.327
 6157WAT    HW218471   2.033   1.638   4.383
 6158WAT     OW18472   5.782   6.361   2.197
 6158WAT    HW118473   5.818   6.308   2.126
 6158WAT    HW218474   5.688   6.364   2.180
 6159WAT     OW18475   4.399   5.305   4.529
 6159WAT    HW118476   4.343   5.344   4.596
 6159WAT    HW218477   4.339   5.259   4.471
 6160WAT     OW18478   2.689   3.928   2.681
 6160WAT    HW118479   2.704   3.988   2.608
 6160WAT    HW218480   2.593   3.924   2.689
 6161WAT     OW18481   0.924   4.997   3.935
 6161WAT    HW118482   0.850   5.001   3.874
 6161WAT    HW218483   1.000   5.021   3.882
 6162WAT     OW18484   4.509   2.181   2.883
 6162WAT    HW118485   4.483   2.147   2.968
 6162WAT    HW218486   4.434   2.162   2.826
 6163WAT     OW18487   6.020   4.039   4.911
 6163WAT    HW118488   6.092   4.101   4.928
 6163WAT    HW218489   6.043   3.962   4.963
 6164WAT     OW18490   6.109   2.560   1.944
 6164WAT    HW118491   6.086   2.607   1.864
 6164WAT    HW218492   6.149   2.479   1.913
 6165WAT     OW18493   2.785   2.240   2.590
 6165WAT    HW118494   2.869   2.196   2.573
 6165WAT    HW218495   2.793   2.324   2.545
 6166WAT     OW18496   2.583   4.351   4.236
 6166WAT    HW118497   2.590   4.417   4.304
 6166WAT    HW218498   2.494   4.317   4.245
 6167WAT     OW18499   5.039   6.515   4.840
 6167WAT    HW118500   4.951   6.491   4.870
 6167WAT    HW218501   5.033   6.512   4.745
 6168WAT     OW18502   0.678   6.343   4.351
 6168WAT    HW118503   0.718   6.257   4.343
 6168WAT    HW218504   0.622   6.337   4.428
 6169WAT     OW18505   5.794   4.589   6.676
 6169WAT    HW118506   5.772   4.640   6.598
 6169WAT    HW218507   5.744   4.630   6.746
 6170WAT     OW18508   3.031   6.316   6.517
 6170WAT    HW118509   2.992   6.256   6.454
 6170WAT    HW218510   3.062   6.389   6.463
 6171WAT     OW18511   5.690   3.668   2.516
 6171WAT    HW118512   5.746   3.724   2.570
 6171WAT    HW218513   5.685   3.585   2.564
 6172WAT     OW18514   2.657   0.055   0.207
 6172WAT    HW118515   2.571   0.090   0.185
 6172WAT    HW218516   2.697   0.034   0.122
 6173WAT     OW18517   4.984   0.997   0.338
 6173WAT    HW118518   5.080   0.996   0.338
 6173WAT    HW218519   4.961   1.054   0.412
 6174WAT     OW18520   0.717   3.654   1.476
 6174WAT    HW118521   0.697   3.617   1.562
 6174WAT    HW218522   0.786   3.718   1.493
 6175WAT     OW18523   3.899   0.491   2.183
 6175WAT    HW118524   3.866   0.463   2.268
 6175WAT    HW218525   3.946   0.415   2.149
 6176WAT     OW18526   1.199   4.045   5.440
 6176WAT    HW118527   1.156   3.999   5.512
 6176WAT    HW218528   1.130   4.100   5.402
 6177WAT     OW18529   6.635   1.129   2.327
 6177WAT    HW118530   6.671   1.149   2.414
 6177WAT    HW218531   6.689   1.057   2.295
 6178WAT     OW18532   2.423   5.826   2.390
 6178WAT    HW118533   2.411   5.919   2.412
 6178WAT    HW218534   2.508   5.804   2.429
 6179WAT     OW18535   4.869   6.399   2.445
 6179WAT    HW118536   4.788   6.350   2.456
 6179WAT    HW218537   4.888   6.394   2.351
 6180WAT     OW18538   4.418   4.522   6.030
 6180WAT    HW118539   4.394   4.613   6.046
 6180WAT    HW218540   4.508   4.525   5.999
 6181WAT     OW18541   0.473   6.675   2.670
 6181WAT    HW118542   0.506   6.765   2.675
 6181WAT    HW218543   0.384   6.680   2.705
 6182WAT     OW18544   3.291   5.065   6.162
 6182WAT    HW118545   3.216   5.020   6.124
 6182WAT    HW218546   3.325   5.120   6.090
 6183WAT     OW18547   0.558   2.491   2.078
 6183WAT    HW118548   0.644   2.460   2.049
 6183WAT    HW218549   0.544   2.448   2.162
 6184WAT     OW18550   4.911   2.034   1.393
 6184WAT    HW118551   4.925   2.103   1.329
 6184WAT    HW218552   4.956   1.958   1.357
 6185WAT     OW18553   6.189   2.142   1.077
 6185WAT    HW118554   6.126   2.202   1.037
 6185WAT    HW218555   6.226   2.192   1.150
 6186WAT     OW18556   1.290   5.173   1.410
 6186WAT    HW118557   1.211   5.224   1.423
 6186WAT    HW218558   1.285   5.144   1.318
 6187WAT     OW18559   4.741   5.153   2.226
 6187WAT    HW118560   4.777   5.117   2.145
 6187WAT    HW218561   4.682   5.223   2.196
 6188WAT     OW18562   2.241   0.408   4.635
 6188WAT    HW118563   2.205   0.320   4.648
 6188WAT    HW218564   2.322   0.394   4.585
 6189WAT     OW18565   0.654   0.899   5.809
 6189WAT    HW118566   0.742   0.888   5.772
 6189WAT    HW218567   0.599   0.922   5.734
 6190WAT     OW18568   1.587   1.201   6.135
 6190WAT    HW118569   1.570   1.185   6.227
 6190WAT    HW218570   1.556   1.291   6.120
 6191WAT     OW18571   2.570   4.866   3.334
 6191WAT    HW118572   2.636   4.801   3.313
 6191WAT    HW218573   2.506   4.820   3.389
 6192WAT     OW18574   1.023   4.323   2.663
 6192WAT    HW118575   0.969   4.244   2.661
 6192WAT    HW218576   1.106   4.293   2.700
 6193WAT     OW18577   5.190   1.916   2.845
 6193WAT    HW118578   5.270   1.936   2.798
 6193WAT    HW218579   5.134   1.872   2.780
 6194WAT     OW18580   0.812   2.159   0.254
 6194WAT    HW118581   0.768   2.227   0.306
 6194WAT    HW218582   0.805   2.190   0.164
 6195WAT     OW18583   6.607   5.581   2.975
 6195WAT    HW118584   6.613   5.485   2.976
 6195WAT    HW218585   6.530   5.601   3.028
 6196WAT     OW18586   4.269   2.888   4.644
 6196WAT    HW118587   4.268   2.914   4.736
 6196WAT    HW218588   4.347   2.931   4.608
 6197WAT     OW18589   0.119   2.547   0.470
 6197WAT    HW118590   0.107   2.641   0.477
 6197WAT    HW218591   0.193   2.535   0.411
 6198WAT     OW18592   5.667   5.387   3.591
 6198WAT    HW118593   5.724   5.336   3.648
 6198WAT    HW218594   5.698   5.369   3.503
 6199WAT     OW18595   4.841   4.520   1.503
 6199WAT    HW118596   4.902   4.514   1.576
 6199WAT    HW218597   4.855   4.608   1.468
 6200WAT     OW18598   3.468   1.348   5.431
 6200WAT    HW118599   3.376   1.368   5.414
 6200WAT    HW218600   3.470   1.322   5.523
 6201WAT     OW18601   5.044   6.251   6.699
 6201WAT    HW118602   4.961   6.220   6.734
 6201WAT    HW218603   5.021   6.323   6.641
 6202WAT     OW18604   2.689   5.282   0.809
 6202WAT    HW118605   2.608   5.234   0.794
 6202WAT    HW218606   2.709   5.267   0.902
 6203WAT     OW18607   0.429   0.957   5.962
 6203WAT    HW118608   0.512   0.943   5.916
 6203WAT    HW218609   0.453   1.011   6.038
 6204WAT     OW18610   2.116   0.940   3.258
 6204WAT    HW118611   2.130   1.035   3.259
 6204WAT    HW218612   2.100   0.917   3.349
 6205WAT     OW18613   5.122   5.930   1.723
 6205WAT    HW118614   5.133   5.844   1.765
 6205WAT    HW218615   5.105   5.990   1.796
 6206WAT     OW18616   1.145   1.453   1.969
 6206WAT    HW118617   1.230   1.493   1.985
 6206WAT    HW218618   1.109   1.501   1.895
 6207WAT     OW18619   0.573   6.519   4.169
 6207WAT    HW118620   0.624   6.462   4.228
 6207WAT    HW218621   0.498   6.547   4.221
 6208WAT     OW18622   1.136   3.204   1.955
 6208WAT    HW118623   1.084   3.171   2.028
 6208WAT    HW218624   1.077   3.197   1.879
 6209WAT     OW18625   1.631   3.645   5.092
 6209WAT    HW118626   1.702   3.613   5.036
 6209WAT    HW218627   1.649   3.739   5.102
 6210WAT     OW18628   5.760   2.404   4.024
 6210WAT    HW118629   5.714   2.485   4.003
 6210WAT    HW218630   5.745   2.347   3.948
 6211WAT     OW18631   2.994   3.283   2.836
 6211WAT    HW118632   2.926   3.320   2.779
 6211WAT    HW218633   3.040   3.358   2.871
 6212WAT     OW18634   1.462   3.551   1.839
 6212WAT    HW118635   1.382   3.603   1.826
 6212WAT    HW218636   1.433   3.477   1.892
 6213WAT     OW18637   5.352   2.645   3.656
 6213WAT    HW118638   5.276   2.631   3.711
 6213WAT    HW218639   5.410   2.700   3.709
 6214WAT     OW18640   5.722   1.187   1.999
 6214WAT    HW118641   5.718   1.141   2.083
 6214WAT    HW218642   5.709   1.118   1.934
 6215WAT     OW18643   1.664   4.632   2.008
 6215WAT    HW118644   1.691   4.717   2.041
 6215WAT    HW218645   1.666   4.640   1.913
 6216WAT     OW18646   6.007   6.126   4.639
 6216WAT    HW118647   6.093   6.124   4.597
 6216WAT    HW218648   5.957   6.057   4.594
 6217WAT     OW18649   2.417   5.179   4.111
 6217WAT    HW118650   2.456   5.246   4.054
 6217WAT    HW218651   2.334   5.157   4.068
 6218WAT     OW18652   1.801   5.199   6.490
 6218WAT    HW118653   1.789   5.106   6.469
 6218WAT    HW218654   1.895   5.214   6.478
 6219WAT     OW18655   4.766   3.479   5.508
 6219WAT    HW118656   4.725   3.561   5.482
 6219WAT    HW218657   4.759   3.423   5.430
 6220WAT     OW18658   3.866   1.837   1.167
 6220WAT    HW118659   3.887   1.918   1.214
 6220WAT    HW218660   3.949   1.791   1.159
 6221WAT     OW18661   0.066   3.969   4.516
 6221WAT    HW118662   0.138   3.992   4.575
 6221WAT    HW218663  -0.011   4.008   4.558
 6222WAT     OW18664   2.784   0.704   6.721
 6222WAT    HW118665   2.706   0.653   6.697
 6222WAT    HW218666   2.751   0.772   6.780
 6223WAT     OW18667   3.132   6.612   1.221
 6223WAT    HW118668   3.104   6.650   1.305
 6223WAT    HW218669   3.201   6.670   1.190
 6224WAT     OW18670   5.404   0.645   2.667
 6224WAT    HW118671   5.355   0.718   2.702
 6224WAT    HW218672   5.439   0.677   2.583
 6225WAT     OW18673   3.435   5.373   4.739
 6225WAT    HW118674   3.426   5.367   4.834
 6225WAT    HW218675   3.506   5.436   4.725
 6226WAT     OW18676   4.080   0.515   5.272
 6226WAT    HW118677   4.014   0.492   5.207
 6226WAT    HW218678   4.065   0.452   5.344
 6227WAT     OW18679   4.814   3.691   3.774
 6227WAT    HW118680   4.806   3.610   3.725
 6227WAT    HW218681   4.849   3.754   3.712
 6228WAT     OW18682   0.256   4.864   1.474
 6228WAT    HW118683   0.285   4.886   1.563
 6228WAT    HW218684   0.172   4.820   1.487
 6229WAT     OW18685   3.470   6.703   1.710
 6229WAT    HW118686   3.405   6.646   1.751
 6229WAT    HW218687   3.427   6.734   1.630
 6230WAT     OW18688   3.208   6.228   4.468
 6230WAT    HW118689   3.303   6.232   4.479
 6230WAT    HW218690   3.175   6.305   4.513
 6231WAT     OW18691   0.668   1.047   1.759
 6231WAT    HW118692   0.683   1.037   1.853
 6231WAT    HW218693   0.743   1.006   1.718
 6232WAT     OW18694   0.219   1.507   6.697
 6232WAT    HW118695   0.268   1.589   6.708
 6232WAT    HW218696   0.231   1.461   6.780
 6233WAT     OW18697   6.496   0.530   1.986
 6233WAT    HW118698   6.516   0.558   1.897
 6233WAT    HW218699   6.548   0.450   1.999
 6234WAT     OW18700   5.976   0.731   6.299
 6234WAT    HW118701   6.027   0.709   6.377
 6234WAT    HW218702   5.969   0.826   6.301
 6235WAT     OW18703   0.278   4.888   1.751
 6235WAT    HW118704   0.368   4.887   1.783
 6235WAT    HW218705   0.233   4.822   1.803
 6236WAT     OW18706   0.214   4.249   6.701
 6236WAT    HW118707   0.300   4.281   6.729
 6236WAT    HW218708   0.225   4.231   6.607
 6237WAT     OW18709   0.706   0.345   5.990
 6237WAT    HW118710   0.730   0.432   6.023
 6237WAT    HW218711   0.675   0.299   6.068
 6238WAT     OW18712   0.918   1.158   5.618
 6238WAT    HW118713   0.922   1.176   5.524
 6238WAT    HW218714   1.006   1.176   5.650
 6239WAT     OW18715   0.871   2.645   6.304
 6239WAT    HW118716   0.821   2.568   6.278
 6239WAT    HW218717   0.809   2.717   6.297
 6240WAT     OW18718   3.226   2.785   6.500
 6240WAT    HW118719   3.197   2.694   6.492
 6240WAT    HW218720   3.294   2.796   6.434
 6241WAT     OW18721   1.601   0.780   0.888
 6241WAT    HW118722   1.683   0.815   0.853
 6241WAT    HW218723   1.552   0.857   0.917
 6242WAT     OW18724   1.755   2.520   1.894
 6242WAT    HW118725   1.711   2.605   1.898
 6242WAT    HW218726   1.818   2.523   1.966
 6243WAT     OW18727   2.647   4.486   3.216
 6243WAT    HW118728   2.700   4.451   3.287
 6243WAT    HW218729   2.561   4.500   3.255
 6244WAT     OW18730   0.025   4.405   4.415
 6244WAT    HW118731   0.013   4.402   4.320
 6244WAT    HW218732  -0.064   4.399   4.450
 6245WAT     OW18733   0.759   3.292   6.633
 6245WAT    HW118734   0.699   3.363   6.610
 6245WAT    HW218735   0.717   3.213   6.598
 6246WAT     OW18736   2.441   3.106   3.070
 6246WAT    HW118737   2.396   3.190   3.063
 6246WAT    HW218738   2.371   3.041   3.075
 6247WAT     OW18739   0.307   2.730   6.005
 6247WAT    HW118740   0.273   2.649   5.966
 6247WAT    HW218741   0.355   2.701   6.082
 6248WAT     OW18742   6.585   4.132   6.474
 6248WAT    HW118743   6.503   4.101   6.512
 6248WAT    HW218744   6.620   4.194   6.537
 6249WAT     OW18745   2.939   2.020   4.050
 6249WAT    HW118746   2.844   2.028   4.056
 6249WAT    HW218747   2.972   2.067   4.127
 6250WAT     OW18748   4.779   0.264   5.924
 6250WAT    HW118749   4.757   0.292   6.013
 6250WAT    HW218750   4.868   0.295   5.910
 6251WAT     OW18751   1.456   1.993   1.648
 6251WAT    HW118752   1.548   2.012   1.667
 6251WAT    HW218753   1.418   2.079   1.627
 6252WAT     OW18754   0.119   0.537   1.971
 6252WAT    HW118755   0.159   0.508   2.052
 6252WAT    HW218756   0.046   0.477   1.957
 6253WAT     OW18757   6.711   5.834   5.081
 6253WAT    HW118758   6.710   5.928   5.065
 6253WAT    HW218759   6.802   5.815   5.107
 6254WAT     OW18760   3.504   4.428   0.332
 6254WAT    HW118761   3.423   4.420   0.280
 6254WAT    HW218762   3.478   4.404   0.421
 6255WAT     OW18763   5.784   4.563   1.778
 6255WAT    HW118764   5.855   4.568   1.714
 6255WAT    HW218765   5.807   4.488   1.833
 6256WAT     OW18766   5.232   5.501   4.370
 6256WAT    HW118767   5.250   5.407   4.367
 6256WAT    HW218768   5.141   5.507   4.400
 6257WAT     OW18769   0.673   4.006   2.811
 6257WAT    HW118770   0.622   4.085   2.828
 6257WAT    HW218771   0.686   3.967   2.898
 6258WAT     OW18772   5.405   3.381   1.031
 6258WAT    HW118773   5.422   3.426   0.949
 6258WAT    HW218774   5.337   3.317   1.010
 6259WAT     OW18775   3.130   0.300   1.189
 6259WAT    HW118776   3.148   0.381   1.237
 6259WAT    HW218777   3.048   0.268   1.226
 6260WAT     OW18778   2.979   5.370   3.525
 6260WAT    HW118779   2.975   5.401   3.615
 6260WAT    HW218780   3.036   5.293   3.528
 6261WAT     OW18781   4.405   3.590   3.876
 6261WAT    HW118782   4.415   3.647   3.952
 6261WAT    HW218783   4.393   3.503   3.913
 6262WAT     OW18784   2.140   2.712   0.943
 6262WAT    HW118785   2.087   2.733   1.020
 6262WAT    HW218786   2.075   2.686   0.877
 6263WAT     OW18787   2.570   2.637   3.043
 6263WAT    HW118788   2.643   2.696   3.022
 6263WAT    HW218789   2.517   2.687   3.105
 6264WAT     OW18790   5.070   5.393   3.862
 6264WAT    HW118791   5.131   5.337   3.910
 6264WAT    HW218792   5.052   5.465   3.922
 6265WAT     OW18793   1.434   3.643   0.694
 6265WAT    HW118794   1.356   3.636   0.748
 6265WAT    HW218795   1.406   3.611   0.608
 6266WAT     OW18796   4.070   3.896   1.859
 6266WAT    HW118797   4.020   3.950   1.797
 6266WAT    HW218798   4.082   3.953   1.935
 6267WAT     OW18799   2.154   5.826   1.115
 6267WAT    HW118800   2.156   5.873   1.031
 6267WAT    HW218801   2.205   5.880   1.174
 6268WAT     OW18802   2.688   2.110   2.358
 6268WAT    HW118803   2.707   2.152   2.442
 6268WAT    HW218804   2.632   2.173   2.313
 6269WAT     OW18805   2.171   4.110   0.264
 6269WAT    HW118806   2.081   4.089   0.237
 6269WAT    HW218807   2.180   4.203   0.245
 6270WAT     OW18808   2.338   6.573   5.502
 6270WAT    HW118809   2.260   6.523   5.475
 6270WAT    HW218810   2.372   6.610   5.421
 6271WAT     OW18811   2.826   3.368   6.085
 6271WAT    HW118812   2.821   3.463   6.069
 6271WAT    HW218813   2.745   3.348   6.131
 6272WAT     OW18814   2.713   4.250   5.859
 6272WAT    HW118815   2.776   4.211   5.919
 6272WAT    HW218816   2.641   4.280   5.914
 6273WAT     OW18817   4.770   1.893   0.381
 6273WAT    HW118818   4.809   1.922   0.464
 6273WAT    HW218819   4.686   1.939   0.376
 6274WAT     OW18820   4.023   2.425   3.553
 6274WAT    HW118821   4.004   2.439   3.646
 6274WAT    HW218822   4.108   2.467   3.540
 6275WAT     OW18823   0.864   1.635   2.609
 6275WAT    HW118824   0.935   1.580   2.576
 6275WAT    HW218825   0.807   1.650   2.534
 6276WAT     OW18826   5.271   0.963   2.078
 6276WAT    HW118827   5.225   0.979   2.160
 6276WAT    HW218828   5.238   0.878   2.049
 6277WAT     OW18829   2.776   3.615   4.844
 6277WAT    HW118830   2.834   3.687   4.868
 6277WAT    HW218831   2.800   3.543   4.903
 6278WAT     OW18832   3.506   4.968   6.305
 6278WAT    HW118833   3.466   4.929   6.383
 6278WAT    HW218834   3.432   4.988   6.247
 6279WAT     OW18835   3.584   5.978   1.948
 6279WAT    HW118836   3.651   6.035   1.909
 6279WAT    HW218837   3.505   5.994   1.896
 6280WAT     OW18838   3.664   5.323   3.562
 6280WAT    HW118839   3.571   5.307   3.548
 6280WAT    HW218840   3.704   5.236   3.565
 6281WAT     OW18841   3.001   1.742   6.172
 6281WAT    HW118842   3.079   1.792   6.147
 6281WAT    HW218843   2.935   1.765   6.107
 6282WAT     OW18844   6.331   3.978   5.430
 6282WAT    HW118845   6.356   3.901   5.379
 6282WAT    HW218846   6.413   4.011   5.466
 6283WAT     OW18847   2.259   0.562   3.626
 6283WAT    HW118848   2.250   0.496   3.557
 6283WAT    HW218849   2.351   0.587   3.623
 6284WAT     OW18850   0.030   6.115   1.122
 6284WAT    HW118851   0.027   6.121   1.217
 6284WAT    HW218852  -0.053   6.154   1.093
 6285WAT     OW18853   6.579   0.395   1.152
 6285WAT    HW118854   6.615   0.481   1.131
 6285WAT    HW218855   6.486   0.401   1.131
 6286WAT     OW18856   2.343   6.146   0.770
 6286WAT    HW118857   2.308   6.200   0.699
 6286WAT    HW218858   2.382   6.209   0.831
 6287WAT     OW18859   2.138   0.534   5.722
 6287WAT    HW118860   2.174   0.446   5.728
 6287WAT    HW218861   2.139   0.554   5.628
 6288WAT     OW18862   1.556   5.353   3.447
 6288WAT    HW118863   1.610   5.335   3.370
 6288WAT    HW218864   1.503   5.274   3.458
 6289WAT     OW18865   0.581   4.621   2.367
 6289WAT    HW118866   0.658   4.618   2.310
 6289WAT    HW218867   0.530   4.696   2.334
 6290WAT     OW18868   1.051   1.349   4.133
 6290WAT    HW118869   1.055   1.444   4.122
 6290WAT    HW218870   1.062   1.314   4.045
 6291WAT     OW18871   0.584   3.518   5.670
 6291WAT    HW118872   0.507   3.576   5.667
 6291WAT    HW218873   0.563   3.455   5.738
 6292WAT     OW18874   4.769   3.843   1.633
 6292WAT    HW118875   4.717   3.845   1.712
 6292WAT    HW218876   4.742   3.922   1.585
 6293WAT     OW18877   5.655   4.706   0.157
 6293WAT    HW118878   5.594   4.633   0.151
 6293WAT    HW218879   5.708   4.687   0.234
 6294WAT     OW18880   1.888   0.662   0.546
 6294WAT    HW118881   1.818   0.598   0.532
 6294WAT    HW218882   1.879   0.724   0.475
 6295WAT     OW18883   0.113   3.290   1.406
 6295WAT    HW118884   0.019   3.299   1.388
 6295WAT    HW218885   0.128   3.350   1.479
 6296WAT     OW18886   0.045   0.784   3.804
 6296WAT    HW118887   0.075   0.751   3.719
 6296WAT    HW218888  -0.039   0.741   3.818
 6297WAT     OW18889   4.341   4.939   1.177
 6297WAT    HW118890   4.264   4.886   1.158
 6297WAT    HW218891   4.413   4.876   1.181
 6298WAT     OW18892   4.375   5.184   1.068
 6298WAT    HW118893   4.352   5.098   1.102
 6298WAT    HW218894   4.427   5.224   1.138
 6299WAT     OW18895   0.922   1.662   5.668
 6299WAT    HW118896   0.990   1.727   5.647
 6299WAT    HW218897   0.921   1.603   5.593
 6300WAT     OW18898   1.335   5.613   3.986
 6300WAT    HW118899   1.317   5.655   4.070
 6300WAT    HW218900   1.404   5.667   3.947
 6301WAT     OW18901   2.734   4.109   5.259
 6301WAT    HW118902   2.677   4.057   5.316
 6301WAT    HW218903   2.712   4.200   5.281
 6302WAT     OW18904   5.568   1.198   1.427
 6302WAT    HW118905   5.584   1.135   1.497
 6302WAT    HW218906   5.475   1.187   1.407
 6303WAT     OW18907   3.593   3.506   2.188
 6303WAT    HW118908   3.684   3.476   2.189
 6303WAT    HW218909   3.593   3.578   2.124
 6304WAT     OW18910   0.327   2.389   1.966
 6304WAT    HW118911   0.406   2.434   1.995
 6304WAT    HW218912   0.314   2.418   1.876
 6305WAT     OW18913   5.656   6.241   5.971
 6305WAT    HW118914   5.568   6.232   6.009
 6305WAT    HW218915   5.706   6.287   6.038
 6306WAT     OW18916   0.463   4.384   0.572
 6306WAT    HW118917   0.469   4.429   0.488
 6306WAT    HW218918   0.433   4.451   0.634
 6307WAT     OW18919   6.101   1.698   2.485
 6307WAT    HW118920   6.034   1.752   2.528
 6307WAT    HW218921   6.162   1.762   2.447
 6308WAT     OW18922   3.236   3.271   2.345
 6308WAT    HW118923   3.315   3.258   2.397
 6308WAT    HW218924   3.267   3.305   2.261
 6309WAT     OW18925   0.752   4.263   1.607
 6309WAT    HW118926   0.750   4.240   1.515
 6309WAT    HW218927   0.660   4.259   1.635
 6310WAT     OW18928   2.548   4.820   1.997
 6310WAT    HW118929   2.613   4.791   1.933
 6310WAT    HW218930   2.464   4.790   1.962
 6311WAT     OW18931   4.942   0.345   5.641
 6311WAT    HW118932   4.981   0.332   5.728
 6311WAT    HW218933   4.990   0.285   5.585
 6312WAT     OW18934   0.939   2.084   0.618
 6312WAT    HW118935   0.881   2.097   0.693
 6312WAT    HW218936   0.958   2.173   0.588
 6313WAT     OW18937   0.799   5.316   4.798
 6313WAT    HW118938   0.792   5.230   4.756
 6313WAT    HW218939   0.716   5.359   4.778
 6314WAT     OW18940   2.856   4.299   4.250
 6314WAT    HW118941   2.844   4.217   4.298
 6314WAT    HW218942   2.768   4.322   4.220
 6315WAT     OW18943   6.388   5.814   5.383
 6315WAT    HW118944   6.440   5.867   5.443
 6315WAT    HW218945   6.317   5.873   5.355
 6316WAT     OW18946   1.754   4.880   2.099
 6316WAT    HW118947   1.747   4.949   2.033
 6316WAT    HW218948   1.747   4.927   2.183
 6317WAT     OW18949   3.556   0.430   0.178
 6317WAT    HW118950   3.504   0.475   0.111
 6317WAT    HW218951   3.526   0.339   0.174
 6318WAT     OW18952   3.005   0.083   5.198
 6318WAT    HW118953   3.069   0.071   5.268
 6318WAT    HW218954   3.012   0.176   5.176
 6319WAT     OW18955   3.227   4.284   5.323
 6319WAT    HW118956   3.209   4.315   5.411
 6319WAT    HW218957   3.142   4.252   5.291
 6320WAT     OW18958   3.125   4.844   3.696
 6320WAT    HW118959   3.083   4.821   3.778
 6320WAT    HW218960   3.063   4.815   3.628
 6321WAT     OW18961   0.161   6.018   0.624
 6321WAT    HW118962   0.235   5.993   0.678
 6321WAT    HW218963   0.084   5.993   0.675
 6322WAT     OW18964   2.576   2.363   3.068
 6322WAT    HW118965   2.572   2.458   3.076
 6322WAT    HW218966   2.646   2.347   3.005
 6323WAT     OW18967   0.366   1.218   5.524
 6323WAT    HW118968   0.355   1.290   5.586
 6323WAT    HW218969   0.419   1.255   5.453
 6324WAT     OW18970   0.791   3.573   2.496
 6324WAT    HW118971   0.791   3.533   2.409
 6324WAT    HW218972   0.710   3.542   2.536
 6325WAT     OW18973   0.864   2.200   1.040
 6325WAT    HW118974   0.861   2.199   1.135
 6325WAT    HW218975   0.957   2.208   1.019
 6326WAT     OW18976   0.094   2.271   4.947
 6326WAT    HW118977   0.007   2.298   4.919
 6326WAT    HW218978   0.131   2.226   4.871
 6327WAT     OW18979   1.423   1.259   5.707
 6327WAT    HW118980   1.470   1.335   5.742
 6327WAT    HW218981   1.454   1.251   5.617
 6328WAT     OW18982   4.992   4.623   4.105
 6328WAT    HW118983   5.055   4.592   4.170
 6328WAT    HW218984   5.045   4.644   4.028
 6329WAT     OW18985   0.967   2.005   4.895
 6329WAT    HW118986   1.048   2.005   4.946
 6329WAT    HW218987   0.994   2.027   4.806
 6330WAT     OW18988   6.143   3.369   5.184
 6330WAT    HW118989   6.137   3.337   5.094
 6330WAT    HW218990   6.066   3.332   5.228
 6331WAT     OW18991   6.040   5.523   3.866
 6331WAT    HW118992   6.023   5.615   3.886
 6331WAT    HW218993   5.959   5.478   3.890
 6332WAT     OW18994   2.428   6.712   5.283
 6332WAT    HW118995   2.365   6.717   5.211
 6332WAT    HW218996   2.487   6.785   5.268
 6333WAT     OW18997   4.719   0.307   3.005
 6333WAT    HW118998   4.679   0.286   2.920
 6333WAT    HW218999   4.805   0.266   3.002
 6334WAT     OW19000   6.257   1.387   3.635
 6334WAT    HW119001   6.347   1.416   3.648
 6334WAT    HW219002   6.261   1.329   3.558
 6335WAT     OW19003   6.464   1.280   5.498
 6335WAT    HW119004   6.503   1.206   5.544
 6335WAT    HW219005   6.539   1.330   5.465
 6336WAT     OW19006   2.733   4.596   1.358
 6336WAT    HW119007   2.687   4.556   1.284
 6336WAT    HW219008   2.775   4.523   1.402
 6337WAT     OW19009   4.807   5.292   0.280
 6337WAT    HW119010   4.799   5.386   0.267
 6337WAT    HW219011   4.778   5.278   0.371
 6338WAT     OW19012   4.980   4.550   3.476
 6338WAT    HW119013   5.058   4.494   3.474
 6338WAT    HW219014   4.948   4.549   3.386
 6339WAT     OW19015   0.138   3.295   6.306
 6339WAT    HW119016   0.072   3.315   6.372
 6339WAT    HW219017   0.090   3.290   6.223
 6340WAT     OW19018   0.728   2.963   1.183
 6340WAT    HW119019   0.684   2.880   1.164
 6340WAT    HW219020   0.817   2.951   1.152
 6341WAT     OW19021   6.218   2.571   0.297
 6341WAT    HW119022   6.196   2.643   0.237
 6341WAT    HW219023   6.238   2.497   0.239
 6342WAT     OW19024   1.323   2.438   2.313
 6342WAT    HW119025   1.309   2.522   2.268
 6342WAT    HW219026   1.344   2.463   2.403
 6343WAT     OW19027   1.042   4.433   5.486
 6343WAT    HW119028   1.048   4.360   5.424
 6343WAT    HW219029   1.005   4.394   5.565
 6344WAT     OW19030   2.943   3.364   0.391
 6344WAT    HW119031   3.036   3.360   0.368
 6344WAT    HW219032   2.930   3.292   0.452
 6345WAT     OW19033   5.007   6.005   0.586
 6345WAT    HW119034   4.998   6.022   0.680
 6345WAT    HW219035   5.095   6.035   0.564
 6346WAT     OW19036   2.821   5.323   4.320
 6346WAT    HW119037   2.881   5.295   4.250
 6346WAT    HW219038   2.767   5.391   4.279
 6347WAT     OW19039   3.730   4.220   2.394
 6347WAT    HW119040   3.775   4.162   2.455
 6347WAT    HW219041   3.800   4.276   2.359
 6348WAT     OW19042   5.667   1.163   6.673
 6348WAT    HW119043   5.584   1.194   6.709
 6348WAT    HW219044   5.648   1.073   6.645
 6349WAT     OW19045   0.334   4.316   2.676
 6349WAT    HW119046   0.317   4.273   2.593
 6349WAT    HW219047   0.277   4.393   2.676
 6350WAT     OW19048   5.491   1.247   5.245
 6350WAT    HW119049   5.432   1.172   5.248
 6350WAT    HW219050   5.506   1.262   5.151
 6351WAT     OW19051   6.623   1.329   3.123
 6351WAT    HW119052   6.569   1.325   3.202
 6351WAT    HW219053   6.649   1.421   3.116
 6352WAT     OW19054   2.343   4.367   1.613
 6352WAT    HW119055   2.329   4.301   1.545
 6352WAT    HW219056   2.288   4.339   1.686
 6353WAT     OW19057   1.410   5.890   2.475
 6353WAT    HW119058   1.428   5.967   2.528
 6353WAT    HW219059   1.444   5.911   2.389
 6354WAT     OW19060   3.546   5.963   6.501
 6354WAT    HW119061   3.603   5.915   6.441
 6354WAT    HW219062   3.496   5.896   6.546
 6355WAT     OW19063   5.506   3.856   0.585
 6355WAT    HW119064   5.419   3.870   0.549
 6355WAT    HW219065   5.491   3.823   0.674
 6356WAT     OW19066   0.798   3.365   3.113
 6356WAT    HW119067   0.851   3.339   3.188
 6356WAT    HW219068   0.713   3.322   3.128
 6357WAT     OW19069   3.016   4.214   1.628
 6357WAT    HW119070   3.087   4.237   1.568
 6357WAT    HW219071   3.038   4.259   1.710
 6358WAT     OW19072   4.332   2.226   5.142
 6358WAT    HW119073   4.256   2.285   5.144
 6358WAT    HW219074   4.400   2.277   5.099
 6359WAT     OW19075   0.309   1.775   2.141
 6359WAT    HW119076   0.400   1.751   2.123
 6359WAT    HW219077   0.269   1.694   2.175
 6360WAT     OW19078   1.669   0.554   1.033
 6360WAT    HW119079   1.690   0.594   1.118
 6360WAT    HW219080   1.634   0.626   0.981
 6361WAT     OW19081   3.034   0.782   1.964
 6361WAT    HW119082   3.031   0.769   2.059
 6361WAT    HW219083   2.993   0.867   1.950
 6362WAT     OW19084   1.967   5.985   5.847
 6362WAT    HW119085   1.908   6.002   5.921
 6362WAT    HW219086   2.045   6.036   5.867
 6363WAT     OW19087   5.546   5.344   3.945
 6363WAT    HW119088   5.517   5.292   4.019
 6363WAT    HW219089   5.642   5.336   3.946
 6364WAT     OW19090   6.367   6.353   0.630
 6364WAT    HW119091   6.365   6.337   0.724
 6364WAT    HW219092   6.294   6.413   0.615
 6365WAT     OW19093   2.727   2.479   1.014
 6365WAT    HW119094   2.703   2.447   0.927
 6365WAT    HW219095   2.762   2.402   1.059
 6366WAT     OW19096   5.120   5.368   6.207
 6366WAT    HW119097   5.058   5.296   6.219
 6366WAT    HW219098   5.115   5.418   6.288
 6367WAT     OW19099   1.825   3.435   5.535
 6367WAT    HW119100   1.765   3.480   5.475
 6367WAT    HW219101   1.769   3.377   5.586
 6368WAT     OW19102   3.136   4.691   6.457
 6368WAT    HW119103   3.128   4.612   6.510
 6368WAT    HW219104   3.158   4.659   6.370
 6369WAT     OW19105   4.546   1.651   6.033
 6369WAT    HW119106   4.518   1.661   6.125
 6369WAT    HW219107   4.633   1.691   6.030
 6370WAT     OW19108   6.124   6.107   1.906
 6370WAT    HW119109   6.114   6.024   1.859
 6370WAT    HW219110   6.191   6.090   1.971
 6371WAT     OW19111   1.525   5.277   0.182
 6371WAT    HW119112   1.563   5.245   0.264
 6371WAT    HW219113   1.555   5.216   0.115
 6372WAT     OW19114   3.178   1.579   0.186
 6372WAT    HW119115   3.225   1.495   0.181
 6372WAT    HW219116   3.247   1.645   0.191
 6373WAT     OW19117   1.108   6.344   1.540
 6373WAT    HW119118   1.156   6.392   1.608
 6373WAT    HW219119   1.144   6.377   1.458
 6374WAT     OW19120   1.616   4.697   3.892
 6374WAT    HW119121   1.627   4.608   3.858
 6374WAT    HW219122   1.676   4.703   3.965
 6375WAT     OW19123   1.213   0.943   0.044
 6375WAT    HW119124   1.138   0.993   0.011
 6375WAT    HW219125   1.211   0.861  -0.006
 6376WAT     OW19126   3.520   2.017   3.313
 6376WAT    HW119127   3.434   2.058   3.305
 6376WAT    HW219128   3.501   1.923   3.316
 6377WAT     OW19129   3.741   2.155   2.659
 6377WAT    HW119130   3.767   2.153   2.567
 6377WAT    HW219131   3.788   2.231   2.695
 6378WAT     OW19132   5.538   2.577   2.110
 6378WAT    HW119133   5.482   2.517   2.060
 6378WAT    HW219134   5.479   2.616   2.175
 6379WAT     OW19135   0.165   2.504   5.915
 6379WAT    HW119136   0.084   2.552   5.927
 6379WAT    HW219137   0.152   2.421   5.960
 6380WAT     OW19138   2.150   4.363   6.342
 6380WAT    HW119139   2.101   4.412   6.408
 6380WAT    HW219140   2.215   4.425   6.310
 6381WAT     OW19141   3.839   1.798   0.442
 6381WAT    HW119142   3.880   1.719   0.476
 6381WAT    HW219143   3.764   1.812   0.500
 6382WAT     OW19144   0.387   3.344   4.705
 6382WAT    HW119145   0.372   3.326   4.798
 6382WAT    HW219146   0.326   3.414   4.684
 6383WAT     OW19147   2.492   2.516   5.971
 6383WAT    HW119148   2.541   2.516   5.889
 6383WAT    HW219149   2.510   2.429   6.009
 6384WAT     OW19150   0.371   0.029   3.879
 6384WAT    HW119151   0.304  -0.018   3.929
 6384WAT    HW219152   0.328   0.111   3.855
 6385WAT     OW19153   2.415   5.991   4.830
 6385WAT    HW119154   2.389   5.945   4.909
 6385WAT    HW219155   2.372   5.943   4.759
 6386WAT     OW19156   4.282   6.309   5.331
 6386WAT    HW119157   4.342   6.267   5.392
 6386WAT    HW219158   4.326   6.390   5.306
 6387WAT     OW19159   2.878   0.887   2.767
 6387WAT    HW119160   2.807   0.888   2.703
 6387WAT    HW219161   2.883   0.977   2.799
 6388WAT     OW19162   4.964   0.306   0.351
 6388WAT    HW119163   4.880   0.341   0.381
 6388WAT    HW219164   4.987   0.360   0.274
 6389WAT     OW19165   2.425   1.389   0.087
 6389WAT    HW119166   2.501   1.393   0.146
 6389WAT    HW219167   2.371   1.318   0.122
 6390WAT     OW19168   5.639   3.922   6.135
 6390WAT    HW119169   5.593   3.857   6.189
 6390WAT    HW219170   5.595   4.005   6.156
 6391WAT     OW19171   6.565   4.613   4.817
 6391WAT    HW119172   6.642   4.557   4.829
 6391WAT    HW219173   6.568   4.637   4.725
 6392WAT     OW19174   0.415   3.550   1.612
 6392WAT    HW119175   0.424   3.586   1.524
 6392WAT    HW219176   0.482   3.596   1.663
 6393WAT     OW19177   6.379   5.256   5.124
 6393WAT    HW119178   6.353   5.323   5.060
 6393WAT    HW219179   6.421   5.188   5.072
 6394WAT     OW19180   0.137   2.550   4.952
 6394WAT    HW119181   0.168   2.549   4.861
 6394WAT    HW219182   0.120   2.459   4.973
 6395WAT     OW19183   0.676   5.160   2.252
 6395WAT    HW119184   0.705   5.205   2.332
 6395WAT    HW219185   0.748   5.102   2.229
 6396WAT     OW19186   4.826   3.788   4.485
 6396WAT    HW119187   4.828   3.699   4.450
 6396WAT    HW219188   4.845   3.844   4.409
 6397WAT     OW19189   2.413   2.315   4.963
 6397WAT    HW119190   2.355   2.361   4.903
 6397WAT    HW219191   2.499   2.322   4.923
 6398WAT     OW19192   4.390   3.606   1.666
 6398WAT    HW119193   4.311   3.552   1.659
 6398WAT    HW219194   4.417   3.621   1.575
 6399WAT     OW19195   5.920   4.876   4.736
 6399WAT    HW119196   6.008   4.857   4.706
 6399WAT    HW219197   5.922   4.967   4.764
 6400WAT     OW19198   3.964   4.113   5.405
 6400WAT    HW119199   3.946   4.166   5.328
 6400WAT    HW219200   3.926   4.027   5.384
 6401WAT     OW19201   6.599   5.831   1.334
 6401WAT    HW119202   6.548   5.880   1.270
 6401WAT    HW219203   6.537   5.767   1.371
 6402WAT     OW19204   5.646   2.437   0.046
 6402WAT    HW119205   5.658   2.374  -0.025
 6402WAT    HW219206   5.555   2.428   0.072
 6403WAT     OW19207   5.473   0.066   5.859
 6403WAT    HW119208   5.429   0.072   5.774
 6403WAT    HW219209   5.403   0.077   5.923
 6404WAT     OW19210   2.492   3.937   6.096
 6404WAT    HW119211   2.526   4.014   6.141
 6404WAT    HW219212   2.536   3.863   6.137
 6405WAT     OW19213   5.529   0.326   1.793
 6405WAT    HW119214   5.451   0.298   1.841
 6405WAT    HW219215   5.599   0.271   1.828
 6406WAT     OW19216   5.237   5.734   6.533
 6406WAT    HW119217   5.236   5.750   6.627
 6406WAT    HW219218   5.144   5.724   6.510
 6407WAT     OW19219   5.607   1.901   3.510
 6407WAT    HW119220   5.540   1.906   3.577
 6407WAT    HW219221   5.609   1.988   3.471
 6408WAT     OW19222   2.344   4.787   5.187
 6408WAT    HW119223   2.404   4.817   5.256
 6408WAT    HW219224   2.401   4.745   5.123
 6409WAT     OW19225   0.242   5.310   3.503
 6409WAT    HW119226   0.210   5.370   3.570
 6409WAT    HW219227   0.313   5.358   3.459
 6410WAT     OW19228   5.282   4.135   0.102
 6410WAT    HW119229   5.362   4.091   0.074
 6410WAT    HW219230   5.239   4.073   0.160
 6411WAT     OW19231   6.324   5.512   0.252
 6411WAT    HW119232   6.354   5.456   0.180
 6411WAT    HW219233   6.311   5.598   0.210
 6412WAT     OW19234   1.207   4.203   5.080
 6412WAT    HW119235   1.186   4.158   4.999
 6412WAT    HW219236   1.294   4.170   5.105
 6413WAT     OW19237   6.267   1.872   2.338
 6413WAT    HW119238   6.184   1.911   2.308
 6413WAT    HW219239   6.319   1.861   2.258
 6414WAT     OW19240   5.011   1.482   2.284
 6414WAT    HW119241   5.009   1.577   2.288
 6414WAT    HW219242   5.023   1.462   2.191
 6415WAT     OW19243   4.623   1.546   5.513
 6415WAT    HW119244   4.648   1.456   5.537
 6415WAT    HW219245   4.651   1.599   5.588
 6416WAT     OW19246   2.430   4.119   6.490
 6416WAT    HW119247   2.336   4.102   6.500
 6416WAT    HW219248   2.466   4.036   6.460
 6417WAT     OW19249   4.545   1.286   2.685
 6417WAT    HW119250   4.525   1.224   2.754
 6417WAT    HW219251   4.623   1.332   2.715
 6418WAT     OW19252   5.474   2.356   4.588
 6418WAT    HW119253   5.477   2.282   4.526
 6418WAT    HW219254   5.557   2.401   4.575
 6419WAT     OW19255   1.070   1.096   3.653
 6419WAT    HW119256   1.049   1.018   3.602
 6419WAT    HW219257   1.139   1.140   3.603
 6420WAT     OW19258   3.659   3.055   1.799
 6420WAT    HW119259   3.729   3.119   1.784
 6420WAT    HW219260   3.583   3.091   1.753
 6421WAT     OW19261   6.089   0.447   4.385
 6421WAT    HW119262   6.160   0.449   4.449
 6421WAT    HW219263   6.108   0.371   4.330
 6422WAT     OW19264   4.853   6.255   0.946
 6422WAT    HW119265   4.925   6.198   0.923
 6422WAT    HW219266   4.776   6.198   0.946
 6423WAT     OW19267   5.342   0.897   6.534
 6423WAT    HW119268   5.303   0.961   6.473
 6423WAT    HW219269   5.320   0.812   6.496
 6424WAT     OW19270   4.718   2.155   5.487
 6424WAT    HW119271   4.746   2.087   5.549
 6424WAT    HW219272   4.623   2.146   5.483
 6425WAT     OW19273   3.363   4.840   2.994
 6425WAT    HW119274   3.346   4.806   3.082
 6425WAT    HW219275   3.276   4.854   2.956
 6426WAT     OW19276   1.084   4.681   4.696
 6426WAT    HW119277   1.160   4.731   4.725
 6426WAT    HW219278   1.020   4.693   4.766
 6427WAT     OW19279   1.055   3.046   4.287
 6427WAT    HW119280   1.072   3.090   4.370
 6427WAT    HW219281   1.140   3.040   4.245
 6428WAT     OW19282   6.029   4.762   0.893
 6428WAT    HW119283   5.950   4.743   0.943
 6428WAT    HW219284   6.099   4.770   0.958
 6429WAT     OW19285   6.173   5.078   4.606
 6429WAT    HW119286   6.251   5.122   4.639
 6429WAT    HW219287   6.180   4.988   4.638
 6430WAT     OW19288   5.087   2.810   4.042
 6430WAT    HW119289   5.011   2.862   4.016
 6430WAT    HW219290   5.086   2.810   4.137
 6431WAT     OW19291   2.242   6.318   0.568
 6431WAT    HW119292   2.285   6.403   0.560
 6431WAT    HW219293   2.148   6.338   0.558
 6432WAT     OW19294   2.002   3.594   0.892
 6432WAT    HW119295   1.941   3.667   0.880
 6432WAT    HW219296   2.057   3.596   0.813
 6433WAT     OW19297   0.565   1.729   2.066
 6433WAT    HW119298   0.619   1.803   2.038
 6433WAT    HW219299   0.629   1.660   2.087
 6434WAT     OW19300   0.235   4.593   1.164
 6434WAT    HW119301   0.166   4.537   1.199
 6434WAT    HW219302   0.223   4.588   1.069
 6435WAT     OW19303   2.246   1.483   0.482
 6435WAT    HW119304   2.185   1.518   0.416
 6435WAT    HW219305   2.286   1.407   0.439
 6436WAT     OW19306   4.119   4.449   2.775
 6436WAT    HW119307   4.083   4.537   2.786
 6436WAT    HW219308   4.173   4.456   2.696
 6437WAT     OW19309   4.527   3.921   4.798
 6437WAT    HW119310   4.579   3.948   4.722
 6437WAT    HW219311   4.591   3.902   4.866
 6438WAT     OW19312   4.166   1.368   6.606
 6438WAT    HW119313   4.150   1.423   6.529
 6438WAT    HW219314   4.142   1.280   6.579
 6439WAT     OW19315   0.726   2.741   1.512
 6439WAT    HW119316   0.785   2.679   1.553
 6439WAT    HW219317   0.774   2.824   1.511
 6440WAT     OW19318   4.132   6.288   4.978
 6440WAT    HW119319   4.059   6.321   5.030
 6440WAT    HW219320   4.171   6.365   4.938
 6441WAT     OW19321   4.647   4.806   5.098
 6441WAT    HW119322   4.651   4.900   5.082
 6441WAT    HW219323   4.557   4.782   5.078
 6442WAT     OW19324   4.266   4.941   6.573
 6442WAT    HW119325   4.325   5.017   6.572
 6442WAT    HW219326   4.279   4.900   6.488
 6443WAT     OW19327   3.267   3.533   1.349
 6443WAT    HW119328   3.298   3.622   1.369
 6443WAT    HW219329   3.184   3.547   1.303
 6444WAT     OW19330   1.091   3.569   5.371
 6444WAT    HW119331   1.040   3.644   5.403
 6444WAT    HW219332   1.145   3.605   5.301
 6445WAT     OW19333   1.045   0.310   2.550
 6445WAT    HW119334   1.056   0.355   2.466
 6445WAT    HW219335   1.116   0.246   2.552
 6446WAT     OW19336   0.331   6.420   6.421
 6446WAT    HW119337   0.366   6.507   6.400
 6446WAT    HW219338   0.316   6.379   6.336
 6447WAT     OW19339   3.445   4.559   1.934
 6447WAT    HW119340   3.478   4.638   1.976
 6447WAT    HW219341   3.395   4.590   1.859
 6448WAT     OW19342   5.242   4.403   0.511
 6448WAT    HW119343   5.326   4.359   0.516
 6448WAT    HW219344   5.257   4.478   0.453
 6449WAT     OW19345   3.254   2.141   4.817
 6449WAT    HW119346   3.280   2.119   4.728
 6449WAT    HW219347   3.164   2.110   4.825
 6450WAT     OW19348   4.983   0.193   1.299
 6450WAT    HW119349   4.951   0.104   1.282
 6450WAT    HW219350   4.944   0.246   1.229
 6451WAT     OW19351   4.016   0.753   0.759
 6451WAT    HW119352   4.082   0.732   0.693
 6451WAT    HW219353   4.060   0.737   0.842
 6452WAT     OW19354   1.650   2.171   0.248
 6452WAT    HW119355   1.745   2.164   0.239
 6452WAT    HW219356   1.627   2.102   0.310
 6453WAT     OW19357   4.980   0.199   0.755
 6453WAT    HW119358   4.959   0.280   0.803
 6453WAT    HW219359   4.895   0.160   0.735
 6454WAT     OW19360   4.807   4.391   5.561
 6454WAT    HW119361   4.770   4.406   5.474
 6454WAT    HW219362   4.793   4.473   5.608
 6455WAT     OW19363   0.612   4.519   2.622
 6455WAT    HW119364   0.536   4.537   2.678
 6455WAT    HW219365   0.594   4.567   2.541
 6456WAT     OW19366   4.815   4.869   0.225
 6456WAT    HW119367   4.830   4.793   0.280
 6456WAT    HW219368   4.899   4.914   0.221
 6457WAT     OW19369   4.274   4.360   3.696
 6457WAT    HW119370   4.264   4.292   3.763
 6457WAT    HW219371   4.367   4.382   3.697
 6458WAT     OW19372   6.274   6.140   0.349
 6458WAT    HW119373   6.254   6.111   0.438
 6458WAT    HW219374   6.195   6.121   0.299
 6459WAT     OW19375   1.186   4.243   3.744
 6459WAT    HW119376   1.246   4.234   3.670
 6459WAT    HW219377   1.199   4.163   3.795
 6460WAT     OW19378   0.120   5.128   0.067
 6460WAT    HW119379   0.047   5.185   0.090
 6460WAT    HW219380   0.136   5.078   0.147
 6461WAT     OW19381   0.648   3.243   4.749
 6461WAT    HW119382   0.650   3.159   4.796
 6461WAT    HW219383   0.557   3.253   4.723
 6462WAT     OW19384   5.708   1.065   2.240
 6462WAT    HW119385   5.636   1.003   2.232
 6462WAT    HW219386   5.690   1.114   2.319
 6463WAT     OW19387   2.955   1.490   1.438
 6463WAT    HW119388   2.889   1.552   1.407
 6463WAT    HW219389   2.933   1.476   1.530
 6464WAT     OW19390   3.677   3.634   3.395
 6464WAT    HW119391   3.734   3.670   3.462
 6464WAT    HW219392   3.638   3.556   3.435
 6465WAT     OW19393   4.147   5.677   3.253
 6465WAT    HW119394   4.227   5.673   3.199
 6465WAT    HW219395   4.091   5.741   3.209
 6466WAT     OW19396   6.706   1.959   4.696
 6466WAT    HW119397   6.746   1.938   4.612
 6466WAT    HW219398   6.762   2.028   4.732
 6467WAT     OW19399   3.435   6.711   2.202
 6467WAT    HW119400   3.457   6.802   2.182
 6467WAT    HW219401   3.457   6.701   2.295
 6468WAT     OW19402   2.481   5.458   5.234
 6468WAT    HW119403   2.491   5.525   5.301
 6468WAT    HW219404   2.450   5.505   5.157
 6469WAT     OW19405   1.850   1.316   2.810
 6469WAT    HW119406   1.862   1.253   2.881
 6469WAT    HW219407   1.904   1.391   2.835
 6470WAT     OW19408   0.974   4.761   4.072
 6470WAT    HW119409   0.946   4.837   4.021
 6470WAT    HW219410   1.051   4.791   4.120
 6471WAT     OW19411   2.142   2.730   4.503
 6471WAT    HW119412   2.090   2.774   4.571
 6471WAT    HW219413   2.077   2.703   4.438
 6472WAT     OW19414   1.364   6.450   5.368
 6472WAT    HW119415   1.358   6.356   5.358
 6472WAT    HW219416   1.413   6.462   5.450
 6473WAT     OW19417   6.464   5.434   6.022
 6473WAT    HW119418   6.486   5.394   5.938
 6473WAT    HW219419   6.384   5.388   6.050
 6474WAT     OW19420   0.707   4.076   3.910
 6474WAT    HW119421   0.618   4.108   3.926
 6474WAT    HW219422   0.726   4.100   3.820
 6475WAT     OW19423   5.507   0.888   2.200
 6475WAT    HW119424   5.548   0.834   2.133
 6475WAT    HW219425   5.428   0.923   2.157
 6476WAT     OW19426   1.624   5.054   4.697
 6476WAT    HW119427   1.647   5.147   4.707
 6476WAT    HW219428   1.640   5.016   4.783
 6477WAT     OW19429   2.437   3.973   3.017
 6477WAT    HW119430   2.386   3.892   3.015
 6477WAT    HW219431   2.392   4.032   2.957
 6478WAT     OW19432   1.682   5.909   1.796
 6478WAT    HW119433   1.687   5.987   1.851
 6478WAT    HW219434   1.637   5.844   1.849
 6479WAT     OW19435   0.532   4.856   3.999
 6479WAT    HW119436   0.596   4.893   4.061
 6479WAT    HW219437   0.461   4.824   4.055
 6480WAT     OW19438   2.382   4.536   3.299
 6480WAT    HW119439   2.329   4.459   3.281
 6480WAT    HW219440   2.354   4.601   3.234
 6481WAT     OW19441   4.993   1.679   6.280
 6481WAT    HW119442   4.934   1.754   6.280
 6481WAT    HW219443   5.036   1.682   6.194
 6482WAT     OW19444   3.450   6.168   2.595
 6482WAT    HW119445   3.492   6.084   2.575
 6482WAT    HW219446   3.482   6.191   2.682
 6483WAT     OW19447   0.014   3.738   4.366
 6483WAT    HW119448  -0.082   3.746   4.364
 6483WAT    HW219449   0.042   3.807   4.427
 6484WAT     OW19450   1.878   3.303   1.645
 6484WAT    HW119451   1.788   3.335   1.646
 6484WAT    HW219452   1.926   3.367   1.699
 6485WAT     OW19453   2.803   6.510   3.604
 6485WAT    HW119454   2.745   6.568   3.553
 6485WAT    HW219455   2.767   6.513   3.693
 6486WAT     OW19456   5.433   1.306   2.849
 6486WAT    HW119457   5.382   1.313   2.769
 6486WAT    HW219458   5.376   1.342   2.917
 6487WAT     OW19459   0.653   5.874   3.649
 6487WAT    HW119460   0.683   5.878   3.559
 6487WAT    HW219461   0.588   5.944   3.656
 6488WAT     OW19462   5.736   5.461   5.200
 6488WAT    HW119463   5.701   5.550   5.203
 6488WAT    HW219464   5.664   5.408   5.165
 6489WAT     OW19465   3.688   6.342   0.705
 6489WAT    HW119466   3.682   6.303   0.618
 6489WAT    HW219467   3.597   6.363   0.728
 6490WAT     OW19468   3.281   4.687   1.314
 6490WAT    HW119469   3.271   4.596   1.286
 6490WAT    HW219470   3.375   4.701   1.320
 6491WAT     OW19471   5.096   0.364   3.358
 6491WAT    HW119472   5.078   0.398   3.270
 6491WAT    HW219473   5.143   0.282   3.343
 6492WAT     OW19474   2.117   5.256   1.533
 6492WAT    HW119475   2.198   5.266   1.483
 6492WAT    HW219476   2.058   5.322   1.497
 6493WAT     OW19477   2.996   3.060   2.655
 6493WAT    HW119478   2.999   2.986   2.716
 6493WAT    HW219479   2.999   3.137   2.711
 6494WAT     OW19480   6.175   3.816   2.288
 6494WAT    HW119481   6.212   3.892   2.333
 6494WAT    HW219482   6.102   3.852   2.237
 6495WAT     OW19483   4.344   0.590   4.980
 6495WAT    HW119484   4.263   0.641   4.978
 6495WAT    HW219485   4.328   0.522   5.045
 6496WAT     OW19486   1.970   6.167   4.311
 6496WAT    HW119487   2.029   6.242   4.311
 6496WAT    HW219488   1.922   6.174   4.394
 6497WAT     OW19489   4.220   0.181   5.251
 6497WAT    HW119490   4.280   0.252   5.230
 6497WAT    HW219491   4.171   0.166   5.170
 6498WAT     OW19492   4.104   4.399   0.383
 6498WAT    HW119493   4.115   4.492   0.361
 6498WAT    HW219494   4.084   4.357   0.300
 6499WAT     OW19495   4.151   6.295   3.458
 6499WAT    HW119496   4.163   6.386   3.429
 6499WAT    HW219497   4.237   6.268   3.489
 6500WAT     OW19498   0.730   2.425   6.229
 6500WAT    HW119499   0.637   2.412   6.246
 6500WAT    HW219500   0.773   2.351   6.274
 6501WAT     OW19501   6.377   5.045   2.477
 6501WAT    HW119502   6.344   4.991   2.550
 6501WAT    HW219503   6.443   4.990   2.435
 6502WAT     OW19504   6.286   2.361   4.140
 6502WAT    HW119505   6.194   2.376   4.119
 6502WAT    HW219506   6.298   2.267   4.128
 6503WAT     OW19507   2.387   5.532   3.206
 6503WAT    HW119508   2.444   5.458   3.184
 6503WAT    HW219509   2.447   5.598   3.241
 6504WAT     OW19510   3.442   0.348   1.482
 6504WAT    HW119511   3.480   0.352   1.570
 6504WAT    HW219512   3.424   0.440   1.460
 6505WAT     OW19513   0.390   1.677   3.792
 6505WAT    HW119514   0.428   1.595   3.762
 6505WAT    HW219515   0.429   1.692   3.878
 6506WAT     OW19516   4.062   4.688   3.974
 6506WAT    HW119517   4.076   4.757   3.909
 6506WAT    HW219518   4.149   4.653   3.991
 6507WAT     OW19519   1.587   4.639   1.242
 6507WAT    HW119520   1.625   4.552   1.260
 6507WAT    HW219521   1.630   4.668   1.162
 6508WAT     OW19522   5.728   1.751   5.897
 6508WAT    HW119523   5.793   1.718   5.835
 6508WAT    HW219524   5.711   1.677   5.956
 6509WAT     OW19525   5.023   2.366   3.832
 6509WAT    HW119526   4.952   2.366   3.898
 6509WAT    HW219527   5.009   2.284   3.784
 6510WAT     OW19528   6.358   4.590   0.586
 6510WAT    HW119529   6.404   4.571   0.667
 6510WAT    HW219530   6.291   4.653   0.610
 6511WAT     OW19531   5.022   4.918   5.681
 6511WAT    HW119532   4.987   4.878   5.761
 6511WAT    HW219533   5.043   5.008   5.707
 6512WAT     OW19534   6.657   0.709   0.814
 6512WAT    HW119535   6.752   0.709   0.827
 6512WAT    HW219536   6.644   0.659   0.734
 6513WAT     OW19537   3.080   5.267   2.001
 6513WAT    HW119538   3.085   5.326   1.926
 6513WAT    HW219539   3.128   5.189   1.973
 6514WAT     OW19540   1.500   0.023   5.465
 6514WAT    HW119541   1.409   0.043   5.445
 6514WAT    HW219542   1.547   0.042   5.383
 6515WAT     OW19543   4.842   2.808   6.373
 6515WAT    HW119544   4.905   2.752   6.417
 6515WAT    HW219545   4.773   2.748   6.343
 6516WAT     OW19546   0.586   2.125   5.891
 6516WAT    HW119547   0.567   2.149   5.800
 6516WAT    HW219548   0.678   2.099   5.891
 6517WAT     OW19549   4.742   2.064   5.084
 6517WAT    HW119550   4.726   2.123   5.010
 6517WAT    HW219551   4.789   2.118   5.148
 6518WAT     OW19552   5.063   4.198   0.437
 6518WAT    HW119553   4.998   4.220   0.503
 6518WAT    HW219554   5.132   4.263   0.448
 6519WAT     OW19555   4.948   5.180   1.811
 6519WAT    HW119556   5.000   5.137   1.743
 6519WAT    HW219557   4.912   5.107   1.863
 6520WAT     OW19558   3.701   3.545   3.138
 6520WAT    HW119559   3.703   3.579   3.227
 6520WAT    HW219560   3.791   3.514   3.122
 6521WAT     OW19561   2.309   1.577   4.333
 6521WAT    HW119562   2.247   1.590   4.405
 6521WAT    HW219563   2.374   1.517   4.368
 6522WAT     OW19564   3.939   2.454   3.817
 6522WAT    HW119565   3.985   2.386   3.867
 6522WAT    HW219566   3.849   2.422   3.810
 6523WAT     OW19567   0.168   5.866   0.397
 6523WAT    HW119568   0.117   5.912   0.330
 6523WAT    HW219569   0.168   5.925   0.472
 6524WAT     OW19570   0.470   0.084   4.909
 6524WAT    HW119571   0.545   0.142   4.904
 6524WAT    HW219572   0.421   0.101   4.829
 6525WAT     OW19573   3.077   2.892   1.639
 6525WAT    HW119574   3.034   2.807   1.645
 6525WAT    HW219575   3.054   2.924   1.552
 6526WAT     OW19576   2.463   2.617   0.217
 6526WAT    HW119577   2.495   2.614   0.308
 6526WAT    HW219578   2.496   2.536   0.178
 6527WAT     OW19579   1.791   1.495   6.645
 6527WAT    HW119580   1.700   1.493   6.673
 6527WAT    HW219581   1.800   1.578   6.599
 6528WAT     OW19582   4.781   1.138   0.805
 6528WAT    HW119583   4.733   1.217   0.777
 6528WAT    HW219584   4.756   1.072   0.741
 6529WAT     OW19585   6.359   0.063   6.521
 6529WAT    HW119586   6.379   0.022   6.605
 6529WAT    HW219587   6.291   0.008   6.483
 6530WAT     OW19588   2.383   4.180   5.295
 6530WAT    HW119589   2.443   4.112   5.327
 6530WAT    HW219590   2.412   4.197   5.205
 6531WAT     OW19591   2.134   6.255   2.177
 6531WAT    HW119592   2.223   6.282   2.199
 6531WAT    HW219593   2.078   6.303   2.238
 6532WAT     OW19594   0.790   3.866   4.295
 6532WAT    HW119595   0.847   3.851   4.371
 6532WAT    HW219596   0.736   3.941   4.321
 6533WAT     OW19597   1.688   5.224   6.080
 6533WAT    HW119598   1.762   5.279   6.107
 6533WAT    HW219599   1.722   5.175   6.005
 6534WAT     OW19600   3.176   5.604   2.620
 6534WAT    HW119601   3.092   5.590   2.663
 6534WAT    HW219602   3.163   5.573   2.530
 6535WAT     OW19603   5.944   1.164   3.700
 6535WAT    HW119604   6.013   1.155   3.766
 6535WAT    HW219605   5.863   1.148   3.749
 6536WAT     OW19606   3.297   4.416   3.558
 6536WAT    HW119607   3.366   4.362   3.521
 6536WAT    HW219608   3.217   4.387   3.515
 6537WAT     OW19609   1.801   2.936   0.833
 6537WAT    HW119610   1.895   2.946   0.817
 6537WAT    HW219611   1.759   2.993   0.769
 6538WAT     OW19612   2.132   4.970   2.258
 6538WAT    HW119613   2.103   4.906   2.193
 6538WAT    HW219614   2.126   5.054   2.214
 6539WAT     OW19615   3.951   1.397   1.886
 6539WAT    HW119616   3.968   1.325   1.946
 6539WAT    HW219617   3.983   1.366   1.801
 6540WAT     OW19618   4.761   2.629   5.676
 6540WAT    HW119619   4.701   2.702   5.681
 6540WAT    HW219620   4.779   2.606   5.768
 6541WAT     OW19621   0.768   6.082   4.386
 6541WAT    HW119622   0.740   6.039   4.466
 6541WAT    HW219623   0.740   6.024   4.315
 6542WAT     OW19624   6.499   1.624   2.814
 6542WAT    HW119625   6.563   1.676   2.862
 6542WAT    HW219626   6.539   1.611   2.728
 6543WAT     OW19627   1.140   2.223   3.680
 6543WAT    HW119628   1.210   2.157   3.673
 6543WAT    HW219629   1.119   2.246   3.589
 6544WAT     OW19630   3.201   6.349   1.271
 6544WAT    HW119631   3.158   6.432   1.251
 6544WAT    HW219632   3.291   6.372   1.291
 6545WAT     OW19633   0.196   0.420   3.627
 6545WAT    HW119634   0.266   0.374   3.582
 6545WAT    HW219635   0.120   0.413   3.568
 6546WAT     OW19636   5.214   3.319   4.650
 6546WAT    HW119637   5.219   3.411   4.675
 6546WAT    HW219638   5.225   3.271   4.732
 6547WAT     OW19639   2.945   6.368   5.570
 6547WAT    HW119640   2.874   6.305   5.557
 6547WAT    HW219641   2.998   6.361   5.491
 6548WAT     OW19642   5.744   6.104   5.573
 6548WAT    HW119643   5.687   6.172   5.610
 6548WAT    HW219644   5.827   6.149   5.557
 6549WAT     OW19645   1.797   1.108   2.638
 6549WAT    HW119646   1.809   1.039   2.703
 6549WAT    HW219647   1.812   1.189   2.686
 6550WAT     OW19648   0.630   3.661   1.757
 6550WAT    HW119649   0.582   3.743   1.765
 6550WAT    HW219650   0.722   3.684   1.769
 6551WAT     OW19651   0.411   1.028   4.719
 6551WAT    HW119652   0.317   1.032   4.738
 6551WAT    HW219653   0.421   0.950   4.664
 6552WAT     OW19654   3.134   4.343   5.990
 6552WAT    HW119655   3.187   4.290   6.050
 6552WAT    HW219656   3.192   4.413   5.961
 6553WAT     OW19657   1.649   2.216   4.627
 6553WAT    HW119658   1.672   2.132   4.588
 6553WAT    HW219659   1.562   2.235   4.594
 6554WAT     OW19660   4.521   0.696   6.680
 6554WAT    HW119661   4.493   0.771   6.627
 6554WAT    HW219662   4.592   0.657   6.629
 6555WAT     OW19663   4.512   6.445   5.650
 6555WAT    HW119664   4.510   6.406   5.738
 6555WAT    HW219665   4.477   6.377   5.593
 6556WAT     OW19666   5.226   1.346   4.163
 6556WAT    HW119667   5.300   1.404   4.144
 6556WAT    HW219668   5.266   1.271   4.207
 6557WAT     OW19669   0.911   1.775   4.263
 6557WAT    HW119670   0.887   1.704   4.323
 6557WAT    HW219671   0.908   1.854   4.317
 6558WAT     OW19672   3.289   4.588   4.298
 6558WAT    HW119673   3.242   4.540   4.366
 6558WAT    HW219674   3.377   4.601   4.334
 6559WAT     OW19675   0.187   1.585   5.538
 6559WAT    HW119676   0.223   1.552   5.456
 6559WAT    HW219677   0.238   1.543   5.607
 6560WAT     OW19678   6.612   5.813   0.984
 6560WAT    HW119679   6.625   5.856   0.900
 6560WAT    HW219680   6.698   5.814   1.025
 6561WAT     OW19681   1.690   4.516   4.576
 6561WAT    HW119682   1.639   4.442   4.544
 6561WAT    HW219683   1.738   4.548   4.499
 6562WAT     OW19684   6.716   2.577   3.419
 6562WAT    HW119685   6.688   2.586   3.328
 6562WAT    HW219686   6.761   2.493   3.422
 6563WAT     OW19687   4.094   4.969   2.707
 6563WAT    HW119688   4.012   5.000   2.668
 6563WAT    HW219689   4.095   5.008   2.795
 6564WAT     OW19690   0.092   2.266   6.033
 6564WAT    HW119691  -0.002   2.252   6.019
 6564WAT    HW219692   0.134   2.218   5.962
 6565WAT     OW19693   1.194   2.989   4.955
 6565WAT    HW119694   1.147   3.071   4.941
 6565WAT    HW219695   1.174   2.936   4.878
 6566WAT     OW19696   5.121   5.366   5.940
 6566WAT    HW119697   5.168   5.442   5.906
 6566WAT    HW219698   5.135   5.370   6.035
 6567WAT     OW19699   5.913   0.947   0.943
 6567WAT    HW119700   5.829   0.915   0.910
 6567WAT    HW219701   5.944   0.878   1.001
 6568WAT     OW19702   6.654   3.343   4.495
 6568WAT    HW119703   6.708   3.376   4.424
 6568WAT    HW219704   6.612   3.421   4.532
 6569WAT     OW19705   4.201   6.072   2.483
 6569WAT    HW119706   4.181   5.979   2.496
 6569WAT    HW219707   4.268   6.073   2.415
 6570WAT     OW19708   5.113   2.091   0.582
 6570WAT    HW119709   5.138   2.183   0.571
 6570WAT    HW219710   5.193   2.042   0.562
 6571WAT     OW19711   5.363   1.379   0.478
 6571WAT    HW119712   5.385   1.460   0.524
 6571WAT    HW219713   5.443   1.354   0.433
 6572WAT     OW19714   5.392   5.667   1.142
 6572WAT    HW119715   5.461   5.602   1.126
 6572WAT    HW219716   5.368   5.654   1.234
 6573WAT     OW19717   5.219   1.744   5.771
 6573WAT    HW119718   5.300   1.784   5.803
 6573WAT    HW219719   5.242   1.706   5.686
 6574WAT     OW19720   6.160   5.906   2.729
 6574WAT    HW119721   6.128   5.960   2.657
 6574WAT    HW219722   6.094   5.916   2.797
 6575WAT     OW19723   4.967   0.668   0.202
 6575WAT    HW119724   4.994   0.580   0.173
 6575WAT    HW219725   5.003   0.675   0.291
 6576WAT     OW19726   5.757   6.580   2.645
 6576WAT    HW119727   5.691   6.511   2.635
 6576WAT    HW219728   5.746   6.635   2.568
 6577WAT     OW19729   2.126   3.083   4.314
 6577WAT    HW119730   2.056   3.044   4.263
 6577WAT    HW219731   2.089   3.093   4.402
 6578WAT     OW19732   5.258   3.616   1.107
 6578WAT    HW119733   5.261   3.643   1.199
 6578WAT    HW219734   5.315   3.539   1.103
 6579WAT     OW19735   3.271   4.415   0.188
 6579WAT    HW119736   3.282   4.491   0.130
 6579WAT    HW219737   3.183   4.383   0.169
 6580WAT     OW19738   2.774   5.326   5.455
 6580WAT    HW119739   2.698   5.268   5.457
 6580WAT    HW219740   2.823   5.305   5.534
 6581WAT     OW19741   1.504   1.740   0.034
 6581WAT    HW119742   1.442   1.768  -0.033
 6581WAT    HW219743   1.482   1.794   0.110
 6582WAT     OW19744   2.102   1.897   2.999
 6582WAT    HW119745   2.088   1.913   2.906
 6582WAT    HW219746   2.014   1.893   3.036
 6583WAT     OW19747   5.504   1.324   3.489
 6583WAT    HW119748   5.493   1.363   3.402
 6583WAT    HW219749   5.518   1.399   3.546
 6584WAT     OW19750   6.430   4.974   0.422
 6584WAT    HW119751   6.374   5.038   0.378
 6584WAT    HW219752   6.472   5.024   0.492
 6585WAT     OW19753   3.370   1.174   2.788
 6585WAT    HW119754   3.293   1.128   2.820
 6585WAT    HW219755   3.379   1.250   2.845
 6586WAT     OW19756   2.591   4.045   1.364
 6586WAT    HW119757   2.639   3.962   1.368
 6586WAT    HW219758   2.624   4.088   1.285
 6587WAT     OW19759   0.311   0.715   4.216
 6587WAT    HW119760   0.293   0.652   4.146
 6587WAT    HW219761   0.376   0.774   4.179
 6588WAT     OW19762   0.946   2.893   0.843
 6588WAT    HW119763   1.032   2.901   0.803
 6588WAT    HW219764   0.932   2.798   0.853
 6589WAT     OW19765   4.589   1.600   4.291
 6589WAT    HW119766   4.541   1.671   4.247
 6589WAT    HW219767   4.662   1.580   4.233
 6590WAT     OW19768   3.563   2.332   6.213
 6590WAT    HW119769   3.490   2.275   6.238
 6590WAT    HW219770   3.611   2.346   6.295
 6591WAT     OW19771   6.601   2.773   0.175
 6591WAT    HW119772   6.518   2.806   0.211
 6591WAT    HW219773   6.656   2.851   0.167
 6592WAT     OW19774   5.148   3.682   0.110
 6592WAT    HW119775   5.148   3.617   0.040
 6592WAT    HW219776   5.119   3.634   0.188
 6593WAT     OW19777   6.460   6.508   4.253
 6593WAT    HW119778   6.445   6.485   4.162
 6593WAT    HW219779   6.381   6.477   4.299
 6594WAT     OW19780   1.625   4.007   1.794
 6594WAT    HW119781   1.697   4.041   1.848
 6594WAT    HW219782   1.619   3.914   1.818
 6595WAT     OW19783   5.262   0.883   2.725
 6595WAT    HW119784   5.170   0.856   2.716
 6595WAT    HW219785   5.267   0.966   2.677
 6596WAT     OW19786   4.682   2.716   0.553
 6596WAT    HW119787   4.606   2.673   0.514
 6596WAT    HW219788   4.675   2.807   0.524
 6597WAT     OW19789   1.442   1.050   5.050
 6597WAT    HW119790   1.460   1.116   4.983
 6597WAT    HW219791   1.506   0.981   5.033
 6598WAT     OW19792   3.377   5.198   0.418
 6598WAT    HW119793   3.300   5.172   0.468
 6598WAT    HW219794   3.427   5.253   0.477
 6599WAT     OW19795   4.469   5.214   3.358
 6599WAT    HW119796   4.474   5.181   3.268
 6599WAT    HW219797   4.376   5.228   3.374
 6600WAT     OW19798   6.444   0.478   4.350
 6600WAT    HW119799   6.448   0.483   4.254
 6600WAT    HW219800   6.534   0.498   4.378
 6601WAT     OW19801   3.737   3.491   2.657
 6601WAT    HW119802   3.652   3.489   2.615
 6601WAT    HW219803   3.724   3.546   2.734
 6602WAT     OW19804   5.025   4.344   6.179
 6602WAT    HW119805   5.011   4.249   6.182
 6602WAT    HW219806   4.986   4.371   6.095
 6603WAT     OW19807   0.931   0.977   3.880
 6603WAT    HW119808   0.963   1.030   3.807
 6603WAT    HW219809   0.836   0.994   3.882
 6604WAT     OW19810   5.209   5.856   2.155
 6604WAT    HW119811   5.125   5.830   2.117
 6604WAT    HW219812   5.232   5.937   2.110
 6605WAT     OW19813   0.704   4.317   2.456
 6605WAT    HW119814   0.677   4.371   2.530
 6605WAT    HW219815   0.638   4.334   2.389
 6606WAT     OW19816   1.569   6.683   0.076
 6606WAT    HW119817   1.509   6.687   0.150
 6606WAT    HW219818   1.546   6.602   0.031
 6607WAT     OW19819   5.352   3.970   6.464
 6607WAT    HW119820   5.439   3.997   6.435
 6607WAT    HW219821   5.309   4.052   6.487
 6608WAT     OW19822   2.250   3.484   4.685
 6608WAT    HW119823   2.251   3.497   4.780
 6608WAT    HW219824   2.323   3.536   4.653
 6609WAT     OW19825   2.044   4.402   5.694
 6609WAT    HW119826   1.959   4.413   5.738
 6609WAT    HW219827   2.021   4.382   5.603
 6610WAT     OW19828   0.223   0.932   0.263
 6610WAT    HW119829   0.133   0.909   0.242
 6610WAT    HW219830   0.259   0.854   0.305
 6611WAT     OW19831   5.108   6.428   0.176
 6611WAT    HW119832   5.086   6.359   0.115
 6611WAT    HW219833   5.088   6.392   0.262
 6612WAT     OW19834   2.913   4.143   6.284
 6612WAT    HW119835   2.988   4.197   6.310
 6612WAT    HW219836   2.836   4.194   6.313
 6613WAT     OW19837   4.527   4.976   2.270
 6613WAT    HW119838   4.546   4.943   2.357
 6613WAT    HW219839   4.599   5.036   2.251
 6614WAT     OW19840   3.419   5.720   2.674
 6614WAT    HW119841   3.335   5.682   2.650
 6614WAT    HW219842   3.409   5.743   2.767
 6615WAT     OW19843   2.200   4.292   1.838
 6615WAT    HW119844   2.223   4.203   1.865
 6615WAT    HW219845   2.105   4.291   1.829
 6616WAT     OW19846   4.327   3.595   0.949
 6616WAT    HW119847   4.408   3.561   0.912
 6616WAT    HW219848   4.258   3.560   0.891
 6617WAT     OW19849   6.387   2.679   2.716
 6617WAT    HW119850   6.464   2.726   2.686
 6617WAT    HW219851   6.391   2.594   2.671
 6618WAT     OW19852   6.139   2.746   4.030
 6618WAT    HW119853   6.155   2.833   3.992
 6618WAT    HW219854   6.132   2.688   3.955
 6619WAT     OW19855   1.594   6.678   2.302
 6619WAT    HW119856   1.618   6.765   2.270
 6619WAT    HW219857   1.542   6.694   2.381
 6620WAT     OW19858   1.675   6.073   1.012
 6620WAT    HW119859   1.611   6.043   1.077
 6620WAT    HW219860   1.736   6.001   1.003
 6621WAT     OW19861   6.163   1.107   3.863
 6621WAT    HW119862   6.247   1.083   3.824
 6621WAT    HW219863   6.128   1.025   3.897
 6622WAT     OW19864   1.548   3.613   2.247
 6622WAT    HW119865   1.508   3.634   2.331
 6622WAT    HW219866   1.529   3.690   2.193
 6623WAT     OW19867   5.711   3.353   3.573
 6623WAT    HW119868   5.756   3.286   3.626
 6623WAT    HW219869   5.697   3.312   3.488
 6624WAT     OW19870   6.157   6.513   0.248
 6624WAT    HW119871   6.205   6.468   0.178
 6624WAT    HW219872   6.066   6.486   0.235
 6625WAT     OW19873   0.854   2.796   2.086
 6625WAT    HW119874   0.819   2.750   2.010
 6625WAT    HW219875   0.905   2.730   2.133
 6626WAT     OW19876   1.802   1.675   2.008
 6626WAT    HW119877   1.735   1.660   1.941
 6626WAT    HW219878   1.753   1.673   2.091
 6627WAT     OW19879   6.285   0.407   2.402
 6627WAT    HW119880   6.241   0.483   2.441
 6627WAT    HW219881   6.271   0.337   2.465
 6628WAT     OW19882   1.866   4.587   5.042
 6628WAT    HW119883   1.901   4.503   5.071
 6628WAT    HW219884   1.850   4.574   4.948
 6629WAT     OW19885   3.299   2.672   5.003
 6629WAT    HW119886   3.320   2.583   4.975
 6629WAT    HW219887   3.383   2.710   5.027
 6630WAT     OW19888   5.147   6.496   5.192
 6630WAT    HW119889   5.094   6.573   5.175
 6630WAT    HW219890   5.205   6.489   5.116
 6631WAT     OW19891   2.378   5.980   5.737
 6631WAT    HW119892   2.316   6.024   5.795
 6631WAT    HW219893   2.431   5.926   5.795
 6632WAT     OW19894   0.507   2.212   1.799
 6632WAT    HW119895   0.441   2.281   1.790
 6632WAT    HW219896   0.517   2.199   1.893
 6633WAT     OW19897   5.508   4.356   4.313
 6633WAT    HW119898   5.494   4.447   4.289
 6633WAT    HW219899   5.549   4.359   4.399
 6634WAT     OW19900   5.769   6.032   2.470
 6634WAT    HW119901   5.704   6.013   2.402
 6634WAT    HW219902   5.771   6.128   2.475
 6635WAT     OW19903   1.251   2.269   0.780
 6635WAT    HW119904   1.299   2.351   0.769
 6635WAT    HW219905   1.257   2.226   0.695
 6636WAT     OW19906   5.204   2.536   4.191
 6636WAT    HW119907   5.109   2.549   4.191
 6636WAT    HW219908   5.236   2.595   4.259
 6637WAT     OW19909   6.285   1.853   5.921
 6637WAT    HW119910   6.256   1.784   5.981
 6637WAT    HW219911   6.367   1.820   5.885
 6638WAT     OW19912   4.331   4.045   5.751
 6638WAT    HW119913   4.364   3.956   5.767
 6638WAT    HW219914   4.283   4.039   5.669
 6639WAT     OW19915   6.493   0.749   0.403
 6639WAT    HW119916   6.413   0.775   0.450
 6639WAT    HW219917   6.543   0.699   0.468
 6640WAT     OW19918   6.695   0.403   0.382
 6640WAT    HW119919   6.654   0.374   0.300
 6640WAT    HW219920   6.769   0.344   0.394
 6641WAT     OW19921   6.012   6.459   1.179
 6641WAT    HW119922   5.924   6.492   1.200
 6641WAT    HW219923   6.070   6.507   1.238
 6642WAT     OW19924   3.706   5.146   0.124
 6642WAT    HW119925   3.773   5.080   0.107
 6642WAT    HW219926   3.706   5.156   0.219
 6643WAT     OW19927   5.055   0.195   3.798
 6643WAT    HW119928   5.115   0.217   3.727
 6643WAT    HW219929   4.975   0.242   3.777
 6644WAT     OW19930   6.392   5.800   2.603
 6644WAT    HW119931   6.347   5.767   2.525
 6644WAT    HW219932   6.323   5.840   2.656
 6645WAT     OW19933   1.333   5.603   5.826
 6645WAT    HW119934   1.278   5.676   5.855
 6645WAT    HW219935   1.288   5.525   5.856
 6646WAT     OW19936   1.342   0.317   4.172
 6646WAT    HW119937   1.390   0.300   4.091
 6646WAT    HW219938   1.317   0.409   4.166
 6647WAT     OW19939   1.253   3.513   1.064
 6647WAT    HW119940   1.347   3.506   1.079
 6647WAT    HW219941   1.214   3.451   1.126
 6648WAT     OW19942   5.340   4.939   6.627
 6648WAT    HW119943   5.433   4.943   6.647
 6648WAT    HW219944   5.336   4.895   6.542
 6649WAT     OW19945   3.761   3.083   4.206
 6649WAT    HW119946   3.831   3.024   4.179
 6649WAT    HW219947   3.711   3.100   4.127
 6650WAT     OW19948   4.750   2.035   6.047
 6650WAT    HW119949   4.665   2.040   6.002
 6650WAT    HW219950   4.803   2.103   6.007
 6651WAT     OW19951   5.193   1.869   4.321
 6651WAT    HW119952   5.159   1.946   4.277
 6651WAT    HW219953   5.115   1.822   4.351
 6652WAT     OW19954   5.236   3.399   5.931
 6652WAT    HW119955   5.246   3.395   6.026
 6652WAT    HW219956   5.160   3.344   5.912
 6653WAT     OW19957   5.989   2.377   5.849
 6653WAT    HW119958   5.905   2.414   5.822
 6653WAT    HW219959   6.032   2.354   5.768
 6654WAT     OW19960   1.440   0.992   0.965
 6654WAT    HW119961   1.423   1.074   0.919
 6654WAT    HW219962   1.353   0.958   0.988
 6655WAT     OW19963   2.428   3.967   0.564
 6655WAT    HW119964   2.336   3.985   0.547
 6655WAT    HW219965   2.428   3.899   0.631
 6656WAT     OW19966   0.340   3.873   0.631
 6656WAT    HW119967   0.407   3.855   0.697
 6656WAT    HW219968   0.360   3.961   0.600
 6657WAT     OW19969   5.531   1.540   1.021
 6657WAT    HW119970   5.609   1.486   1.006
 6657WAT    HW219971   5.556   1.627   0.989
 6658WAT     OW19972   6.254   4.296   1.678
 6658WAT    HW119973   6.215   4.244   1.607
 6658WAT    HW219974   6.254   4.237   1.753
 6659WAT     OW19975   2.307   2.164   1.456
 6659WAT    HW119976   2.255   2.139   1.379
 6659WAT    HW219977   2.245   2.159   1.529
 6660WAT     OW19978   3.348   2.251   3.858
 6660WAT    HW119979   3.273   2.192   3.855
 6660WAT    HW219980   3.337   2.308   3.782
 6661WAT     OW19981   3.340   5.972   1.818
 6661WAT    HW119982   3.261   6.006   1.776
 6661WAT    HW219983   3.363   5.894   1.769
 6662WAT     OW19984   0.463   4.955   3.105
 6662WAT    HW119985   0.494   4.865   3.116
 6662WAT    HW219986   0.543   5.008   3.105
 6663WAT     OW19987   1.972   2.686   4.267
 6663WAT    HW119988   1.956   2.775   4.236
 6663WAT    HW219989   2.043   2.654   4.210
 6664WAT     OW19990   3.766   2.001   1.809
 6664WAT    HW119991   3.736   1.970   1.894
 6664WAT    HW219992   3.859   1.977   1.806
 6665WAT     OW19993   1.120   1.531   3.279
 6665WAT    HW119994   1.084   1.572   3.200
 6665WAT    HW219995   1.205   1.572   3.291
 6666WAT     OW19996   1.995   4.351   5.095
 6666WAT    HW119997   2.075   4.401   5.080
 6666WAT    HW219998   2.014   4.265   5.057
 6667WAT     OW19999   1.141   1.126   0.704
 6667WAT    HW120000   1.119   1.033   0.710
 6667WAT    HW220001   1.067   1.171   0.744
 6668WAT     OW20002   5.096   2.626   6.055
 6668WAT    HW120003   5.055   2.559   6.110
 6668WAT    HW220004   5.120   2.579   5.975
 6669WAT     OW20005   2.968   0.313   5.012
 6669WAT    HW120006   3.054   0.294   4.974
 6669WAT    HW220007   2.960   0.408   5.003
 6670WAT     OW20008   5.760   2.440   2.197
 6670WAT    HW120009   5.741   2.428   2.290
 6670WAT    HW220010   5.684   2.487   2.163
 6671WAT     OW20011   3.679   3.094   4.462
 6671WAT    HW120012   3.624   3.016   4.466
 6671WAT    HW220013   3.710   3.098   4.372
 6672WAT     OW20014   4.294   0.211   1.813
 6672WAT    HW120015   4.208   0.225   1.773
 6672WAT    HW220016   4.280   0.225   1.907
 6673WAT     OW20017   2.429   0.106   4.603
 6673WAT    HW120018   2.467   0.035   4.654
 6673WAT    HW220019   2.360   0.065   4.552
 6674WAT     OW20020   3.556   6.705   6.704
 6674WAT    HW120021   3.634   6.662   6.741
 6674WAT    HW220022   3.494   6.633   6.691
 6675WAT     OW20023   5.425   4.518   0.884
 6675WAT    HW120024   5.502   4.549   0.836
 6675WAT    HW220025   5.427   4.423   0.873
 6676WAT     OW20026   4.505   1.035   4.935
 6676WAT    HW120027   4.447   1.070   5.003
 6676WAT    HW220028   4.571   0.986   4.983
 6677WAT     OW20029   6.462   0.091   5.768
 6677WAT    HW120030   6.400   0.125   5.703
 6677WAT    HW220031   6.504   0.170   5.804
 6678WAT     OW20032   1.923   2.191   5.004
 6678WAT    HW120033   1.844   2.150   4.969
 6678WAT    HW220034   1.950   2.253   4.936
 6679WAT     OW20035   4.636   1.023   5.554
 6679WAT    HW120036   4.554   0.984   5.524
 6679WAT    HW220037   4.701   0.954   5.544
 6680WAT     OW20038   4.567   3.473   3.419
 6680WAT    HW120039   4.607   3.456   3.334
 6680WAT    HW220040   4.497   3.537   3.401
 6681WAT     OW20041   1.568   2.991   3.740
 6681WAT    HW120042   1.597   3.077   3.710
 6681WAT    HW220043   1.479   2.982   3.705
 6682WAT     OW20044   6.497   4.719   0.378
 6682WAT    HW120045   6.472   4.811   0.390
 6682WAT    HW220046   6.446   4.672   0.444
 6683WAT     OW20047   6.372   3.754   5.273
 6683WAT    HW120048   6.418   3.692   5.330
 6683WAT    HW220049   6.286   3.714   5.260
 6684WAT     OW20050   3.680   0.484   4.342
 6684WAT    HW120051   3.655   0.489   4.250
 6684WAT    HW220052   3.602   0.514   4.390
 6685WAT     OW20053   3.964   1.174   2.047
 6685WAT    HW120054   3.968   1.092   1.998
 6685WAT    HW220055   3.886   1.166   2.102
 6686WAT     OW20056   1.553   3.532   1.416
 6686WAT    HW120057   1.573   3.625   1.407
 6686WAT    HW220058   1.460   3.530   1.435
 6687WAT     OW20059   6.077   1.484   0.633
 6687WAT    HW120060   6.162   1.492   0.589
 6687WAT    HW220061   6.095   1.508   0.724
 6688WAT     OW20062   3.588   1.208   3.364
 6688WAT    HW120063   3.539   1.230   3.285
 6688WAT    HW220064   3.678   1.235   3.345
 6689WAT     OW20065   4.662   0.608   5.727
 6689WAT    HW120066   4.696   0.670   5.792
 6689WAT    HW220067   4.617   0.541   5.779
 6690WAT     OW20068   6.541   2.850   3.942
 6690WAT    HW120069   6.502   2.901   3.871
 6690WAT    HW220070   6.591   2.782   3.898
 6691WAT     OW20071   5.181   1.562   4.588
 6691WAT    HW120072   5.256   1.548   4.530
 6691WAT    HW220073   5.112   1.508   4.551
 6692WAT     OW20074   6.673   0.857   0.220
 6692WAT    HW120075   6.644   0.795   0.154
 6692WAT    HW220076   6.627   0.830   0.300
 6693WAT     OW20077   0.429   1.592   1.404
 6693WAT    HW120078   0.447   1.608   1.311
 6693WAT    HW220079   0.396   1.676   1.436
 6694WAT     OW20080   6.502   5.297   5.789
 6694WAT    HW120081   6.513   5.203   5.807
 6694WAT    HW220082   6.434   5.301   5.722
 6695WAT     OW20083   5.870   0.174   0.750
 6695WAT    HW120084   5.892   0.232   0.677
 6695WAT    HW220085   5.852   0.233   0.823
 6696WAT     OW20086   2.404   2.952   0.567
 6696WAT    HW120087   2.368   2.887   0.628
 6696WAT    HW220088   2.495   2.927   0.555
 6697WAT     OW20089   4.435   4.113   6.080
 6697WAT    HW120090   4.494   4.132   6.007
 6697WAT    HW220091   4.416   4.019   6.072
 6698WAT     OW20092   0.023   4.872   5.609
 6698WAT    HW120093   0.035   4.786   5.569
 6698WAT    HW220094   0.022   4.855   5.703
 6699WAT     OW20095   0.570   2.828   4.685
 6699WAT    HW120096   0.475   2.830   4.675
 6699WAT    HW220097   0.603   2.823   4.595
 6700WAT     OW20098   3.892   1.333   4.722
 6700WAT    HW120099   3.958   1.381   4.673
 6700WAT    HW220100   3.916   1.345   4.814
 6701WAT     OW20101   5.425   0.500   3.318
 6701WAT    HW120102   5.519   0.503   3.298
 6701WAT    HW220103   5.390   0.436   3.256
 6702WAT     OW20104   3.693   1.022   2.449
 6702WAT    HW120105   3.648   1.017   2.534
 6702WAT    HW220106   3.785   1.032   2.472
 6703WAT     OW20107   6.437   0.111   0.533
 6703WAT    HW120108   6.468   0.032   0.488
 6703WAT    HW220109   6.411   0.170   0.463
 6704WAT     OW20110   4.712   1.185   3.780
 6704WAT    HW120111   4.669   1.202   3.696
 6704WAT    HW220112   4.699   1.266   3.830
 6705WAT     OW20113   6.113   2.543   1.193
 6705WAT    HW120114   6.162   2.619   1.160
 6705WAT    HW220115   6.048   2.581   1.253
 6706WAT     OW20116   1.161   6.407   1.278
 6706WAT    HW120117   1.081   6.459   1.265
 6706WAT    HW220118   1.224   6.447   1.218
 6707WAT     OW20119   4.736   0.089   0.686
 6707WAT    HW120120   4.749  -0.005   0.691
 6707WAT    HW220121   4.696   0.103   0.600
 6708WAT     OW20122   0.944   1.200   0.183
 6708WAT    HW120123   1.029   1.243   0.191
 6708WAT    HW220124   0.932   1.157   0.268
 6709WAT     OW20125   5.658   3.166   5.984
 6709WAT    HW120126   5.725   3.144   6.049
 6709WAT    HW220127   5.579   3.121   6.015
 6710WAT     OW20128   3.379   0.628   0.690
 6710WAT    HW120129   3.378   0.720   0.664
 6710WAT    HW220130   3.333   0.582   0.620
 6711WAT     OW20131   5.763   6.577   1.243
 6711WAT    HW120132   5.707   6.634   1.294
 6711WAT    HW220133   5.801   6.634   1.176
 6712WAT     OW20134   1.282   2.488   4.583
 6712WAT    HW120135   1.324   2.406   4.556
 6712WAT    HW220136   1.189   2.474   4.566
 6713WAT     OW20137   1.587   2.736   3.857
 6713WAT    HW120138   1.512   2.747   3.914
 6713WAT    HW220139   1.597   2.820   3.813
 6714WAT     OW20140   2.125   3.167   5.617
 6714WAT    HW120141   2.207   3.149   5.664
 6714WAT    HW220142   2.093   3.249   5.655
 6715WAT     OW20143   2.687   4.723   0.643
 6715WAT    HW120144   2.749   4.701   0.713
 6715WAT    HW220145   2.743   4.736   0.566
 6716WAT     OW20146   4.008   0.271   2.078
 6716WAT    HW120147   4.100   0.244   2.074
 6716WAT    HW220148   3.960   0.192   2.053
 6717WAT     OW20149   4.352   0.811   4.117
 6717WAT    HW120150   4.283   0.845   4.061
 6717WAT    HW220151   4.367   0.721   4.087
 6718WAT     OW20152   6.220   0.833   1.758
 6718WAT    HW120153   6.244   0.803   1.846
 6718WAT    HW220154   6.240   0.926   1.758
 6719WAT     OW20155   5.468   5.757   1.503
 6719WAT    HW120156   5.395   5.817   1.489
 6719WAT    HW220157   5.436   5.672   1.472
 6720WAT     OW20158   0.275   1.595   4.638
 6720WAT    HW120159   0.364   1.630   4.644
 6720WAT    HW220160   0.287   1.502   4.620
 6721WAT     OW20161   2.381   3.938   0.199
 6721WAT    HW120162   2.347   3.849   0.203
 6721WAT    HW220163   2.306   3.993   0.219
 6722WAT     OW20164   0.894   5.905   0.488
 6722WAT    HW120165   0.825   5.882   0.550
 6722WAT    HW220166   0.899   6.001   0.492
 6723WAT     OW20167   0.417   3.989   6.370
 6723WAT    HW120168   0.403   3.910   6.423
 6723WAT    HW220169   0.512   3.998   6.366
 6724WAT     OW20170   1.474   1.567   4.595
 6724WAT    HW120171   1.472   1.471   4.592
 6724WAT    HW220172   1.394   1.591   4.642
 6725WAT     OW20173   2.002   4.935   4.112
 6725WAT    HW120174   2.060   4.900   4.180
 6725WAT    HW220175   2.059   4.991   4.059
 6726WAT     OW20176   6.236   2.780   1.128
 6726WAT    HW120177   6.179   2.857   1.134
 6726WAT    HW220178   6.277   2.786   1.042
 6727WAT     OW20179   4.418   4.087   0.278
 6727WAT    HW120180   4.403   4.146   0.204
 6727WAT    HW220181   4.367   4.124   0.350
 6728WAT     OW20182   3.230   5.123   6.425
 6728WAT    HW120183   3.242   5.112   6.330
 6728WAT    HW220184   3.296   5.188   6.451
 6729WAT     OW20185   3.999   6.329   3.055
 6729WAT    HW120186   3.976   6.420   3.035
 6729WAT    HW220187   3.936   6.277   3.004
 6730WAT     OW20188   5.487   2.861   4.522
 6730WAT    HW120189   5.575   2.824   4.521
 6730WAT    HW220190   5.471   2.882   4.613
 6731WAT     OW20191   0.638   1.229   5.946
 6731WAT    HW120192   0.678   1.264   5.866
 6731WAT    HW220193   0.548   1.262   5.945
 6732WAT     OW20194   5.455   0.269   4.335
 6732WAT    HW120195   5.534   0.314   4.304
 6732WAT    HW220196   5.484   0.218   4.410
 6733WAT     OW20197   1.658   2.352   3.160
 6733WAT    HW120198   1.686   2.280   3.217
 6733WAT    HW220199   1.706   2.428   3.193
 6734WAT     OW20200   1.350   6.552   4.179
 6734WAT    HW120201   1.411   6.545   4.252
 6734WAT    HW220202   1.270   6.588   4.217
 6735WAT     OW20203   5.992   4.443   4.097
 6735WAT    HW120204   6.015   4.481   4.182
 6735WAT    HW220205   5.911   4.488   4.072
 6736WAT     OW20206   1.521   6.263   6.173
 6736WAT    HW120207   1.556   6.182   6.212
 6736WAT    HW220208   1.431   6.268   6.206
 6737WAT     OW20209   3.370   2.704   1.036
 6737WAT    HW120210   3.311   2.731   1.106
 6737WAT    HW220211   3.435   2.650   1.080
 6738WAT     OW20212   2.746   2.475   1.684
 6738WAT    HW120213   2.819   2.413   1.689
 6738WAT    HW220214   2.779   2.547   1.630
 6739WAT     OW20215   0.230   6.520   0.570
 6739WAT    HW120216   0.150   6.565   0.598
 6739WAT    HW220217   0.218   6.505   0.476
 6740WAT     OW20218   2.582   4.938   2.243
 6740WAT    HW120219   2.568   5.031   2.226
 6740WAT    HW220220   2.569   4.895   2.159
 6741WAT     OW20221   0.811   1.593   4.449
 6741WAT    HW120222   0.781   1.515   4.496
 6741WAT    HW220223   0.732   1.644   4.434
 6742WAT     OW20224   4.737   5.799   1.521
 6742WAT    HW120225   4.712   5.713   1.488
 6742WAT    HW220226   4.715   5.860   1.451
 6743WAT     OW20227   0.878   4.700   4.881
 6743WAT    HW120228   0.802   4.751   4.854
 6743WAT    HW220229   0.844   4.611   4.891
 6744WAT     OW20230   1.627   4.439   3.798
 6744WAT    HW120231   1.593   4.426   3.709
 6744WAT    HW220232   1.575   4.381   3.853
 6745WAT     OW20233   0.232   3.426   5.196
 6745WAT    HW120234   0.260   3.467   5.278
 6745WAT    HW220235   0.175   3.354   5.224
 6746WAT     OW20236   6.108   1.846   5.699
 6746WAT    HW120237   6.165   1.807   5.633
 6746WAT    HW220238   6.164   1.856   5.776
 6747WAT     OW20239   2.921   4.648   0.009
 6747WAT    HW120240   2.909   4.620   0.100
 6747WAT    HW220241   2.985   4.719   0.015
 6748WAT     OW20242   5.881   5.198   1.489
 6748WAT    HW120243   5.968   5.228   1.464
 6748WAT    HW220244   5.835   5.277   1.518
 6749WAT     OW20245   5.977   2.104   6.455
 6749WAT    HW120246   5.986   2.174   6.520
 6749WAT    HW220247   5.932   2.034   6.502
 6750WAT     OW20248   2.182   5.891   0.043
 6750WAT    HW120249   2.120   5.851   0.104
 6750WAT    HW220250   2.163   5.849  -0.041
 6751WAT     OW20251   5.957   6.375   4.388
 6751WAT    HW120252   5.925   6.462   4.363
 6751WAT    HW220253   5.919   6.359   4.474
 6752WAT     OW20254   2.578   6.110   3.279
 6752WAT    HW120255   2.582   6.030   3.331
 6752WAT    HW220256   2.549   6.178   3.340
 6753WAT     OW20257   6.582   2.382   3.964
 6753WAT    HW120258   6.498   2.372   3.919
 6753WAT    HW220259   6.559   2.387   4.057
 6754WAT     OW20260   1.778   6.099   2.389
 6754WAT    HW120261   1.825   6.117   2.471
 6754WAT    HW220262   1.792   6.006   2.373
 6755WAT     OW20263   3.351   0.893   0.620
 6755WAT    HW120264   3.420   0.947   0.582
 6755WAT    HW220265   3.293   0.872   0.547
 6756WAT     OW20266   6.080   1.085   2.793
 6756WAT    HW120267   6.079   1.179   2.809
 6756WAT    HW220268   6.168   1.057   2.815
 6757WAT     OW20269   5.792   6.202   4.063
 6757WAT    HW120270   5.883   6.231   4.062
 6757WAT    HW220271   5.745   6.266   4.009
 6758WAT     OW20272   1.901   0.323   5.554
 6758WAT    HW120273   1.938   0.236   5.538
 6758WAT    HW220274   1.906   0.367   5.469
 6759WAT     OW20275   1.273   1.401   0.048
 6759WAT    HW120276   1.228   1.483   0.027
 6759WAT    HW220277   1.232   1.372   0.130
 6760WAT     OW20278   2.791   2.303   1.973
 6760WAT    HW120279   2.706   2.346   1.961
 6760WAT    HW220280   2.833   2.309   1.888
 6761WAT     OW20281   1.215   4.366   1.234
 6761WAT    HW120282   1.220   4.301   1.304
 6761WAT    HW220283   1.121   4.378   1.219
 6762WAT     OW20284   4.003   1.959   3.486
 6762WAT    HW120285   3.972   1.893   3.423
 6762WAT    HW220286   3.924   2.010   3.507
 6763WAT     OW20287   0.340   6.567   1.887
 6763WAT    HW120288   0.402   6.572   1.959
 6763WAT    HW220289   0.379   6.621   1.818
 6764WAT     OW20290   3.976   2.179   4.212
 6764WAT    HW120291   3.884   2.184   4.189
 6764WAT    HW220292   3.995   2.085   4.218
 6765WAT     OW20293   1.738   1.611   3.292
 6765WAT    HW120294   1.833   1.610   3.303
 6765WAT    HW220295   1.726   1.600   3.197
 6766WAT     OW20296   0.814   5.257   2.470
 6766WAT    HW120297   0.766   5.238   2.550
 6766WAT    HW220298   0.901   5.219   2.485
 6767WAT     OW20299   2.777   4.650   4.776
 6767WAT    HW120300   2.721   4.728   4.771
 6767WAT    HW220301   2.866   4.684   4.761
 6768WAT     OW20302   1.537   1.922   2.694
 6768WAT    HW120303   1.522   1.965   2.610
 6768WAT    HW220304   1.450   1.894   2.723
 6769WAT     OW20305   0.471   5.343   2.195
 6769WAT    HW120306   0.384   5.306   2.215
 6769WAT    HW220307   0.532   5.277   2.227
 6770WAT     OW20308   5.939   1.907   1.956
 6770WAT    HW120309   6.013   1.868   1.910
 6770WAT    HW220310   5.881   1.937   1.886
 6771WAT     OW20311   2.893   3.635   0.083
 6771WAT    HW120312   2.957   3.669   0.145
 6771WAT    HW220313   2.852   3.561   0.128
 6772WAT     OW20314   3.866   4.867   5.872
 6772WAT    HW120315   3.784   4.819   5.883
 6772WAT    HW220316   3.930   4.817   5.922
 6773WAT     OW20317   4.287   0.894   2.598
 6773WAT    HW120318   4.223   0.830   2.629
 6773WAT    HW220319   4.241   0.944   2.530
 6774WAT     OW20320   2.523   2.868   0.909
 6774WAT    HW120321   2.477   2.838   0.988
 6774WAT    HW220322   2.472   2.832   0.837
 6775WAT     OW20323   4.886   0.843   4.866
 6775WAT    HW120324   4.821   0.864   4.934
 6775WAT    HW220325   4.838   0.849   4.784
 6776WAT     OW20326   2.122   6.507   2.559
 6776WAT    HW120327   2.148   6.469   2.642
 6776WAT    HW220328   2.057   6.574   2.582
 6777WAT     OW20329   1.842   5.573   6.383
 6777WAT    HW120330   1.756   5.534   6.401
 6777WAT    HW220331   1.892   5.559   6.463
 6778WAT     OW20332   3.852   0.173   3.219
 6778WAT    HW120333   3.914   0.151   3.150
 6778WAT    HW220334   3.905   0.216   3.286
 6779WAT     OW20335   0.605   2.639   2.841
 6779WAT    HW120336   0.613   2.558   2.892
 6779WAT    HW220337   0.691   2.681   2.848
 6780WAT     OW20338   5.700   0.836   3.717
 6780WAT    HW120339   5.721   0.923   3.751
 6780WAT    HW220340   5.625   0.807   3.770
 6781WAT     OW20341   2.471   5.797   1.458
 6781WAT    HW120342   2.467   5.830   1.548
 6781WAT    HW220343   2.462   5.702   1.468
 6782WAT     OW20344   2.575   6.678   5.830
 6782WAT    HW120345   2.492   6.718   5.803
 6782WAT    HW220346   2.577   6.594   5.784
 6783WAT     OW20347   1.622   6.485   4.929
 6783WAT    HW120348   1.597   6.561   4.877
 6783WAT    HW220349   1.570   6.492   5.009
 6784WAT     OW20350   0.285   3.070   1.407
 6784WAT    HW120351   0.332   3.081   1.324
 6784WAT    HW220352   0.218   3.138   1.406
 6785WAT     OW20353   6.552   3.685   1.537
 6785WAT    HW120354   6.636   3.684   1.490
 6785WAT    HW220355   6.492   3.638   1.479
 6786WAT     OW20356   0.574   1.034   2.580
 6786WAT    HW120357   0.528   0.953   2.558
 6786WAT    HW220358   0.663   1.005   2.602
 6787WAT     OW20359   1.974   2.737   2.741
 6787WAT    HW120360   2.028   2.810   2.771
 6787WAT    HW220361   2.000   2.664   2.798
 6788WAT     OW20362   3.264   5.052   1.940
 6788WAT    HW120363   3.239   4.960   1.947
 6788WAT    HW220364   3.314   5.070   2.019
 6789WAT     OW20365   0.849   4.542   6.570
 6789WAT    HW120366   0.891   4.463   6.605
 6789WAT    HW220367   0.887   4.552   6.483
 6790WAT     OW20368   5.903   0.963   6.578
 6790WAT    HW120369   5.821   0.932   6.617
 6790WAT    HW220370   5.884   0.970   6.485
 6791WAT     OW20371   6.305   4.367   2.048
 6791WAT    HW120372   6.227   4.411   2.081
 6791WAT    HW220373   6.377   4.403   2.100
 6792WAT     OW20374   2.546   3.430   3.593
 6792WAT    HW120375   2.594   3.433   3.676
 6792WAT    HW220376   2.610   3.397   3.530
 6793WAT     OW20377   1.783   5.319   2.329
 6793WAT    HW120378   1.722   5.347   2.397
 6793WAT    HW220379   1.755   5.367   2.251
 6794WAT     OW20380   4.618   5.403   2.543
 6794WAT    HW120381   4.576   5.464   2.482
 6794WAT    HW220382   4.705   5.439   2.558
 6795WAT     OW20383   2.474   4.390   6.476
 6795WAT    HW120384   2.565   4.390   6.446
 6795WAT    HW220385   2.452   4.297   6.483
 6796WAT     OW20386   1.522   4.616   5.583
 6796WAT    HW120387   1.464   4.688   5.608
 6796WAT    HW220388   1.478   4.574   5.509
 6797WAT     OW20389   2.086   1.894   2.465
 6797WAT    HW120390   2.055   1.803   2.465
 6797WAT    HW220391   2.076   1.923   2.556
 6798WAT     OW20392   0.704   2.214   4.507
 6798WAT    HW120393   0.650   2.186   4.581
 6798WAT    HW220394   0.645   2.266   4.453
 6799WAT     OW20395   2.895   6.688   1.632
 6799WAT    HW120396   2.863   6.766   1.678
 6799WAT    HW220397   2.874   6.615   1.691
 6800WAT     OW20398   4.116   3.221   1.733
 6800WAT    HW120399   4.201   3.200   1.772
 6800WAT    HW220400   4.128   3.309   1.695
 6801WAT     OW20401   6.286   0.252   5.303
 6801WAT    HW120402   6.263   0.337   5.265
 6801WAT    HW220403   6.226   0.190   5.262
 6802WAT     OW20404   3.379   0.357   4.573
 6802WAT    HW120405   3.404   0.438   4.529
 6802WAT    HW220406   3.289   0.372   4.602
 6803WAT     OW20407   1.590   1.754   1.557
 6803WAT    HW120408   1.539   1.835   1.559
 6803WAT    HW220409   1.582   1.723   1.467
 6804WAT     OW20410   3.679   4.330   5.384
 6804WAT    HW120411   3.599   4.382   5.378
 6804WAT    HW220412   3.745   4.390   5.418
 6805WAT     OW20413   3.382   0.024   5.608
 6805WAT    HW120414   3.346   0.079   5.677
 6805WAT    HW220415   3.357  -0.065   5.633
 6806WAT     OW20416   4.982   5.918   0.324
 6806WAT    HW120417   5.048   5.970   0.277
 6806WAT    HW220418   4.991   5.945   0.415
 6807WAT     OW20419   5.723   2.497   6.394
 6807WAT    HW120420   5.766   2.522   6.312
 6807WAT    HW220421   5.748   2.565   6.457
 6808WAT     OW20422   3.789   1.573   4.502
 6808WAT    HW120423   3.861   1.524   4.463
 6808WAT    HW220424   3.712   1.518   4.489
 6809WAT     OW20425   6.613   2.175   0.597
 6809WAT    HW120426   6.693   2.123   0.588
 6809WAT    HW220427   6.624   2.246   0.534
 6810WAT     OW20428   6.320   5.458   0.519
 6810WAT    HW120429   6.376   5.382   0.508
 6810WAT    HW220430   6.308   5.493   0.430
 6811WAT     OW20431   3.366   2.245   5.521
 6811WAT    HW120432   3.334   2.335   5.520
 6811WAT    HW220433   3.442   2.247   5.463
 6812WAT     OW20434   2.982   6.289   3.256
 6812WAT    HW120435   2.949   6.278   3.345
 6812WAT    HW220436   3.077   6.279   3.265
 6813WAT     OW20437   3.991   5.409   2.681
 6813WAT    HW120438   3.949   5.351   2.744
 6813WAT    HW220439   3.959   5.381   2.596
 6814WAT     OW20440   4.553   1.699   5.011
 6814WAT    HW120441   4.636   1.724   4.969
 6814WAT    HW220442   4.549   1.754   5.089
 6815WAT     OW20443   0.373   0.150   4.662
 6815WAT    HW120444   0.448   0.158   4.602
 6815WAT    HW220445   0.317   0.084   4.622
 6816WAT     OW20446   5.141   0.400   2.422
 6816WAT    HW120447   5.056   0.357   2.413
 6816WAT    HW220448   5.119   0.491   2.443
 6817WAT     OW20449   1.533   1.079   5.893
 6817WAT    HW120450   1.486   1.146   5.844
 6817WAT    HW220451   1.544   1.116   5.980
 6818WAT     OW20452   2.430   3.907   4.076
 6818WAT    HW120453   2.473   3.840   4.022
 6818WAT    HW220454   2.502   3.952   4.119
 6819WAT     OW20455   6.096   2.211   2.171
 6819WAT    HW120456   6.024   2.237   2.114
 6819WAT    HW220457   6.073   2.122   2.199
 6820WAT     OW20458   2.502   2.798   3.877
 6820WAT    HW120459   2.448   2.776   3.801
 6820WAT    HW220460   2.454   2.763   3.951
 6821WAT     OW20461   0.795   5.497   2.326
 6821WAT    HW120462   0.777   5.426   2.388
 6821WAT    HW220463   0.874   5.470   2.281
 6822WAT     OW20464   1.399   0.841   0.500
 6822WAT    HW120465   1.329   0.858   0.437
 6822WAT    HW220466   1.414   0.925   0.543
 6823WAT     OW20467   5.205   3.677   1.870
 6823WAT    HW120468   5.151   3.702   1.796
 6823WAT    HW220469   5.201   3.752   1.930
 6824WAT     OW20470   3.573   3.906   3.414
 6824WAT    HW120471   3.654   3.952   3.437
 6824WAT    HW220472   3.600   3.817   3.393
 6825WAT     OW20473   1.162   2.507   1.040
 6825WAT    HW120474   1.140   2.460   1.120
 6825WAT    HW220475   1.111   2.463   0.972
 6826WAT     OW20476   5.828   6.299   2.840
 6826WAT    HW120477   5.743   6.270   2.807
 6826WAT    HW220478   5.883   6.309   2.763
 6827WAT     OW20479   0.341   3.216   3.049
 6827WAT    HW120480   0.297   3.188   3.130
 6827WAT    HW220481   0.300   3.162   2.981
 6828WAT     OW20482   2.111   1.865   6.306
 6828WAT    HW120483   2.056   1.827   6.237
 6828WAT    HW220484   2.201   1.857   6.272
 6829WAT     OW20485   1.055   1.039   5.204
 6829WAT    HW120486   1.145   1.047   5.235
 6829WAT    HW220487   1.021   0.961   5.249
 6830WAT     OW20488   4.524   1.484   0.474
 6830WAT    HW120489   4.606   1.533   0.467
 6830WAT    HW220490   4.473   1.512   0.398
 6831WAT     OW20491   5.584   6.296   0.059
 6831WAT    HW120492   5.669   6.265   0.091
 6831WAT    HW220493   5.580   6.266  -0.031
 6832WAT     OW20494   4.946   0.156   4.596
 6832WAT    HW120495   4.915   0.246   4.608
 6832WAT    HW220496   4.869   0.102   4.613
 6833WAT     OW20497   5.458   3.299   1.299
 6833WAT    HW120498   5.380   3.332   1.344
 6833WAT    HW220499   5.446   3.326   1.208
 6834WAT     OW20500   6.227   1.599   2.044
 6834WAT    HW120501   6.152   1.589   1.985
 6834WAT    HW220502   6.197   1.564   2.127
 6835WAT     OW20503   6.186   1.468   1.683
 6835WAT    HW120504   6.222   1.556   1.693
 6835WAT    HW220505   6.262   1.410   1.688
 6836WAT     OW20506   2.478   2.110   0.808
 6836WAT    HW120507   2.519   2.095   0.893
 6836WAT    HW220508   2.417   2.037   0.798
 6837WAT     OW20509   6.572   4.331   3.625
 6837WAT    HW120510   6.493   4.299   3.582
 6837WAT    HW220511   6.576   4.424   3.602
 6838WAT     OW20512   1.120   0.126   0.739
 6838WAT    HW120513   1.165   0.116   0.655
 6838WAT    HW220514   1.074   0.210   0.731
 6839WAT     OW20515   2.773   4.661   5.892
 6839WAT    HW120516   2.829   4.588   5.867
 6839WAT    HW220517   2.771   4.718   5.814
 6840WAT     OW20518   0.739   5.531   3.436
 6840WAT    HW120519   0.721   5.572   3.352
 6840WAT    HW220520   0.703   5.443   3.429
 6841WAT     OW20521   4.749   1.071   4.360
 6841WAT    HW120522   4.775   1.097   4.271
 6841WAT    HW220523   4.681   1.005   4.347
 6842WAT     OW20524   4.260   5.061   6.064
 6842WAT    HW120525   4.196   5.088   6.130
 6842WAT    HW220526   4.273   4.968   6.079
 6843WAT     OW20527   0.559   3.521   6.153
 6843WAT    HW120528   0.548   3.616   6.150
 6843WAT    HW220529   0.644   3.505   6.112
 6844WAT     OW20530   4.785   3.339   6.102
 6844WAT    HW120531   4.786   3.431   6.076
 6844WAT    HW220532   4.752   3.340   6.192
 6845WAT     OW20533   2.864   3.407   5.013
 6845WAT    HW120534   2.829   3.344   4.950
 6845WAT    HW220535   2.932   3.359   5.059
 6846WAT     OW20536   5.420   0.299   5.209
 6846WAT    HW120537   5.388   0.296   5.299
 6846WAT    HW220538   5.348   0.263   5.156
 6847WAT     OW20539   0.306   5.041   3.514
 6847WAT    HW120540   0.280   5.133   3.514
 6847WAT    HW220541   0.277   5.008   3.429
 6848WAT     OW20542   3.148   5.333   4.675
 6848WAT    HW120543   3.240   5.342   4.650
 6848WAT    HW220544   3.146   5.352   4.769
 6849WAT     OW20545   0.775   1.522   6.314
 6849WAT    HW120546   0.757   1.577   6.238
 6849WAT    HW220547   0.726   1.562   6.385
 6850WAT     OW20548   2.243   1.646   2.280
 6850WAT    HW120549   2.319   1.700   2.257
 6850WAT    HW220550   2.170   1.687   2.234
 6851WAT     OW20551   2.138   5.362   5.472
 6851WAT    HW120552   2.147   5.456   5.453
 6851WAT    HW220553   2.217   5.323   5.436
 6852WAT     OW20554   4.302   2.942   4.917
 6852WAT    HW120555   4.230   2.989   4.959
 6852WAT    HW220556   4.365   2.927   4.987
 6853WAT     OW20557   0.724   1.490   1.167
 6853WAT    HW120558   0.793   1.501   1.232
 6853WAT    HW220559   0.769   1.496   1.083
 6854WAT     OW20560   4.287   3.353   4.906
 6854WAT    HW120561   4.207   3.306   4.928
 6854WAT    HW220562   4.263   3.445   4.911
 6855WAT     OW20563   1.084   5.536   0.835
 6855WAT    HW120564   1.064   5.516   0.744
 6855WAT    HW220565   1.064   5.629   0.844
 6856WAT     OW20566   0.958   2.225   4.257
 6856WAT    HW120567   0.974   2.238   4.351
 6856WAT    HW220568   1.027   2.165   4.229
 6857WAT     OW20569   0.096   0.310   6.451
 6857WAT    HW120570   0.056   0.397   6.446
 6857WAT    HW220571   0.073   0.269   6.367
 6858WAT     OW20572   0.054   6.048   3.998
 6858WAT    HW120573   0.027   6.018   3.911
 6858WAT    HW220574   0.071   6.142   3.987
 6859WAT     OW20575   2.664   2.042   4.059
 6859WAT    HW120576   2.628   2.129   4.080
 6859WAT    HW220577   2.664   2.038   3.964
 6860WAT     OW20578   0.476   4.409   3.539
 6860WAT    HW120579   0.383   4.416   3.518
 6860WAT    HW220580   0.478   4.378   3.630
 6861WAT     OW20581   3.911   5.802   6.395
 6861WAT    HW120582   3.822   5.787   6.365
 6861WAT    HW220583   3.923   5.896   6.390
 6862WAT     OW20584   3.943   3.712   1.220
 6862WAT    HW120585   3.980   3.710   1.132
 6862WAT    HW220586   3.992   3.647   1.269
 6863WAT     OW20587   4.354   3.025   1.386
 6863WAT    HW120588   4.290   3.067   1.329
 6863WAT    HW220589   4.306   2.954   1.428
 6864WAT     OW20590   6.063   4.383   2.425
 6864WAT    HW120591   6.137   4.434   2.458
 6864WAT    HW220592   6.012   4.362   2.504
 6865WAT     OW20593   0.668   4.201   4.576
 6865WAT    HW120594   0.656   4.155   4.493
 6865WAT    HW220595   0.593   4.260   4.582
 6866WAT     OW20596   1.880   0.966   3.577
 6866WAT    HW120597   1.881   1.017   3.658
 6866WAT    HW220598   1.951   0.903   3.587
 6867WAT     OW20599   0.179   4.400   3.943
 6867WAT    HW120600   0.145   4.358   3.864
 6867WAT    HW220601   0.274   4.399   3.932
 6868WAT     OW20602   6.570   2.154   5.347
 6868WAT    HW120603   6.625   2.199   5.411
 6868WAT    HW220604   6.492   2.128   5.396
 6869WAT     OW20605   4.256   6.429   1.645
 6869WAT    HW120606   4.206   6.360   1.600
 6869WAT    HW220607   4.203   6.508   1.633
 6870WAT     OW20608   3.074   1.106   1.364
 6870WAT    HW120609   3.043   1.178   1.308
 6870WAT    HW220610   3.045   1.129   1.452
 6871WAT     OW20611   3.739   6.685   3.343
 6871WAT    HW120612   3.687   6.634   3.281
 6871WAT    HW220613   3.772   6.758   3.291
 6872WAT     OW20614   3.540   4.214   0.740
 6872WAT    HW120615   3.562   4.141   0.682
 6872WAT    HW220616   3.624   4.256   0.758
 6873WAT     OW20617   5.491   6.588   2.978
 6873WAT    HW120618   5.426   6.601   2.908
 6873WAT    HW220619   5.571   6.627   2.943
 6874WAT     OW20620   4.175   4.906   3.438
 6874WAT    HW120621   4.220   4.951   3.510
 6874WAT    HW220622   4.200   4.814   3.448
 6875WAT     OW20623   1.284   6.700   1.724
 6875WAT    HW120624   1.229   6.745   1.660
 6875WAT    HW220625   1.237   6.620   1.746
 6876WAT     OW20626   2.928   1.429   2.442
 6876WAT    HW120627   2.906   1.521   2.449
 6876WAT    HW220628   3.014   1.428   2.401
 6877WAT     OW20629   4.897   3.024   1.576
 6877WAT    HW120630   4.958   2.950   1.581
 6877WAT    HW220631   4.872   3.029   1.484
 6878WAT     OW20632   1.095   2.890   3.669
 6878WAT    HW120633   1.168   2.951   3.660
 6878WAT    HW220634   1.134   2.811   3.707
 6879WAT     OW20635   1.067   6.637   5.813
 6879WAT    HW120636   1.084   6.725   5.778
 6879WAT    HW220637   1.119   6.579   5.757
 6880WAT     OW20638   0.535   0.538   0.537
 6880WAT    HW120639   0.631   0.540   0.528
 6880WAT    HW220640   0.520   0.522   0.630
 6881WAT     OW20641   1.840   3.585   4.926
 6881WAT    HW120642   1.866   3.498   4.895
 6881WAT    HW220643   1.910   3.610   4.988
 6882WAT     OW20644   4.648   4.286   0.464
 6882WAT    HW120645   4.605   4.311   0.383
 6882WAT    HW220646   4.582   4.239   0.514
 6883WAT     OW20647   1.039   0.829   3.546
 6883WAT    HW120648   0.982   0.759   3.577
 6883WAT    HW220649   1.122   0.814   3.591
 6884WAT     OW20650   5.294   1.688   3.602
 6884WAT    HW120651   5.259   1.736   3.527
 6884WAT    HW220652   5.260   1.734   3.679
 6885WAT     OW20653   3.031   3.170   1.959
 6885WAT    HW120654   2.968   3.235   1.988
 6885WAT    HW220655   3.110   3.188   2.011
 6886WAT     OW20656   3.815   1.657   3.602
 6886WAT    HW120657   3.882   1.589   3.596
 6886WAT    HW220658   3.841   1.710   3.677
 6887WAT     OW20659   4.801   1.635   1.885
 6887WAT    HW120660   4.875   1.689   1.854
 6887WAT    HW220661   4.828   1.545   1.865
 6888WAT     OW20662   2.942   2.527   4.643
 6888WAT    HW120663   3.036   2.544   4.654
 6888WAT    HW220664   2.939   2.440   4.602
 6889WAT     OW20665   4.374   5.686   2.586
 6889WAT    HW120666   4.345   5.601   2.620
 6889WAT    HW220667   4.294   5.731   2.560
 6890WAT     OW20668   3.949   6.584   5.919
 6890WAT    HW120669   3.922   6.639   5.993
 6890WAT    HW220670   3.871   6.531   5.899
 6891WAT     OW20671   2.626   2.493   5.729
 6891WAT    HW120672   2.703   2.548   5.716
 6891WAT    HW220673   2.588   2.484   5.642
 6892WAT     OW20674   1.521   5.357   4.195
 6892WAT    HW120675   1.479   5.313   4.122
 6892WAT    HW220676   1.605   5.388   4.159
 6893WAT     OW20677   0.941   4.338   5.722
 6893WAT    HW120678   0.909   4.252   5.748
 6893WAT    HW220679   0.907   4.397   5.789
 6894WAT     OW20680   6.015   6.287   0.482
 6894WAT    HW120681   6.018   6.251   0.571
 6894WAT    HW220682   6.071   6.365   0.486
 6895WAT     OW20683   3.345   0.084   1.495
 6895WAT    HW120684   3.252   0.070   1.478
 6895WAT    HW220685   3.357   0.179   1.487
 6896WAT     OW20686   4.229   4.435   5.843
 6896WAT    HW120687   4.203   4.350   5.878
 6896WAT    HW220688   4.290   4.470   5.908
 6897WAT     OW20689   5.124   1.682   6.029
 6897WAT    HW120690   5.181   1.744   6.075
 6897WAT    HW220691   5.150   1.688   5.938
 6898WAT     OW20692   3.119   4.840   0.048
 6898WAT    HW120693   3.140   4.835   0.141
 6898WAT    HW220694   3.126   4.933   0.027
 6899WAT     OW20695   0.667   3.040   6.549
 6899WAT    HW120696   0.640   2.981   6.619
 6899WAT    HW220697   0.750   3.004   6.518
 6900WAT     OW20698   1.056   6.175   3.636
 6900WAT    HW120699   1.032   6.122   3.712
 6900WAT    HW220700   1.011   6.133   3.562
 6901WAT     OW20701   4.101   0.437   3.083
 6901WAT    HW120702   4.144   0.488   3.151
 6901WAT    HW220703   4.147   0.353   3.083
 6902WAT     OW20704   3.092   4.370   1.852
 6902WAT    HW120705   3.172   4.342   1.895
 6902WAT    HW220706   3.031   4.387   1.924
 6903WAT     OW20707   1.783   1.083   5.786
 6903WAT    HW120708   1.767   1.073   5.692
 6903WAT    HW220709   1.697   1.070   5.826
 6904WAT     OW20710   3.442   3.851   2.180
 6904WAT    HW120711   3.384   3.775   2.178
 6904WAT    HW220712   3.454   3.875   2.088
 6905WAT     OW20713   5.723   0.586   2.393
 6905WAT    HW120714   5.632   0.607   2.414
 6905WAT    HW220715   5.773   0.663   2.422
 6906WAT     OW20716   6.517   6.250   1.119
 6906WAT    HW120717   6.453   6.243   1.190
 6906WAT    HW220718   6.555   6.337   1.130
 6907WAT     OW20719   1.191   1.053   2.663
 6907WAT    HW120720   1.134   0.995   2.612
 6907WAT    HW220721   1.177   1.027   2.754
 6908WAT     OW20722   6.560   4.781   6.581
 6908WAT    HW120723   6.573   4.697   6.537
 6908WAT    HW220724   6.557   4.759   6.674
 6909WAT     OW20725   1.144   4.754   5.182
 6909WAT    HW120726   1.119   4.762   5.274
 6909WAT    HW220727   1.165   4.661   5.172
 6910WAT     OW20728   1.763   3.925   4.266
 6910WAT    HW120729   1.695   3.867   4.231
 6910WAT    HW220730   1.834   3.866   4.291
 6911WAT     OW20731   4.280   3.570   3.634
 6911WAT    HW120732   4.298   3.480   3.607
 6911WAT    HW220733   4.324   3.579   3.719
 6912WAT     OW20734   1.145   2.046   4.186
 6912WAT    HW120735   1.210   1.992   4.229
 6912WAT    HW220736   1.171   2.046   4.094
 6913WAT     OW20737   2.228   4.475   5.023
 6913WAT    HW120738   2.283   4.469   5.101
 6913WAT    HW220739   2.283   4.439   4.953
 6914WAT     OW20740   0.716   4.887   0.637
 6914WAT    HW120741   0.713   4.954   0.706
 6914WAT    HW220742   0.626   4.856   0.631
 6915WAT     OW20743   1.280   4.173   1.426
 6915WAT    HW120744   1.238   4.114   1.489
 6915WAT    HW220745   1.352   4.121   1.389
 6916WAT     OW20746   3.004   2.662   2.200
 6916WAT    HW120747   2.967   2.574   2.191
 6916WAT    HW220748   3.032   2.686   2.112
 6917WAT     OW20749   6.270   6.389   2.965
 6917WAT    HW120750   6.177   6.405   2.981
 6917WAT    HW220751   6.296   6.326   3.032
 6918WAT     OW20752   5.965   4.466   6.144
 6918WAT    HW120753   5.875   4.437   6.127
 6918WAT    HW220754   6.018   4.418   6.079
 6919WAT     OW20755   5.570   4.577   2.555
 6919WAT    HW120756   5.488   4.535   2.530
 6919WAT    HW220757   5.547   4.669   2.569
 6920WAT     OW20758   0.530   3.384   3.784
 6920WAT    HW120759   0.495   3.326   3.851
 6920WAT    HW220760   0.580   3.326   3.726
 6921WAT     OW20761   1.679   1.220   0.037
 6921WAT    HW120762   1.626   1.298   0.019
 6921WAT    HW220763   1.614   1.153   0.060
 6922WAT     OW20764   4.519   5.833   6.514
 6922WAT    HW120765   4.601   5.859   6.472
 6922WAT    HW220766   4.543   5.814   6.605
 6923WAT     OW20767   4.791   1.046   5.242
 6923WAT    HW120768   4.862   1.057   5.305
 6923WAT    HW220769   4.738   1.126   5.252
 6924WAT     OW20770   4.654   4.996   1.531
 6924WAT    HW120771   4.583   4.933   1.524
 6924WAT    HW220772   4.714   4.972   1.460
 6925WAT     OW20773   2.234   1.504   4.871
 6925WAT    HW120774   2.147   1.470   4.890
 6925WAT    HW220775   2.233   1.594   4.905
 6926WAT     OW20776   1.822   4.834   2.496
 6926WAT    HW120777   1.807   4.912   2.442
 6926WAT    HW220778   1.882   4.863   2.564
 6927WAT     OW20779   1.339   2.012   4.658
 6927WAT    HW120780   1.283   1.952   4.609
 6927WAT    HW220781   1.287   2.035   4.735
 6928WAT     OW20782   4.809   4.434   1.967
 6928WAT    HW120783   4.739   4.441   1.902
 6928WAT    HW220784   4.772   4.473   2.047
 6929WAT     OW20785   5.997   2.519   3.428
 6929WAT    HW120786   6.024   2.611   3.428
 6929WAT    HW220787   5.911   2.519   3.471
 6930WAT     OW20788   2.116   0.161   4.684
 6930WAT    HW120789   2.162   0.106   4.621
 6930WAT    HW220790   2.035   0.113   4.704
 6931WAT     OW20791   3.600   6.324   3.239
 6931WAT    HW120792   3.547   6.275   3.176
 6931WAT    HW220793   3.608   6.412   3.200
 6932WAT     OW20794   3.450   6.617   0.991
 6932WAT    HW120795   3.406   6.680   1.049
 6932WAT    HW220796   3.432   6.650   0.903
 6933WAT     OW20797   0.932   4.345   0.248
 6933WAT    HW120798   0.954   4.273   0.307
 6933WAT    HW220799   0.865   4.395   0.295
 6934WAT     OW20800   4.750   4.507   2.766
 6934WAT    HW120801   4.809   4.515   2.691
 6934WAT    HW220802   4.662   4.505   2.728
 6935WAT     OW20803   3.988   1.430   4.365
 6935WAT    HW120804   4.029   1.425   4.451
 6935WAT    HW220805   4.060   1.452   4.305
 6936WAT     OW20806   3.076   1.419   4.175
 6936WAT    HW120807   3.152   1.403   4.232
 6936WAT    HW220808   3.001   1.386   4.224
 6937WAT     OW20809   1.454   0.958   3.022
 6937WAT    HW120810   1.426   0.978   3.112
 6937WAT    HW220811   1.378   0.980   2.968
 6938WAT     OW20812   2.121   1.621   4.546
 6938WAT    HW120813   2.057   1.638   4.615
 6938WAT    HW220814   2.157   1.535   4.567
 6939WAT     OW20815   5.555   2.882   3.092
 6939WAT    HW120816   5.602   2.874   3.175
 6939WAT    HW220817   5.515   2.796   3.079
 6940WAT     OW20818   5.716   4.824   4.004
 6940WAT    HW120819   5.622   4.834   4.019
 6940WAT    HW220820   5.725   4.827   3.909
 6941WAT     OW20821   4.375   1.855   0.620
 6941WAT    HW120822   4.453   1.845   0.675
 6941WAT    HW220823   4.314   1.905   0.673
 6942WAT     OW20824   5.645   5.789   5.983
 6942WAT    HW120825   5.632   5.847   5.909
 6942WAT    HW220826   5.680   5.708   5.945
 6943WAT     OW20827   6.413   3.010   3.759
 6943WAT    HW120828   6.413   2.974   3.670
 6943WAT    HW220829   6.457   3.094   3.751
 6944WAT     OW20830   5.607   1.973   4.679
 6944WAT    HW120831   5.535   1.952   4.621
 6944WAT    HW220832   5.566   2.016   4.754
 6945WAT     OW20833   0.277   4.025   4.684
 6945WAT    HW120834   0.291   3.970   4.761
 6945WAT    HW220835   0.342   3.994   4.620
 6946WAT     OW20836   6.685   2.310   0.829
 6946WAT    HW120837   6.672   2.403   0.815
 6946WAT    HW220838   6.644   2.268   0.752
 6947WAT     OW20839   6.524   5.026   5.818
 6947WAT    HW120840   6.596   4.967   5.839
 6947WAT    HW220841   6.504   5.009   5.726
 6948WAT     OW20842   0.572   4.558   0.226
 6948WAT    HW120843   0.478   4.541   0.238
 6948WAT    HW220844   0.583   4.563   0.132
 6949WAT     OW20845   5.014   3.510   1.535
 6949WAT    HW120846   4.990   3.433   1.587
 6949WAT    HW220847   4.932   3.542   1.499
 6950WAT     OW20848   6.341   3.861   4.156
 6950WAT    HW120849   6.348   3.956   4.166
 6950WAT    HW220850   6.249   3.842   4.173
 6951WAT     OW20851   0.473   2.336   2.305
 6951WAT    HW120852   0.497   2.261   2.359
 6951WAT    HW220853   0.460   2.407   2.368
 6952WAT     OW20854   0.419   5.460   3.359
 6952WAT    HW120855   0.360   5.475   3.286
 6952WAT    HW220856   0.453   5.547   3.382
 6953WAT     OW20857   5.954   6.275   5.547
 6953WAT    HW120858   6.041   6.261   5.511
 6953WAT    HW220859   5.969   6.304   5.637
 6954WAT     OW20860   2.016   4.805   2.069
 6954WAT    HW120861   1.922   4.824   2.079
 6954WAT    HW220862   2.027   4.719   2.108
 6955WAT     OW20863   0.726   5.120   0.797
 6955WAT    HW120864   0.794   5.158   0.741
 6955WAT    HW220865   0.668   5.193   0.818
 6956WAT     OW20866   5.310   6.493   2.534
 6956WAT    HW120867   5.249   6.425   2.505
 6956WAT    HW220868   5.340   6.534   2.453
 6957WAT     OW20869   0.805   4.151   3.153
 6957WAT    HW120870   0.900   4.138   3.149
 6957WAT    HW220871   0.769   4.076   3.106
 6958WAT     OW20872   6.066   3.574   0.523
 6958WAT    HW120873   6.080   3.510   0.593
 6958WAT    HW220874   5.998   3.632   0.557
 6959WAT     OW20875   6.349   3.788   4.872
 6959WAT    HW120876   6.436   3.791   4.832
 6959WAT    HW220877   6.334   3.696   4.891
 6960WAT     OW20878   2.915   2.916   1.939
 6960WAT    HW120879   2.961   3.000   1.947
 6960WAT    HW220880   2.985   2.851   1.938
 6961WAT     OW20881   1.086   2.952   5.674
 6961WAT    HW120882   1.025   2.887   5.709
 6961WAT    HW220883   1.070   2.951   5.579
 6962WAT     OW20884   2.167   5.710   2.627
 6962WAT    HW120885   2.260   5.708   2.648
 6962WAT    HW220886   2.141   5.618   2.627
 6963WAT     OW20887   3.879   1.751   3.355
 6963WAT    HW120888   3.846   1.724   3.441
 6963WAT    HW220889   3.898   1.669   3.309
 6964WAT     OW20890   0.738   1.905   0.143
 6964WAT    HW120891   0.818   1.908   0.090
 6964WAT    HW220892   0.743   1.984   0.198
 6965WAT     OW20893   6.712   3.115   4.650
 6965WAT    HW120894   6.754   3.047   4.597
 6965WAT    HW220895   6.710   3.192   4.594
 6966WAT     OW20896   2.827   0.451   3.658
 6966WAT    HW120897   2.799   0.541   3.669
 6966WAT    HW220898   2.885   0.453   3.582
 6967WAT     OW20899   1.272   0.249   6.359
 6967WAT    HW120900   1.281   0.163   6.400
 6967WAT    HW220901   1.302   0.236   6.269
 6968WAT     OW20902   4.633   4.995   6.617
 6968WAT    HW120903   4.599   4.914   6.579
 6968WAT    HW220904   4.561   5.057   6.609
 6969WAT     OW20905   4.789   5.881   2.335
 6969WAT    HW120906   4.763   5.810   2.276
 6969WAT    HW220907   4.816   5.837   2.416
 6970WAT     OW20908   2.402   6.098   2.480
 6970WAT    HW120909   2.382   6.187   2.451
 6970WAT    HW220910   2.497   6.091   2.472
 6971WAT     OW20911   6.062   1.097   0.778
 6971WAT    HW120912   6.090   1.029   0.717
 6971WAT    HW220913   6.010   1.051   0.843
 6972WAT     OW20914   0.769   6.389   0.418
 6972WAT    HW120915   0.768   6.451   0.491
 6972WAT    HW220916   0.819   6.314   0.452
 6973WAT     OW20917   0.892   5.306   5.054
 6973WAT    HW120918   0.983   5.279   5.050
 6973WAT    HW220919   0.865   5.315   4.962
 6974WAT     OW20920   2.070   2.299   0.928
 6974WAT    HW120921   2.004   2.359   0.894
 6974WAT    HW220922   2.150   2.323   0.882
 6975WAT     OW20923   2.751   4.563   2.484
 6975WAT    HW120924   2.735   4.654   2.460
 6975WAT    HW220925   2.828   4.538   2.435
 6976WAT     OW20926   1.569   4.017   3.839
 6976WAT    HW120927   1.643   4.050   3.789
 6976WAT    HW220928   1.593   3.927   3.862
 6977WAT     OW20929   3.701   5.573   2.380
 6977WAT    HW120930   3.630   5.627   2.345
 6977WAT    HW220931   3.682   5.566   2.473
 6978WAT     OW20932   3.449   3.940   4.529
 6978WAT    HW120933   3.520   3.891   4.488
 6978WAT    HW220934   3.405   3.878   4.586
 6979WAT     OW20935   1.915   2.738   6.199
 6979WAT    HW120936   1.882   2.713   6.113
 6979WAT    HW220937   1.845   2.715   6.260
 6980WAT     OW20938   3.335   1.115   3.758
 6980WAT    HW120939   3.357   1.114   3.665
 6980WAT    HW220940   3.420   1.108   3.802
 6981WAT     OW20941   6.676   3.394   2.799
 6981WAT    HW120942   6.622   3.456   2.848
 6981WAT    HW220943   6.682   3.317   2.855
 6982WAT     OW20944   5.957   6.596   4.613
 6982WAT    HW120945   5.916   6.619   4.530
 6982WAT    HW220946   5.908   6.519   4.643
 6983WAT     OW20947   4.372   3.585   0.634
 6983WAT    HW120948   4.293   3.581   0.687
 6983WAT    HW220949   4.443   3.565   0.695
 6984WAT     OW20950   6.320   0.439   1.064
 6984WAT    HW120951   6.303   0.533   1.054
 6984WAT    HW220952   6.247   0.408   1.118
 6985WAT     OW20953   6.686   3.852   3.584
 6985WAT    HW120954   6.616   3.906   3.548
 6985WAT    HW220955   6.641   3.778   3.625
 6986WAT     OW20956   1.439   4.330   0.735
 6986WAT    HW120957   1.372   4.394   0.758
 6986WAT    HW220958   1.426   4.315   0.641
 6987WAT     OW20959   4.315   4.268   3.251
 6987WAT    HW120960   4.261   4.287   3.175
 6987WAT    HW220961   4.404   4.259   3.215
 6988WAT     OW20962   0.145   3.773   0.811
 6988WAT    HW120963   0.186   3.822   0.739
 6988WAT    HW220964   0.197   3.693   0.817
 6989WAT     OW20965   0.743   1.934   3.016
 6989WAT    HW120966   0.786   1.878   2.951
 6989WAT    HW220967   0.810   1.998   3.039
 6990WAT     OW20968   6.112   2.347   2.712
 6990WAT    HW120969   6.201   2.367   2.683
 6990WAT    HW220970   6.060   2.421   2.683
 6991WAT     OW20971   2.402   0.388   5.941
 6991WAT    HW120972   2.355   0.470   5.957
 6991WAT    HW220973   2.368   0.356   5.858
 6992WAT     OW20974   4.303   6.659   2.863
 6992WAT    HW120975   4.268   6.608   2.790
 6992WAT    HW220976   4.392   6.681   2.837
 6993WAT     OW20977   5.024   1.676   0.009
 6993WAT    HW120978   4.936   1.650  -0.017
 6993WAT    HW220979   5.010   1.741   0.078
 6994WAT     OW20980   2.060   0.308   1.050
 6994WAT    HW120981   2.154   0.300   1.069
 6994WAT    HW220982   2.056   0.340   0.960
 6995WAT     OW20983   3.973   0.768   5.225
 6995WAT    HW120984   3.979   0.820   5.305
 6995WAT    HW220985   4.008   0.682   5.248
 6996WAT     OW20986   6.401   6.424   3.990
 6996WAT    HW120987   6.474   6.413   3.929
 6996WAT    HW220988   6.323   6.411   3.937
 6997WAT     OW20989   5.123   4.617   4.900
 6997WAT    HW120990   5.078   4.546   4.854
 6997WAT    HW220991   5.086   4.697   4.863
 6998WAT     OW20992   6.261   4.533   2.542
 6998WAT    HW120993   6.210   4.584   2.604
 6998WAT    HW220994   6.324   4.484   2.596
 6999WAT     OW20995   3.754   6.302   1.541
 6999WAT    HW120996   3.806   6.228   1.511
 6999WAT    HW220997   3.751   6.361   1.465
 7000WAT     OW20998   4.595   3.959   3.530
 7000WAT    HW120999   4.515   3.975   3.479
 7000WAT    HW221000   4.569   3.893   3.594
 7001WAT     OW21001   4.130   2.408   5.169
 7001WAT    HW121002   4.127   2.410   5.265
 7001WAT    HW221003   4.039   2.414   5.142
 7002WAT     OW21004   3.792   6.390   2.525
 7002WAT    HW121005   3.841   6.308   2.521
 7002WAT    HW221006   3.852   6.451   2.569
 7003WAT     OW21007   5.620   2.637   0.587
 7003WAT    HW121008   5.659   2.550   0.580
 7003WAT    HW221009   5.554   2.629   0.656
 7004WAT     OW21010   4.187   6.390   2.372
 7004WAT    HW121011   4.205   6.436   2.454
 7004WAT    HW221012   4.196   6.297   2.395
 7005WAT     OW21013   5.616   5.606   4.249
 7005WAT    HW121014   5.550   5.675   4.249
 7005WAT    HW221015   5.606   5.563   4.164
 7006WAT     OW21016   4.895   3.906   6.334
 7006WAT    HW121017   4.972   3.878   6.383
 7006WAT    HW221018   4.926   3.973   6.274
 7007WAT     OW21019   3.444   1.762   0.988
 7007WAT    HW121020   3.381   1.766   1.060
 7007WAT    HW221021   3.417   1.832   0.929
 7008WAT     OW21022   6.040   5.282   0.417
 7008WAT    HW121023   6.094   5.294   0.495
 7008WAT    HW221024   6.000   5.196   0.429
 7009WAT     OW21025   3.863   4.806   1.726
 7009WAT    HW121026   3.772   4.813   1.752
 7009WAT    HW221027   3.900   4.892   1.745
 7010WAT     OW21028   5.880   6.036   5.185
 7010WAT    HW121029   5.948   5.981   5.146
 7010WAT    HW221030   5.894   6.122   5.145
 7011WAT     OW21031   0.934   2.356   0.564
 7011WAT    HW121032   0.850   2.352   0.518
 7011WAT    HW221033   0.981   2.428   0.523
 7012WAT     OW21034   1.731   1.966   0.863
 7012WAT    HW121035   1.701   2.056   0.847
 7012WAT    HW221036   1.814   1.977   0.910
 7013WAT     OW21037   5.917   3.932   6.180
 7013WAT    HW121038   5.956   3.854   6.140
 7013WAT    HW221039   5.823   3.923   6.164
 7014WAT     OW21040   1.142   0.681   3.119
 7014WAT    HW121041   1.087   0.724   3.184
 7014WAT    HW221042   1.099   0.699   3.035
 7015WAT     OW21043   0.232   2.508   4.437
 7015WAT    HW121044   0.305   2.562   4.404
 7015WAT    HW221045   0.161   2.524   4.376
 7016WAT     OW21046   0.517   6.531   0.372
 7016WAT    HW121047   0.498   6.568   0.458
 7016WAT    HW221048   0.586   6.466   0.389
 7017WAT     OW21049   4.459   6.534   5.312
 7017WAT    HW121050   4.529   6.470   5.303
 7017WAT    HW221051   4.504   6.617   5.329
 7018WAT     OW21052   5.779   2.636   6.628
 7018WAT    HW121053   5.871   2.609   6.633
 7018WAT    HW221054   5.734   2.577   6.689
 7019WAT     OW21055   0.385   5.108   4.239
 7019WAT    HW121056   0.313   5.045   4.243
 7019WAT    HW221057   0.356   5.173   4.175
 7020WAT     OW21058   1.896   5.730   1.770
 7020WAT    HW121059   1.949   5.762   1.697
 7020WAT    HW221060   1.838   5.803   1.792
 7021WAT     OW21061   3.225   6.488   2.825
 7021WAT    HW121062   3.279   6.561   2.794
 7021WAT    HW221063   3.174   6.461   2.749
 7022WAT     OW21064   1.926   2.287   2.936
 7022WAT    HW121065   1.873   2.212   2.911
 7022WAT    HW221066   2.006   2.249   2.974
 7023WAT     OW21067   2.340   5.264   1.362
 7023WAT    HW121068   2.405   5.280   1.293
 7023WAT    HW221069   2.332   5.169   1.366
 7024WAT     OW21070   4.743   0.810   5.907
 7024WAT    HW121071   4.724   0.872   5.978
 7024WAT    HW221072   4.826   0.841   5.870
 7025WAT     OW21073   6.278   6.392   6.493
 7025WAT    HW121074   6.240   6.469   6.453
 7025WAT    HW221075   6.237   6.318   6.449
 7026WAT     OW21076   0.027   4.762   1.613
 7026WAT    HW121077   0.065   4.741   1.699
 7026WAT    HW221078  -0.035   4.832   1.631
 7027WAT     OW21079   5.317   5.023   1.440
 7027WAT    HW121080   5.380   5.093   1.426
 7027WAT    HW221081   5.354   4.948   1.394
 7028WAT     OW21082   1.001   4.972   2.738
 7028WAT    HW121083   0.951   4.909   2.687
 7028WAT    HW221084   0.961   4.971   2.825
 7029WAT     OW21085   5.158   1.361   1.416
 7029WAT    HW121086   5.175   1.413   1.337
 7029WAT    HW221087   5.210   1.281   1.403
 7030WAT     OW21088   4.956   3.405   6.437
 7030WAT    HW121089   4.960   3.483   6.383
 7030WAT    HW221090   4.874   3.362   6.413
 7031WAT     OW21091   5.546   2.086   1.643
 7031WAT    HW121092   5.507   2.168   1.612
 7031WAT    HW221093   5.557   2.033   1.564
 7032WAT     OW21094   3.778   3.524   1.827
 7032WAT    HW121095   3.704   3.533   1.767
 7032WAT    HW221096   3.801   3.431   1.822
 7033WAT     OW21097   0.868   0.220   5.536
 7033WAT    HW121098   0.930   0.208   5.608
 7033WAT    HW221099   0.880   0.142   5.482
 7034WAT     OW21100   2.247   3.584   3.340
 7034WAT    HW121101   2.263   3.493   3.365
 7034WAT    HW221102   2.324   3.609   3.290
 7035WAT     OW21103   2.989   4.521   2.340
 7035WAT    HW121104   3.035   4.457   2.394
 7035WAT    HW221105   2.979   4.478   2.255
 7036WAT     OW21106   0.467   3.613   3.245
 7036WAT    HW121107   0.525   3.551   3.291
 7036WAT    HW221108   0.446   3.569   3.163
 7037WAT     OW21109   1.352   4.170   3.527
 7037WAT    HW121110   1.350   4.076   3.508
 7037WAT    HW221111   1.284   4.208   3.471
 7038WAT     OW21112   2.617   0.569   3.315
 7038WAT    HW121113   2.584   0.568   3.405
 7038WAT    HW221114   2.660   0.654   3.306
 7039WAT     OW21115   3.778   1.778   4.323
 7039WAT    HW121116   3.739   1.723   4.255
 7039WAT    HW221117   3.785   1.720   4.399
 7040WAT     OW21118   0.644   6.127   3.259
 7040WAT    HW121119   0.688   6.207   3.286
 7040WAT    HW221120   0.679   6.059   3.317
 7041WAT     OW21121   4.375   6.067   6.448
 7041WAT    HW121122   4.410   5.980   6.465
 7041WAT    HW221123   4.382   6.112   6.532
 7042WAT     OW21124   0.269   4.278   5.741
 7042WAT    HW121125   0.347   4.308   5.787
 7042WAT    HW221126   0.269   4.183   5.752
 7043WAT     OW21127   5.790   5.790   6.412
 7043WAT    HW121128   5.765   5.838   6.333
 7043WAT    HW221129   5.829   5.709   6.379
 7044WAT     OW21130   5.679   4.215   5.765
 7044WAT    HW121131   5.683   4.122   5.787
 7044WAT    HW221132   5.742   4.226   5.694
 7045WAT     OW21133   5.787   1.811   4.432
 7045WAT    HW121134   5.792   1.869   4.356
 7045WAT    HW221135   5.858   1.841   4.489
 7046WAT     OW21136   5.280   0.646   1.671
 7046WAT    HW121137   5.289   0.740   1.662
 7046WAT    HW221138   5.247   0.617   1.586
 7047WAT     OW21139   4.376   2.377   0.176
 7047WAT    HW121140   4.461   2.335   0.185
 7047WAT    HW221141   4.327   2.349   0.253
 7048WAT     OW21142   5.380   2.641   6.662
 7048WAT    HW121143   5.334   2.698   6.723
 7048WAT    HW221144   5.386   2.557   6.707
 7049WAT     OW21145   6.706   1.274   2.857
 7049WAT    HW121146   6.686   1.284   2.950
 7049WAT    HW221147   6.801   1.283   2.852
 7050WAT     OW21148   5.920   4.292   2.642
 7050WAT    HW121149   5.837   4.330   2.670
 7050WAT    HW221150   5.898   4.202   2.617
 7051WAT     OW21151   0.167   0.080   3.586
 7051WAT    HW121152   0.176   0.111   3.676
 7051WAT    HW221153   0.076   0.098   3.563
 7052WAT     OW21154   0.128   0.414   2.755
 7052WAT    HW121155   0.041   0.375   2.749
 7052WAT    HW221156   0.188   0.340   2.747
 7053WAT     OW21157   2.192   2.641   5.230
 7053WAT    HW121158   2.257   2.698   5.190
 7053WAT    HW221159   2.148   2.599   5.156
 7054WAT     OW21160   4.415   3.851   3.210
 7054WAT    HW121161   4.409   3.769   3.259
 7054WAT    HW221162   4.395   3.919   3.274
 7055WAT     OW21163   0.968   0.842   3.272
 7055WAT    HW121164   0.983   0.839   3.367
 7055WAT    HW221165   1.020   0.917   3.242
 7056WAT     OW21166   4.248   3.710   5.162
 7056WAT    HW121167   4.272   3.640   5.223
 7056WAT    HW221168   4.309   3.780   5.181
 7057WAT     OW21169   1.643   3.542   0.849
 7057WAT    HW121170   1.688   3.481   0.791
 7057WAT    HW221171   1.572   3.578   0.796
 7058WAT     OW21172   4.060   0.471   4.225
 7058WAT    HW121173   4.059   0.453   4.131
 7058WAT    HW221174   4.009   0.552   4.235
 7059WAT     OW21175   5.103   2.394   3.338
 7059WAT    HW121176   5.173   2.340   3.301
 7059WAT    HW221177   5.126   2.483   3.314
 7060WAT     OW21178   3.435   0.048   3.661
 7060WAT    HW121179   3.414  -0.034   3.616
 7060WAT    HW221180   3.525   0.067   3.636
 7061WAT     OW21181   1.319   2.557   6.598
 7061WAT    HW121182   1.326   2.652   6.602
 7061WAT    HW221183   1.239   2.540   6.548
 7062WAT     OW21184   3.813   5.315   0.998
 7062WAT    HW121185   3.873   5.360   0.939
 7062WAT    HW221186   3.733   5.304   0.946
 7063WAT     OW21187   1.076   2.655   6.121
 7063WAT    HW121188   1.118   2.577   6.158
 7063WAT    HW221189   0.997   2.667   6.174
 7064WAT     OW21190   2.239   6.248   6.134
 7064WAT    HW121191   2.211   6.331   6.173
 7064WAT    HW221192   2.264   6.194   6.208
 7065WAT     OW21193   3.842   0.052   1.387
 7065WAT    HW121194   3.878   0.139   1.404
 7065WAT    HW221195   3.793   0.030   1.467
 7066WAT     OW21196   0.552   5.410   4.704
 7066WAT    HW121197   0.511   5.490   4.671
 7066WAT    HW221198   0.570   5.358   4.627
 7067WAT     OW21199   3.699   3.131   2.345
 7067WAT    HW121200   3.734   3.043   2.359
 7067WAT    HW221201   3.664   3.129   2.256
 7068WAT     OW21202   1.122   6.429   3.564
 7068WAT    HW121203   1.091   6.348   3.605
 7068WAT    HW221204   1.156   6.481   3.637
 7069WAT     OW21205   6.034   4.384   4.548
 7069WAT    HW121206   6.053   4.291   4.535
 7069WAT    HW221207   5.960   4.385   4.609
 7070WAT     OW21208   5.691   3.660   1.476
 7070WAT    HW121209   5.682   3.742   1.428
 7070WAT    HW221210   5.601   3.630   1.489
 7071WAT     OW21211   0.778   4.212   5.208
 7071WAT    HW121212   0.743   4.211   5.119
 7071WAT    HW221213   0.707   4.248   5.262
 7072WAT     OW21214   3.476   3.089   6.041
 7072WAT    HW121215   3.534   3.160   6.068
 7072WAT    HW221216   3.530   3.035   5.983
 7073WAT     OW21217   2.016   2.673   0.689
 7073WAT    HW121218   2.055   2.592   0.655
 7073WAT    HW221219   1.923   2.665   0.668
 7074WAT     OW21220   5.042   0.949   1.647
 7074WAT    HW121221   5.011   0.861   1.624
 7074WAT    HW221222   5.134   0.949   1.622
 7075WAT     OW21223   0.722   6.428   2.462
 7075WAT    HW121224   0.708   6.416   2.368
 7075WAT    HW221225   0.636   6.416   2.501
 7076WAT     OW21226   3.180   4.190   4.593
 7076WAT    HW121227   3.265   4.190   4.547
 7076WAT    HW221228   3.203   4.202   4.685
 7077WAT     OW21229   4.586   6.151   3.663
 7077WAT    HW121230   4.542   6.225   3.620
 7077WAT    HW221231   4.678   6.174   3.663
 7078WAT     OW21232   0.025   0.303   5.477
 7078WAT    HW121233   0.057   0.393   5.471
 7078WAT    HW221234  -0.050   0.301   5.417
 7079WAT     OW21235   4.134   2.518   1.017
 7079WAT    HW121236   4.081   2.523   1.096
 7079WAT    HW221237   4.094   2.582   0.957
 7080WAT     OW21238   3.769   2.193   1.142
 7080WAT    HW121239   3.822   2.149   1.209
 7080WAT    HW221240   3.690   2.221   1.188
 7081WAT     OW21241   6.524   2.048   4.339
 7081WAT    HW121242   6.479   2.096   4.409
 7081WAT    HW221243   6.488   1.959   4.345
 7082WAT     OW21244   6.501   5.404   5.320
 7082WAT    HW121245   6.458   5.359   5.248
 7082WAT    HW221246   6.514   5.494   5.288
 7083WAT     OW21247   2.540   0.145   1.716
 7083WAT    HW121248   2.635   0.159   1.710
 7083WAT    HW221249   2.521   0.148   1.809
 7084WAT     OW21250   6.109   2.532   6.046
 7084WAT    HW121251   6.077   2.487   5.969
 7084WAT    HW221252   6.162   2.604   6.012
 7085WAT     OW21253   1.438   0.622   3.819
 7085WAT    HW121254   1.506   0.614   3.886
 7085WAT    HW221255   1.375   0.553   3.841
 7086WAT     OW21256   4.243   3.893   0.167
 7086WAT    HW121257   4.157   3.931   0.184
 7086WAT    HW221258   4.304   3.948   0.217
 7087WAT     OW21259   6.429   6.505   1.411
 7087WAT    HW121260   6.479   6.438   1.458
 7087WAT    HW221261   6.490   6.578   1.402
 7088WAT     OW21262   5.565   5.640   3.659
 7088WAT    HW121263   5.538   5.633   3.750
 7088WAT    HW221264   5.602   5.554   3.639
 7089WAT     OW21265   3.792   3.389   0.530
 7089WAT    HW121266   3.745   3.463   0.491
 7089WAT    HW221267   3.862   3.370   0.467
 7090WAT     OW21268   3.721   4.678   4.773
 7090WAT    HW121269   3.628   4.692   4.791
 7090WAT    HW221270   3.744   4.744   4.708
 7091WAT     OW21271   6.287   0.766   0.755
 7091WAT    HW121272   6.305   0.681   0.715
 7091WAT    HW221273   6.212   0.800   0.707
 7092WAT     OW21274   6.324   2.293   5.703
 7092WAT    HW121275   6.321   2.245   5.785
 7092WAT    HW221276   6.323   2.385   5.728
 7093WAT     OW21277   4.267   5.441   2.668
 7093WAT    HW121278   4.289   5.354   2.636
 7093WAT    HW221279   4.172   5.440   2.677
 7094WAT     OW21280   1.781   6.083   2.954
 7094WAT    HW121281   1.767   6.024   3.028
 7094WAT    HW221282   1.740   6.039   2.880
 7095WAT     OW21283   2.339   4.531   2.594
 7095WAT    HW121284   2.334   4.612   2.646
 7095WAT    HW221285   2.257   4.485   2.613
 7096WAT     OW21286   1.661   0.561   3.312
 7096WAT    HW121287   1.590   0.500   3.293
 7096WAT    HW221288   1.717   0.557   3.235
 7097WAT     OW21289   1.987   1.401   4.897
 7097WAT    HW121290   1.950   1.465   4.837
 7097WAT    HW221291   1.990   1.320   4.847
 7098WAT     OW21292   5.842   6.204   0.093
 7098WAT    HW121293   5.834   6.173   0.003
 7098WAT    HW221294   5.898   6.140   0.136
 7099WAT     OW21295   5.477   3.152   0.583
 7099WAT    HW121296   5.465   3.242   0.551
 7099WAT    HW221297   5.563   3.127   0.552
 7100WAT     OW21298   5.941   2.660   1.378
 7100WAT    HW121299   5.858   2.691   1.416
 7100WAT    HW221300   5.965   2.585   1.432
 7101WAT     OW21301   0.189   3.365   3.816
 7101WAT    HW121302   0.224   3.428   3.753
 7101WAT    HW221303   0.151   3.296   3.762
 7102WAT     OW21304   2.802   4.937   3.945
 7102WAT    HW121305   2.761   4.933   4.032
 7102WAT    HW221306   2.870   4.870   3.948
 7103WAT     OW21307   0.864   4.573   3.634
 7103WAT    HW121308   0.886   4.663   3.609
 7103WAT    HW221309   0.848   4.576   3.728
 7104WAT     OW21310   3.089   5.804   1.010
 7104WAT    HW121311   3.112   5.783   0.920
 7104WAT    HW221312   3.019   5.868   1.003
 7105WAT     OW21313   6.062   0.520   1.441
 7105WAT    HW121314   6.124   0.583   1.478
 7105WAT    HW221315   6.053   0.453   1.509
 7106WAT     OW21316   3.800   2.163   0.398
 7106WAT    HW121317   3.770   2.219   0.470
 7106WAT    HW221318   3.720   2.140   0.350
 7107WAT     OW21319   3.262   3.643   6.064
 7107WAT    HW121320   3.266   3.634   5.969
 7107WAT    HW221321   3.213   3.567   6.094
 7108WAT     OW21322   5.861   3.816   2.679
 7108WAT    HW121323   5.862   3.899   2.631
 7108WAT    HW221324   5.851   3.841   2.771
 7109WAT     OW21325   4.271   0.245   0.748
 7109WAT    HW121326   4.319   0.274   0.670
 7109WAT    HW221327   4.203   0.311   0.759
 7110WAT     OW21328   2.112   5.206   4.329
 7110WAT    HW121329   2.072   5.196   4.416
 7110WAT    HW221330   2.195   5.159   4.335
 7111WAT     OW21331   5.894   5.554   6.334
 7111WAT    HW121332   5.973   5.538   6.281
 7111WAT    HW221333   5.858   5.467   6.350
 7112WAT     OW21334   3.653   6.663   4.469
 7112WAT    HW121335   3.649   6.719   4.546
 7112WAT    HW221336   3.605   6.711   4.402
 7113WAT     OW21337   5.336   5.320   5.660
 7113WAT    HW121338   5.361   5.273   5.740
 7113WAT    HW221339   5.415   5.321   5.607
 7114WAT     OW21340   0.148   1.512   0.511
 7114WAT    HW121341   0.100   1.471   0.439
 7114WAT    HW221342   0.239   1.492   0.493
 7115WAT     OW21343   4.732   0.396   2.187
 7115WAT    HW121344   4.678   0.333   2.140
 7115WAT    HW221345   4.752   0.464   2.123
 7116WAT     OW21346   5.964   0.448   2.365
 7116WAT    HW121347   6.027   0.509   2.405
 7116WAT    HW221348   5.878   0.488   2.382
 7117WAT     OW21349   0.263   6.589   3.449
 7117WAT    HW121350   0.312   6.532   3.509
 7117WAT    HW221351   0.238   6.664   3.502
 7118WAT     OW21352   3.376   0.415   6.266
 7118WAT    HW121353   3.324   0.341   6.235
 7118WAT    HW221354   3.360   0.417   6.360
 7119WAT     OW21355   1.561   1.160   6.408
 7119WAT    HW121356   1.552   1.066   6.393
 7119WAT    HW221357   1.499   1.180   6.478
 7120WAT     OW21358   2.085   6.261   4.671
 7120WAT    HW121359   2.093   6.213   4.754
 7120WAT    HW221360   2.085   6.353   4.697
 7121WAT     OW21361   5.871   2.464   4.975
 7121WAT    HW121362   5.831   2.469   5.061
 7121WAT    HW221363   5.838   2.382   4.937
 7122WAT     OW21364   2.271   4.754   6.029
 7122WAT    HW121365   2.253   4.660   6.019
 7122WAT    HW221366   2.256   4.790   5.942
 7123WAT     OW21367   3.855   5.053   2.615
 7123WAT    HW121368   3.811   5.091   2.539
 7123WAT    HW221369   3.786   5.047   2.681
 7124WAT     OW21370   6.501   2.279   6.043
 7124WAT    HW121371   6.442   2.229   5.986
 7124WAT    HW221372   6.442   2.329   6.099
 7125WAT     OW21373   2.279   3.713   1.606
 7125WAT    HW121374   2.329   3.706   1.525
 7125WAT    HW221375   2.189   3.726   1.577
 7126WAT     OW21376   4.305   1.741   3.945
 7126WAT    HW121377   4.362   1.755   4.021
 7126WAT    HW221378   4.365   1.733   3.871
 7127WAT     OW21379   5.449   6.375   4.236
 7127WAT    HW121380   5.502   6.369   4.316
 7127WAT    HW221381   5.382   6.440   4.257
 7128WAT     OW21382   4.468   5.964   4.999
 7128WAT    HW121383   4.452   5.907   5.075
 7128WAT    HW221384   4.414   5.927   4.930
 7129WAT     OW21385   0.106   1.854   5.535
 7129WAT    HW121386   0.122   1.760   5.526
 7129WAT    HW221387   0.154   1.879   5.613
 7130WAT     OW21388   2.555   2.286   2.190
 7130WAT    HW121389   2.552   2.333   2.107
 7130WAT    HW221390   2.541   2.353   2.257
 7131WAT     OW21391   0.089   4.780   4.511
 7131WAT    HW121392  -0.004   4.759   4.516
 7131WAT    HW221393   0.133   4.700   4.541
 7132WAT     OW21394   2.371   1.784   3.615
 7132WAT    HW121395   2.446   1.838   3.591
 7132WAT    HW221396   2.403   1.727   3.684
 7133WAT     OW21397   2.265   1.040   3.596
 7133WAT    HW121398   2.306   0.975   3.540
 7133WAT    HW221399   2.247   0.993   3.678
 7134WAT     OW21400   2.356   3.525   2.255
 7134WAT    HW121401   2.344   3.470   2.333
 7134WAT    HW221402   2.451   3.534   2.247
 7135WAT     OW21403   4.483   3.763   2.669
 7135WAT    HW121404   4.535   3.700   2.719
 7135WAT    HW221405   4.543   3.793   2.600
 7136WAT     OW21406   1.060   5.221   0.143
 7136WAT    HW121407   0.989   5.175   0.098
 7136WAT    HW221408   1.107   5.153   0.190
 7137WAT     OW21409   3.232   6.011   2.072
 7137WAT    HW121410   3.177   5.932   2.068
 7137WAT    HW221411   3.277   6.012   1.988
 7138WAT     OW21412   3.478   4.469   6.326
 7138WAT    HW121413   3.504   4.500   6.413
 7138WAT    HW221414   3.497   4.375   6.328
 7139WAT     OW21415   1.992   0.122   0.305
 7139WAT    HW121416   1.994   0.026   0.300
 7139WAT    HW221417   1.902   0.145   0.283
 7140WAT     OW21418   1.129   4.378   5.961
 7140WAT    HW121419   1.141   4.352   5.869
 7140WAT    HW221420   1.039   4.410   5.964
 7141WAT     OW21421   1.608   4.380   1.538
 7141WAT    HW121422   1.642   4.291   1.549
 7141WAT    HW221423   1.522   4.378   1.582
 7142WAT     OW21424   1.264   4.513   0.861
 7142WAT    HW121425   1.174   4.490   0.884
 7142WAT    HW221426   1.304   4.538   0.944
 7143WAT     OW21427   2.846   5.709   1.949
 7143WAT    HW121428   2.849   5.620   1.985
 7143WAT    HW221429   2.759   5.741   1.971
 7144WAT     OW21430   4.340   5.442   6.255
 7144WAT    HW121431   4.258   5.438   6.207
 7144WAT    HW221432   4.349   5.355   6.294
 7145WAT     OW21433   1.567   3.297   6.014
 7145WAT    HW121434   1.552   3.221   5.959
 7145WAT    HW221435   1.649   3.280   6.059
 7146WAT     OW21436   6.089   0.925   0.336
 7146WAT    HW121437   6.146   0.973   0.276
 7146WAT    HW221438   6.014   0.899   0.282
 7147WAT     OW21439   4.928   1.020   3.739
 7147WAT    HW121440   4.971   0.995   3.821
 7147WAT    HW221441   4.856   1.077   3.767
 7148WAT     OW21442   3.699   3.627   1.305
 7148WAT    HW121443   3.782   3.664   1.276
 7148WAT    HW221444   3.711   3.532   1.295
 7149WAT     OW21445   2.930   1.453   1.707
 7149WAT    HW121446   2.945   1.540   1.743
 7149WAT    HW221447   2.888   1.404   1.777
 7150WAT     OW21448   5.067   6.312   0.437
 7150WAT    HW121449   5.120   6.236   0.457
 7150WAT    HW221450   4.976   6.281   0.445
 7151WAT     OW21451   4.765   6.139   6.255
 7151WAT    HW121452   4.677   6.131   6.217
 7151WAT    HW221453   4.772   6.232   6.279
 7152WAT     OW21454   4.477   0.198   1.613
 7152WAT    HW121455   4.409   0.206   1.680
 7152WAT    HW221456   4.453   0.262   1.546
 7153WAT     OW21457   2.305   0.773   2.809
 7153WAT    HW121458   2.249   0.824   2.750
 7153WAT    HW221459   2.314   0.827   2.887
 7154WAT     OW21460   0.645   5.275   2.949
 7154WAT    HW121461   0.664   5.197   3.000
 7154WAT    HW221462   0.554   5.297   2.971
 7155WAT     OW21463   3.365   4.317   2.578
 7155WAT    HW121464   3.359   4.276   2.664
 7155WAT    HW221465   3.275   4.341   2.556
 7156WAT     OW21466   5.918   5.431   3.058
 7156WAT    HW121467   5.932   5.383   2.977
 7156WAT    HW221468   5.959   5.377   3.126
 7157WAT     OW21469   5.868   6.469   0.751
 7157WAT    HW121470   5.946   6.480   0.805
 7157WAT    HW221471   5.852   6.375   0.750
 7158WAT     OW21472   3.674   1.603   0.182
 7158WAT    HW121473   3.614   1.555   0.125
 7158WAT    HW221474   3.682   1.689   0.141
 7159WAT     OW21475   4.174   5.499   1.181
 7159WAT    HW121476   4.167   5.593   1.167
 7159WAT    HW221477   4.200   5.463   1.096
 7160WAT     OW21478   6.004   5.644   1.621
 7160WAT    HW121479   6.042   5.715   1.673
 7160WAT    HW221480   5.927   5.617   1.671
 7161WAT     OW21481   0.670   4.414   1.130
 7161WAT    HW121482   0.665   4.465   1.049
 7161WAT    HW221483   0.623   4.333   1.109
 7162WAT     OW21484   5.127   6.302   5.730
 7162WAT    HW121485   5.128   6.391   5.766
 7162WAT    HW221486   5.093   6.247   5.800
 7163WAT     OW21487   6.665   0.328   2.050
 7163WAT    HW121488   6.680   0.234   2.041
 7163WAT    HW221489   6.653   0.341   2.144
 7164WAT     OW21490   3.798   2.334   3.436
 7164WAT    HW121491   3.880   2.365   3.473
 7164WAT    HW221492   3.792   2.242   3.463
 7165WAT     OW21493   4.884   5.805   0.067
 7165WAT    HW121494   4.892   5.839   0.156
 7165WAT    HW221495   4.790   5.787   0.057
 7166WAT     OW21496   2.360   0.825   4.235
 7166WAT    HW121497   2.397   0.752   4.284
 7166WAT    HW221498   2.336   0.788   4.150
 7167WAT     OW21499   2.996   2.474   5.509
 7167WAT    HW121500   2.974   2.382   5.522
 7167WAT    HW221501   3.004   2.484   5.414
 7168WAT     OW21502   4.548   4.395   3.711
 7168WAT    HW121503   4.605   4.471   3.711
 7168WAT    HW221504   4.590   4.333   3.653
 7169WAT     OW21505   2.224   1.462   5.965
 7169WAT    HW121506   2.266   1.439   6.048
 7169WAT    HW221507   2.254   1.395   5.903
 7170WAT     OW21508   4.572   0.859   4.285
 7170WAT    HW121509   4.509   0.837   4.217
 7170WAT    HW221510   4.522   0.859   4.366
 7171WAT     OW21511   5.065   1.144   3.179
 7171WAT    HW121512   5.150   1.104   3.197
 7171WAT    HW221513   5.041   1.112   3.092
 7172WAT     OW21514   4.660   5.076   5.068
 7172WAT    HW121515   4.677   5.164   5.035
 7172WAT    HW221516   4.620   5.089   5.154
 7173WAT     OW21517   4.780   0.757   2.248
 7173WAT    HW121518   4.875   0.768   2.255
 7173WAT    HW221519   4.752   0.739   2.338
 7174WAT     OW21520   4.087   1.291   0.239
 7174WAT    HW121521   4.168   1.329   0.204
 7174WAT    HW221522   4.031   1.367   0.257
 7175WAT     OW21523   4.096   6.372   1.151
 7175WAT    HW121524   4.146   6.445   1.189
 7175WAT    HW221525   4.022   6.414   1.108
 7176WAT     OW21526   1.338   4.586   1.124
 7176WAT    HW121527   1.296   4.514   1.171
 7176WAT    HW221528   1.420   4.601   1.171
 7177WAT     OW21529   2.956   4.983   4.950
 7177WAT    HW121530   2.865   4.985   4.980
 7177WAT    HW221531   2.958   5.041   4.874
 7178WAT     OW21532   0.696   2.341   0.426
 7178WAT    HW121533   0.646   2.422   0.426
 7178WAT    HW221534   0.641   2.278   0.472
 7179WAT     OW21535   2.490   5.933   6.294
 7179WAT    HW121536   2.482   5.887   6.377
 7179WAT    HW221537   2.426   6.004   6.299
 7180WAT     OW21538   2.977   1.495   2.064
 7180WAT    HW121539   3.038   1.430   2.100
 7180WAT    HW221540   2.910   1.443   2.021
 7181WAT     OW21541   5.261   6.179   4.320
 7181WAT    HW121542   5.318   6.244   4.278
 7181WAT    HW221543   5.320   6.109   4.346
 7182WAT     OW21544   4.721   4.674   4.705
 7182WAT    HW121545   4.669   4.752   4.725
 7182WAT    HW221546   4.750   4.643   4.791
 7183WAT     OW21547   3.797   2.197   5.805
 7183WAT    HW121548   3.788   2.239   5.720
 7183WAT    HW221549   3.778   2.266   5.868
 7184WAT     OW21550   1.236   4.847   2.821
 7184WAT    HW121551   1.148   4.879   2.802
 7184WAT    HW221552   1.224   4.756   2.848
 7185WAT     OW21553   6.005   2.292   0.205
 7185WAT    HW121554   6.099   2.310   0.196
 7185WAT    HW221555   5.995   2.257   0.293
 7186WAT     OW21556   5.655   3.817   3.465
 7186WAT    HW121557   5.601   3.830   3.543
 7186WAT    HW221558   5.629   3.732   3.431
 7187WAT     OW21559   0.854   3.941   5.210
 7187WAT    HW121560   0.771   3.893   5.204
 7187WAT    HW221561   0.828   4.033   5.216
 7188WAT     OW21562   1.306   0.563   5.518
 7188WAT    HW121563   1.279   0.471   5.506
 7188WAT    HW221564   1.339   0.567   5.608
 7189WAT     OW21565   1.181   3.661   4.608
 7189WAT    HW121566   1.101   3.700   4.573
 7189WAT    HW221567   1.246   3.730   4.601
 7190WAT     OW21568   6.150   1.520   0.284
 7190WAT    HW121569   6.207   1.503   0.359
 7190WAT    HW221570   6.154   1.615   0.272
 7191WAT     OW21571   1.615   2.764   1.151
 7191WAT    HW121572   1.575   2.711   1.219
 7191WAT    HW221573   1.605   2.855   1.181
 7192WAT     OW21574   4.406   3.133   2.361
 7192WAT    HW121575   4.495   3.163   2.342
 7192WAT    HW221576   4.362   3.209   2.397
 7193WAT     OW21577   1.635   2.942   2.388
 7193WAT    HW121578   1.674   2.902   2.311
 7193WAT    HW221579   1.690   2.912   2.461
 7194WAT     OW21580   4.444   2.997   3.309
 7194WAT    HW121581   4.382   3.070   3.314
 7194WAT    HW221582   4.440   2.957   3.396
 7195WAT     OW21583   0.078   2.913   2.263
 7195WAT    HW121584   0.026   2.843   2.223
 7195WAT    HW221585   0.101   2.879   2.350
 7196WAT     OW21586   3.148   3.258   6.447
 7196WAT    HW121587   3.157   3.173   6.490
 7196WAT    HW221588   3.193   3.247   6.363
 7197WAT     OW21589   2.776   1.946   4.497
 7197WAT    HW121590   2.693   1.900   4.485
 7197WAT    HW221591   2.843   1.883   4.468
 7198WAT     OW21592   6.081   3.676   5.802
 7198WAT    HW121593   6.110   3.590   5.769
 7198WAT    HW221594   6.131   3.739   5.751
 7199WAT     OW21595   6.340   0.724   5.324
 7199WAT    HW121596   6.286   0.663   5.274
 7199WAT    HW221597   6.279   0.790   5.357
 7200WAT     OW21598   0.514   4.487   1.619
 7200WAT    HW121599   0.494   4.394   1.618
 7200WAT    HW221600   0.544   4.507   1.531
 7201WAT     OW21601   4.320   3.156   5.629
 7201WAT    HW121602   4.317   3.136   5.723
 7201WAT    HW221603   4.410   3.135   5.603
 7202WAT     OW21604   6.098   2.093   5.441
 7202WAT    HW121605   6.097   2.093   5.346
 7202WAT    HW221606   6.021   2.043   5.466
 7203WAT     OW21607   3.800   4.876   4.598
 7203WAT    HW121608   3.778   4.890   4.506
 7203WAT    HW221609   3.757   4.948   4.644
 7204WAT     OW21610   1.470   4.203   3.107
 7204WAT    HW121611   1.448   4.123   3.155
 7204WAT    HW221612   1.494   4.173   3.019
 7205WAT     OW21613   2.505   1.411   4.426
 7205WAT    HW121614   2.556   1.472   4.480
 7205WAT    HW221615   2.482   1.340   4.486
 7206WAT     OW21616   2.928   3.627   0.720
 7206WAT    HW121617   3.020   3.603   0.720
 7206WAT    HW221618   2.921   3.699   0.783
 7207WAT     OW21619   2.013   1.602   1.602
 7207WAT    HW121620   2.099   1.644   1.592
 7207WAT    HW221621   1.957   1.669   1.639
 7208WAT     OW21622   4.573   4.787   1.221
 7208WAT    HW121623   4.652   4.835   1.247
 7208WAT    HW221624   4.601   4.729   1.151
 7209WAT     OW21625   1.506   5.711   4.935
 7209WAT    HW121626   1.443   5.775   4.968
 7209WAT    HW221627   1.469   5.682   4.851
 7210WAT     OW21628   3.365   4.638   0.888
 7210WAT    HW121629   3.315   4.559   0.909
 7210WAT    HW221630   3.343   4.656   0.797
 7211WAT     OW21631   1.653   4.672   3.032
 7211WAT    HW121632   1.725   4.693   3.092
 7211WAT    HW221633   1.608   4.599   3.074
 7212WAT     OW21634   1.062   5.109   2.498
 7212WAT    HW121635   1.044   5.073   2.585
 7212WAT    HW221636   1.128   5.050   2.461
 7213WAT     OW21637   5.506   0.461   3.578
 7213WAT    HW121638   5.475   0.479   3.489
 7213WAT    HW221639   5.432   0.485   3.635
 7214WAT     OW21640   5.311   1.028   3.208
 7214WAT    HW121641   5.343   0.984   3.130
 7214WAT    HW221642   5.388   1.040   3.263
 7215WAT     OW21643   1.544   6.247   5.899
 7215WAT    HW121644   1.478   6.179   5.885
 7215WAT    HW221645   1.552   6.253   5.994
 7216WAT     OW21646   2.300   5.524   3.571
 7216WAT    HW121647   2.319   5.525   3.664
 7216WAT    HW221648   2.386   5.527   3.529
 7217WAT     OW21649   5.446   1.933   3.733
 7217WAT    HW121650   5.507   1.874   3.777
 7217WAT    HW221651   5.359   1.907   3.766
 7218WAT     OW21652   0.555   3.320   1.572
 7218WAT    HW121653   0.567   3.330   1.477
 7218WAT    HW221654   0.495   3.390   1.597
 7219WAT     OW21655   3.238   2.326   5.166
 7219WAT    HW121656   3.164   2.375   5.200
 7219WAT    HW221657   3.207   2.235   5.162
 7220WAT     OW21658   6.289   1.421   6.558
 7220WAT    HW121659   6.234   1.361   6.507
 7220WAT    HW221660   6.363   1.441   6.501
 7221WAT     OW21661   1.929   3.239   3.603
 7221WAT    HW121662   1.932   3.178   3.676
 7221WAT    HW221663   1.878   3.313   3.636
 7222WAT     OW21664   5.315   5.082   4.594
 7222WAT    HW121665   5.283   4.993   4.603
 7222WAT    HW221666   5.247   5.137   4.633
 7223WAT     OW21667   0.616   3.856   4.057
 7223WAT    HW121668   0.679   3.848   4.129
 7223WAT    HW221669   0.649   3.928   4.004
 7224WAT     OW21670   5.967   0.614   5.511
 7224WAT    HW121671   6.036   0.556   5.541
 7224WAT    HW221672   5.947   0.584   5.422
 7225WAT     OW21673   4.007   1.027   5.712
 7225WAT    HW121674   4.014   0.964   5.784
 7225WAT    HW221675   4.003   1.112   5.756
 7226WAT     OW21676   6.180   1.162   4.607
 7226WAT    HW121677   6.256   1.129   4.561
 7226WAT    HW221678   6.205   1.250   4.634
 7227WAT     OW21679   3.568   1.550   5.266
 7227WAT    HW121680   3.549   1.481   5.329
 7227WAT    HW221681   3.523   1.628   5.301
 7228WAT     OW21682   4.459   1.088   1.085
 7228WAT    HW121683   4.395   1.062   1.151
 7228WAT    HW221684   4.427   1.172   1.052
 7229WAT     OW21685   3.593   5.825   0.510
 7229WAT    HW121686   3.587   5.906   0.560
 7229WAT    HW221687   3.684   5.822   0.479
 7230WAT     OW21688   4.319   5.901   4.770
 7230WAT    HW121689   4.230   5.935   4.770
 7230WAT    HW221690   4.367   5.959   4.712
 7231WAT     OW21691   1.991   3.715   6.662
 7231WAT    HW121692   2.017   3.660   6.736
 7231WAT    HW221693   2.005   3.659   6.585
 7232WAT     OW21694   3.442   2.600   1.440
 7232WAT    HW121695   3.485   2.548   1.508
 7232WAT    HW221696   3.351   2.570   1.440
 7233WAT     OW21697   4.508   2.955   3.973
 7233WAT    HW121698   4.482   2.881   3.918
 7233WAT    HW221699   4.580   2.996   3.925
 7234WAT     OW21700   5.380   2.441   0.128
 7234WAT    HW121701   5.306   2.389   0.158
 7234WAT    HW221702   5.393   2.507   0.196
 7235WAT     OW21703   1.404   3.279   5.566
 7235WAT    HW121704   1.338   3.346   5.583
 7235WAT    HW221705   1.357   3.209   5.521
 7236WAT     OW21706   4.039   4.007   0.524
 7236WAT    HW121707   4.041   3.911   0.518
 7236WAT    HW221708   4.045   4.026   0.618
 7237WAT     OW21709   1.154   3.305   5.314
 7237WAT    HW121710   1.136   3.398   5.324
 7237WAT    HW221711   1.223   3.300   5.249
 7238WAT     OW21712   0.580   1.545   5.593
 7238WAT    HW121713   0.606   1.565   5.504
 7238WAT    HW221714   0.556   1.629   5.631
 7239WAT     OW21715   6.564   4.659   1.936
 7239WAT    HW121716   6.529   4.588   1.882
 7239WAT    HW221717   6.489   4.718   1.950
 7240WAT     OW21718   5.461   4.652   6.193
 7240WAT    HW121719   5.501   4.724   6.145
 7240WAT    HW221720   5.418   4.599   6.126
 7241WAT     OW21721   0.479   4.212   1.618
 7241WAT    HW121722   0.509   4.130   1.579
 7241WAT    HW221723   0.384   4.208   1.610
 7242WAT     OW21724   3.510   4.947   5.354
 7242WAT    HW121725   3.459   4.934   5.273
 7242WAT    HW221726   3.561   4.867   5.364
 7243WAT     OW21727   3.594   4.101   2.927
 7243WAT    HW121728   3.683   4.087   2.961
 7243WAT    HW221729   3.585   4.196   2.922
 7244WAT     OW21730   5.343   6.182   2.296
 7244WAT    HW121731   5.304   6.152   2.214
 7244WAT    HW221732   5.270   6.222   2.344
 7245WAT     OW21733   0.865   3.160   5.111
 7245WAT    HW121734   0.934   3.196   5.054
 7245WAT    HW221735   0.861   3.067   5.089
 7246WAT     OW21736   0.046   4.619   5.518
 7246WAT    HW121737   0.061   4.579   5.433
 7246WAT    HW221738   0.040   4.545   5.579
 7247WAT     OW21739   2.993   3.196   1.239
 7247WAT    HW121740   2.983   3.122   1.299
 7247WAT    HW221741   3.026   3.157   1.158
 7248WAT     OW21742   0.648   5.688   5.537
 7248WAT    HW121743   0.661   5.598   5.508
 7248WAT    HW221744   0.565   5.714   5.496
 7249WAT     OW21745   2.546   0.508   4.860
 7249WAT    HW121746   2.529   0.416   4.844
 7249WAT    HW221747   2.460   0.550   4.856
 7250WAT     OW21748   4.058   0.414   3.958
 7250WAT    HW121749   4.057   0.322   3.931
 7250WAT    HW221750   4.115   0.457   3.894
 7251WAT     OW21751   4.398   1.338   6.154
 7251WAT    HW121752   4.468   1.364   6.214
 7251WAT    HW221753   4.441   1.326   6.070
 7252WAT     OW21754   1.335   2.018   3.670
 7252WAT    HW121755   1.305   1.964   3.597
 7252WAT    HW221756   1.431   2.009   3.669
 7253WAT     OW21757   1.753   2.618   4.439
 7253WAT    HW121758   1.681   2.607   4.377
 7253WAT    HW221759   1.830   2.636   4.385
 7254WAT     OW21760   5.839   5.138   5.850
 7254WAT    HW121761   5.886   5.087   5.916
 7254WAT    HW221762   5.862   5.229   5.871
 7255WAT     OW21763   1.745   5.999   3.900
 7255WAT    HW121764   1.754   6.063   3.829
 7255WAT    HW221765   1.748   6.051   3.980
 7256WAT     OW21766   5.718   5.797   3.490
 7256WAT    HW121767   5.666   5.740   3.547
 7256WAT    HW221768   5.746   5.869   3.546
 7257WAT     OW21769   5.134   3.102   4.256
 7257WAT    HW121770   5.098   3.015   4.275
 7257WAT    HW221771   5.225   3.098   4.285
 7258WAT     OW21772   6.705   2.007   3.116
 7258WAT    HW121773   6.787   2.055   3.131
 7258WAT    HW221774   6.676   1.981   3.203
 7259WAT     OW21775   6.095   1.855   1.721
 7259WAT    HW121776   6.083   1.858   1.626
 7259WAT    HW221777   6.171   1.798   1.734
 7260WAT     OW21778   0.459   1.152   6.177
 7260WAT    HW121779   0.547   1.185   6.192
 7260WAT    HW221780   0.421   1.143   6.264
 7261WAT     OW21781   6.423   3.204   4.556
 7261WAT    HW121782   6.412   3.126   4.501
 7261WAT    HW221783   6.510   3.236   4.534
 7262WAT     OW21784   0.999   6.679   0.451
 7262WAT    HW121785   0.961   6.617   0.513
 7262WAT    HW221786   0.924   6.732   0.422
 7263WAT     OW21787   1.406   2.253   1.361
 7263WAT    HW121788   1.494   2.216   1.358
 7263WAT    HW221789   1.385   2.256   1.454
 7264WAT     OW21790   1.925   0.886   1.029
 7264WAT    HW121791   1.900   0.868   0.938
 7264WAT    HW221792   1.951   0.801   1.064
 7265WAT     OW21793   5.351   3.261   0.265
 7265WAT    HW121794   5.413   3.263   0.192
 7265WAT    HW221795   5.395   3.309   0.335
 7266WAT     OW21796   3.976   5.372   6.638
 7266WAT    HW121797   4.053   5.428   6.644
 7266WAT    HW221798   3.977   5.320   6.718
 7267WAT     OW21799   3.071   0.366   6.066
 7267WAT    HW121800   3.135   0.314   6.114
 7267WAT    HW221801   3.000   0.305   6.047
 7268WAT     OW21802   0.488   5.152   5.105
 7268WAT    HW121803   0.581   5.137   5.124
 7268WAT    HW221804   0.444   5.137   5.189
 7269WAT     OW21805   0.566   2.281   4.102
 7269WAT    HW121806   0.497   2.229   4.061
 7269WAT    HW221807   0.647   2.230   4.087
 7270WAT     OW21808   3.291   4.658   1.730
 7270WAT    HW121809   3.355   4.679   1.661
 7270WAT    HW221810   3.217   4.621   1.682
 7271WAT     OW21811   6.430   4.792   0.894
 7271WAT    HW121812   6.458   4.703   0.872
 7271WAT    HW221813   6.366   4.780   0.965
 7272WAT     OW21814   4.157   6.111   0.001
 7272WAT    HW121815   4.130   6.180   0.061
 7272WAT    HW221816   4.251   6.122  -0.009
 7273WAT     OW21817   0.965   0.372   1.787
 7273WAT    HW121818   0.971   0.312   1.860
 7273WAT    HW221819   0.878   0.412   1.794
 7274WAT     OW21820   1.973   1.024   2.450
 7274WAT    HW121821   1.904   1.058   2.507
 7274WAT    HW221822   2.013   1.102   2.411
 7275WAT     OW21823   4.273   3.519   6.064
 7275WAT    HW121824   4.231   3.569   5.993
 7275WAT    HW221825   4.366   3.541   6.057
 7276WAT     OW21826   1.724   6.055   3.483
 7276WAT    HW121827   1.753   6.094   3.565
 7276WAT    HW221828   1.639   6.097   3.465
 7277WAT     OW21829   4.944   6.509   4.304
 7277WAT    HW121830   4.854   6.484   4.326
 7277WAT    HW221831   4.935   6.585   4.247
 7278WAT     OW21832   4.531   2.307   6.504
 7278WAT    HW121833   4.500   2.294   6.415
 7278WAT    HW221834   4.452   2.297   6.558
 7279WAT     OW21835   3.965   1.716   5.270
 7279WAT    HW121836   3.978   1.690   5.362
 7279WAT    HW221837   3.911   1.795   5.276
 7280WAT     OW21838   2.678   0.303   6.195
 7280WAT    HW121839   2.671   0.214   6.159
 7280WAT    HW221840   2.682   0.360   6.118
 7281WAT     OW21841   3.644   2.008   4.361
 7281WAT    HW121842   3.701   1.934   4.346
 7281WAT    HW221843   3.557   1.970   4.375
 7282WAT     OW21844   1.287   2.686   4.221
 7282WAT    HW121845   1.319   2.734   4.144
 7282WAT    HW221846   1.198   2.659   4.197
 7283WAT     OW21847   4.437   1.220   3.374
 7283WAT    HW121848   4.476   1.135   3.356
 7283WAT    HW221849   4.506   1.283   3.357
 7284WAT     OW21850   4.069   2.905   1.881
 7284WAT    HW121851   4.070   3.001   1.877
 7284WAT    HW221852   4.023   2.885   1.963
 7285WAT     OW21853   2.315   1.770   3.127
 7285WAT    HW121854   2.376   1.765   3.053
 7285WAT    HW221855   2.241   1.820   3.093
 7286WAT     OW21856   2.665   5.996   1.415
 7286WAT    HW121857   2.630   6.040   1.338
 7286WAT    HW221858   2.609   5.919   1.426
 7287WAT     OW21859   2.975   3.692   3.049
 7287WAT    HW121860   2.955   3.739   3.130
 7287WAT    HW221861   2.891   3.656   3.022
 7288WAT     OW21862   3.632   1.314   3.772
 7288WAT    HW121863   3.611   1.236   3.824
 7288WAT    HW221864   3.722   1.300   3.743
 7289WAT     OW21865   6.111   1.249   5.195
 7289WAT    HW121866   6.042   1.189   5.226
 7289WAT    HW221867   6.157   1.275   5.275
 7290WAT     OW21868   0.202   1.183   0.370
 7290WAT    HW121869   0.214   1.101   0.322
 7290WAT    HW221870   0.230   1.251   0.310
 7291WAT     OW21871   4.035   3.250   2.937
 7291WAT    HW121872   3.997   3.263   2.849
 7291WAT    HW221873   4.087   3.170   2.929
 7292WAT     OW21874   6.220   0.264   3.767
 7292WAT    HW121875   6.138   0.216   3.757
 7292WAT    HW221876   6.219   0.329   3.697
 7293WAT     OW21877   3.204   5.850   4.288
 7293WAT    HW121878   3.271   5.883   4.228
 7293WAT    HW221879   3.199   5.756   4.269
 7294WAT     OW21880   2.983   1.763   4.857
 7294WAT    HW121881   3.071   1.761   4.819
 7294WAT    HW221882   2.973   1.678   4.899
 7295WAT     OW21883   4.938   4.157   3.557
 7295WAT    HW121884   4.927   4.068   3.589
 7295WAT    HW221885   5.004   4.150   3.488
 7296WAT     OW21886   4.494   5.878   3.643
 7296WAT    HW121887   4.437   5.912   3.573
 7296WAT    HW221888   4.542   5.955   3.673
 7297WAT     OW21889   3.632   1.984   4.997
 7297WAT    HW121890   3.624   2.073   5.033
 7297WAT    HW221891   3.623   1.996   4.903
 7298WAT     OW21892   4.018   3.088   0.727
 7298WAT    HW121893   4.088   3.059   0.669
 7298WAT    HW221894   3.939   3.045   0.692
 7299WAT     OW21895   2.910   5.199   0.676
 7299WAT    HW121896   2.829   5.237   0.711
 7299WAT    HW221897   2.921   5.117   0.725
 7300WAT     OW21898   3.033   3.164   1.682
 7300WAT    HW121899   3.029   3.069   1.673
 7300WAT    HW221900   3.031   3.179   1.777
 7301WAT     OW21901   4.966   2.363   5.047
 7301WAT    HW121902   4.895   2.418   5.014
 7301WAT    HW221903   4.932   2.325   5.128
 7302WAT     OW21904   0.125   0.884   1.660
 7302WAT    HW121905   0.095   0.973   1.678
 7302WAT    HW221906   0.113   0.872   1.566
 7303WAT     OW21907   2.587   4.727   1.546
 7303WAT    HW121908   2.573   4.813   1.507
 7303WAT    HW221909   2.639   4.679   1.481
 7304WAT     OW21910   4.715   5.661   2.190
 7304WAT    HW121911   4.687   5.623   2.107
 7304WAT    HW221912   4.650   5.632   2.253
 7305WAT     OW21913   4.854   5.107   4.589
 7305WAT    HW121914   4.762   5.116   4.566
 7305WAT    HW221915   4.854   5.070   4.677
 7306WAT     OW21916   2.211   6.681   2.360
 7306WAT    HW121917   2.183   6.614   2.423
 7306WAT    HW221918   2.157   6.665   2.283
 7307WAT     OW21919   4.103   1.572   6.434
 7307WAT    HW121920   4.129   1.650   6.482
 7307WAT    HW221921   4.119   1.593   6.342
 7308WAT     OW21922   3.443   6.295   1.917
 7308WAT    HW121923   3.425   6.300   2.011
 7308WAT    HW221924   3.531   6.332   1.907
 7309WAT     OW21925   2.082   5.694   3.566
 7309WAT    HW121926   2.094   5.743   3.484
 7309WAT    HW221927   2.158   5.636   3.569
 7310WAT     OW21928   1.280   5.820   3.371
 7310WAT    HW121929   1.237   5.840   3.454
 7310WAT    HW221930   1.318   5.733   3.383
 7311WAT     OW21931   0.579   1.698   0.521
 7311WAT    HW121932   0.529   1.734   0.594
 7311WAT    HW221933   0.668   1.689   0.554
 7312WAT     OW21934   3.733   0.722   3.505
 7312WAT    HW121935   3.724   0.786   3.435
 7312WAT    HW221936   3.819   0.741   3.544
 7313WAT     OW21937   4.196   0.194   0.405
 7313WAT    HW121938   4.253   0.264   0.439
 7313WAT    HW221939   4.228   0.179   0.316
 7314WAT     OW21940   1.798   2.039   2.874
 7314WAT    HW121941   1.711   2.016   2.839
 7314WAT    HW221942   1.801   1.998   2.960
 7315WAT     OW21943   4.542   2.412   1.552
 7315WAT    HW121944   4.538   2.421   1.647
 7315WAT    HW221945   4.609   2.346   1.537
 7316WAT     OW21946   5.054   0.777   2.264
 7316WAT    HW121947   5.107   0.745   2.191
 7316WAT    HW221948   5.090   0.864   2.282
 7317WAT     OW21949   6.654   2.381   6.667
 7317WAT    HW121950   6.656   2.285   6.673
 7317WAT    HW221951   6.668   2.411   6.757
 7318WAT     OW21952   3.791   2.705   0.556
 7318WAT    HW121953   3.756   2.661   0.478
 7318WAT    HW221954   3.781   2.640   0.626
 7319WAT     OW21955   0.762   6.554   5.552
 7319WAT    HW121956   0.784   6.465   5.526
 7319WAT    HW221957   0.680   6.572   5.506
 7320WAT     OW21958   2.843   5.906   3.847
 7320WAT    HW121959   2.836   5.867   3.761
 7320WAT    HW221960   2.935   5.896   3.871
 7321WAT     OW21961   3.542   4.030   5.855
 7321WAT    HW121962   3.589   4.106   5.820
 7321WAT    HW221963   3.571   3.956   5.801
 7322WAT     OW21964   4.931   6.562   2.925
 7322WAT    HW121965   4.954   6.633   2.864
 7322WAT    HW221966   4.993   6.492   2.905
 7323WAT     OW21967   3.766   3.919   2.051
 7323WAT    HW121968   3.818   3.946   2.127
 7323WAT    HW221969   3.754   3.999   2.000
 7324WAT     OW21970   5.094   3.185   2.280
 7324WAT    HW121971   5.184   3.174   2.250
 7324WAT    HW221972   5.054   3.242   2.215
 7325WAT     OW21973   6.165   1.126   2.035
 7325WAT    HW121974   6.254   1.093   2.019
 7325WAT    HW221975   6.145   1.095   2.124
 7326WAT     OW21976   0.231   6.019   3.573
 7326WAT    HW121977   0.211   6.062   3.490
 7326WAT    HW221978   0.319   6.048   3.595
 7327WAT     OW21979   5.275   0.668   6.394
 7327WAT    HW121980   5.260   0.707   6.307
 7327WAT    HW221981   5.225   0.586   6.392
 7328WAT     OW21982   6.292   2.388   6.187
 7328WAT    HW121983   6.226   2.438   6.140
 7328WAT    HW221984   6.246   2.311   6.219
 7329WAT     OW21985   4.006   5.338   1.339
 7329WAT    HW121986   4.066   5.384   1.280
 7329WAT    HW221987   3.919   5.363   1.310
 7330WAT     OW21988   5.631   1.929   1.426
 7330WAT    HW121989   5.722   1.949   1.450
 7330WAT    HW221990   5.616   1.841   1.461
 7331WAT     OW21991   3.113   6.191   3.693
 7331WAT    HW121992   3.043   6.220   3.633
 7331WAT    HW221993   3.071   6.190   3.779
 7332WAT     OW21994   2.280   2.554   5.477
 7332WAT    HW121995   2.297   2.624   5.540
 7332WAT    HW221996   2.251   2.599   5.398
 7333WAT     OW21997   3.339   3.512   3.409
 7333WAT    HW121998   3.354   3.543   3.320
 7333WAT    HW221999   3.271   3.445   3.400
 7334WAT     OW22000   2.804   4.339   3.423
 7334WAT    HW122001   2.742   4.267   3.439
 7334WAT    HW222002   2.814   4.381   3.509
 7335WAT     OW22003   4.777   4.112   2.672
 7335WAT    HW122004   4.817   4.031   2.704
 7335WAT    HW222005   4.836   4.144   2.605
 7336WAT     OW22006   4.806   5.753   4.894
 7336WAT    HW122007   4.741   5.688   4.920
 7336WAT    HW222008   4.864   5.762   4.969
 7337WAT     OW22009   5.186   5.670   5.087
 7337WAT    HW122010   5.251   5.722   5.040
 7337WAT    HW222011   5.178   5.590   5.036
 7338WAT     OW22012   1.293   4.012   3.864
 7338WAT    HW122013   1.247   3.960   3.797
 7338WAT    HW222014   1.385   4.005   3.841
 7339WAT     OW22015   3.839   4.907   0.909
 7339WAT    HW122016   3.752   4.923   0.873
 7339WAT    HW222017   3.836   4.816   0.939
 7340WAT     OW22018   3.835   1.669   1.634
 7340WAT    HW122019   3.824   1.587   1.585
 7340WAT    HW222020   3.918   1.658   1.680
 7341WAT     OW22021   0.742   4.444   4.907
 7341WAT    HW122022   0.662   4.486   4.875
 7341WAT    HW222023   0.712   4.358   4.938
 7342WAT     OW22024   4.764   3.127   3.044
 7342WAT    HW122025   4.721   3.149   2.962
 7342WAT    HW222026   4.832   3.194   3.055
 7343WAT     OW22027   1.415   1.942   0.201
 7343WAT    HW122028   1.471   1.949   0.278
 7343WAT    HW222029   1.426   2.026   0.155
 7344WAT     OW22030   1.752   6.422   3.543
 7344WAT    HW122031   1.810   6.495   3.565
 7344WAT    HW222032   1.769   6.406   3.450
 7345WAT     OW22033   2.923   0.684   0.696
 7345WAT    HW122034   2.953   0.595   0.682
 7345WAT    HW222035   2.859   0.700   0.627
 7346WAT     OW22036   1.371   3.297   3.170
 7346WAT    HW122037   1.394   3.386   3.143
 7346WAT    HW222038   1.443   3.243   3.138
 7347WAT     OW22039   3.989   3.591   0.295
 7347WAT    HW122040   3.920   3.589   0.229
 7347WAT    HW222041   3.997   3.500   0.324
 7348WAT     OW22042   5.990   1.683   3.670
 7348WAT    HW122043   5.942   1.761   3.642
 7348WAT    HW222044   6.012   1.638   3.589
 7349WAT     OW22045   4.867   5.215   3.922
 7349WAT    HW122046   4.934   5.274   3.888
 7349WAT    HW222047   4.914   5.156   3.980
 7350WAT     OW22048   4.309   3.253   4.418
 7350WAT    HW122049   4.359   3.320   4.371
 7350WAT    HW222050   4.250   3.216   4.353
 7351WAT     OW22051   4.700   1.114   1.224
 7351WAT    HW122052   4.625   1.098   1.167
 7351WAT    HW222053   4.744   1.030   1.231
 7352WAT     OW22054   5.283   4.357   5.161
 7352WAT    HW122055   5.234   4.421   5.212
 7352WAT    HW222056   5.334   4.309   5.226
 7353WAT     OW22057   6.084   6.696   5.840
 7353WAT    HW122058   6.144   6.622   5.835
 7353WAT    HW222059   6.075   6.726   5.750
 7354WAT     OW22060   2.583   1.940   3.541
 7354WAT    HW122061   2.573   2.035   3.540
 7354WAT    HW222062   2.565   1.913   3.451
 7355WAT     OW22063   2.585   4.064   1.641
 7355WAT    HW122064   2.526   4.002   1.684
 7355WAT    HW222065   2.566   4.054   1.548
 7356WAT     OW22066   4.595   5.073   0.349
 7356WAT    HW122067   4.685   5.057   0.377
 7356WAT    HW222068   4.576   5.001   0.289
 7357WAT     OW22069   2.762   2.091   4.739
 7357WAT    HW122070   2.675   2.059   4.763
 7357WAT    HW222071   2.782   2.047   4.657
 7358WAT     OW22072   3.161   2.565   6.122
 7358WAT    HW122073   3.256   2.564   6.133
 7358WAT    HW222074   3.134   2.651   6.152
 7359WAT     OW22075   3.202   1.416   5.097
 7359WAT    HW122076   3.209   1.406   5.191
 7359WAT    HW222077   3.293   1.419   5.066
 7360WAT     OW22078   3.454   3.358   1.244
 7360WAT    HW122079   3.415   3.288   1.192
 7360WAT    HW222080   3.380   3.412   1.272
 7361WAT     OW22081   5.239   5.561   5.764
 7361WAT    HW122082   5.172   5.583   5.700
 7361WAT    HW222083   5.280   5.482   5.730
 7362WAT     OW22084   5.555   6.621   4.671
 7362WAT    HW122085   5.462   6.630   4.652
 7362WAT    HW222086   5.569   6.527   4.682
 7363WAT     OW22087   3.481   1.100   5.074
 7363WAT    HW122088   3.445   1.066   4.991
 7363WAT    HW222089   3.550   1.159   5.047
 7364WAT     OW22090   1.842   6.581   2.000
 7364WAT    HW122091   1.760   6.539   2.026
 7364WAT    HW222092   1.896   6.509   1.969
 7365WAT     OW22093   6.461   6.136   5.762
 7365WAT    HW122094   6.424   6.209   5.712
 7365WAT    HW222095   6.390   6.109   5.820
 7366WAT     OW22096   5.685   5.514   3.201
 7366WAT    HW122097   5.718   5.454   3.268
 7366WAT    HW222098   5.745   5.503   3.127
 7367WAT     OW22099   4.249   4.175   3.896
 7367WAT    HW122100   4.315   4.105   3.903
 7367WAT    HW222101   4.171   4.132   3.863
 7368WAT     OW22102   4.175   6.568   4.071
 7368WAT    HW122103   4.210   6.581   4.159
 7368WAT    HW222104   4.158   6.474   4.066
 7369WAT     OW22105   3.247   1.353   4.379
 7369WAT    HW122106   3.236   1.348   4.474
 7369WAT    HW222107   3.252   1.262   4.351
 7370WAT     OW22108   1.819   4.297   1.042
 7370WAT    HW122109   1.757   4.346   0.988
 7370WAT    HW222110   1.798   4.323   1.132
 7371WAT     OW22111   6.509   6.191   4.463
 7371WAT    HW122112   6.603   6.206   4.472
 7371WAT    HW222113   6.493   6.199   4.369
 7372WAT     OW22114   1.357   3.101   6.683
 7372WAT    HW122115   1.358   3.171   6.618
 7372WAT    HW222116   1.436   3.115   6.735
 7373WAT     OW22117   5.413   5.814   2.560
 7373WAT    HW122118   5.453   5.742   2.511
 7373WAT    HW222119   5.325   5.822   2.523
 7374WAT     OW22120   3.039   1.174   0.418
 7374WAT    HW122121   3.044   1.094   0.470
 7374WAT    HW222122   3.129   1.205   0.412
 7375WAT     OW22123   1.253   1.798   1.602
 7375WAT    HW122124   1.323   1.860   1.622
 7375WAT    HW222125   1.290   1.743   1.533
 7376WAT     OW22126   2.226   3.104   4.944
 7376WAT    HW122127   2.130   3.109   4.942
 7376WAT    HW222128   2.252   3.125   4.854
 7377WAT     OW22129   5.512   3.139   1.519
 7377WAT    HW122130   5.511   3.195   1.597
 7377WAT    HW222131   5.505   3.200   1.445
 7378WAT     OW22132   3.476   2.148   1.495
 7378WAT    HW122133   3.449   2.058   1.481
 7378WAT    HW222134   3.441   2.171   1.582
 7379WAT     OW22135   4.598   1.928   1.244
 7379WAT    HW122136   4.658   1.878   1.189
 7379WAT    HW222137   4.515   1.881   1.237
 7380WAT     OW22138   3.407   6.099   3.478
 7380WAT    HW122139   3.437   6.058   3.559
 7380WAT    HW222140   3.375   6.027   3.425
 7381WAT     OW22141   6.101   0.213   4.191
 7381WAT    HW122142   6.017   0.210   4.237
 7381WAT    HW222143   6.090   0.151   4.119
 7382WAT     OW22144   1.514   3.935   5.887
 7382WAT    HW122145   1.511   3.856   5.941
 7382WAT    HW222146   1.592   3.924   5.832
 7383WAT     OW22147   0.198   1.425   0.967
 7383WAT    HW122148   0.169   1.375   0.890
 7383WAT    HW222149   0.152   1.384   1.040
 7384WAT     OW22150   2.010   5.977   0.414
 7384WAT    HW122151   2.099   6.015   0.417
 7384WAT    HW222152   1.993   5.948   0.503
 7385WAT     OW22153   6.687   5.088   4.271
 7385WAT    HW122154   6.675   5.180   4.249
 7385WAT    HW222155   6.641   5.040   4.201
 7386WAT     OW22156   0.798   3.465   2.236
 7386WAT    HW122157   0.885   3.503   2.231
 7386WAT    HW222158   0.753   3.495   2.157
 7387WAT     OW22159   6.116   3.260   3.889
 7387WAT    HW122160   6.041   3.309   3.924
 7387WAT    HW222161   6.189   3.284   3.946
 7388WAT     OW22162   0.323   4.933   1.015
 7388WAT    HW122163   0.324   4.972   1.102
 7388WAT    HW222164   0.236   4.894   1.007
 7389WAT     OW22165   4.223   4.793   2.532
 7389WAT    HW122166   4.308   4.779   2.572
 7389WAT    HW222167   4.179   4.855   2.591
 7390WAT     OW22168   2.487   5.921   2.892
 7390WAT    HW122169   2.425   5.983   2.929
 7390WAT    HW222170   2.532   5.884   2.967
 7391WAT     OW22171   0.840   1.341   2.365
 7391WAT    HW122172   0.847   1.287   2.286
 7391WAT    HW222173   0.752   1.321   2.399
 7392WAT     OW22174   1.441   1.235   0.350
 7392WAT    HW122175   1.516   1.294   0.353
 7392WAT    HW222176   1.458   1.180   0.273
 7393WAT     OW22177   5.408   1.495   5.325
 7393WAT    HW122178   5.464   1.551   5.271
 7393WAT    HW222179   5.439   1.406   5.307
 7394WAT     OW22180   1.761   3.408   4.346
 7394WAT    HW122181   1.780   3.315   4.359
 7394WAT    HW222182   1.667   3.415   4.361
 7395WAT     OW22183   4.599   3.186   2.789
 7395WAT    HW122184   4.597   3.091   2.795
 7395WAT    HW222185   4.646   3.204   2.708
 7396WAT     OW22186   4.457   5.118   3.106
 7396WAT    HW122187   4.431   5.026   3.113
 7396WAT    HW222188   4.524   5.119   3.038
 7397WAT     OW22189   4.254   2.905   6.720
 7397WAT    HW122190   4.266   2.812   6.740
 7397WAT    HW222191   4.339   2.944   6.737
 7398WAT     OW22192   5.573   3.577   6.542
 7398WAT    HW122193   5.630   3.501   6.550
 7398WAT    HW222194   5.485   3.544   6.561
 7399WAT     OW22195   3.170   0.689   1.086
 7399WAT    HW122196   3.156   0.779   1.117
 7399WAT    HW222197   3.169   0.637   1.166
 7400WAT     OW22198   1.067   0.202   5.732
 7400WAT    HW122199   1.003   0.179   5.799
 7400WAT    HW222200   1.101   0.287   5.759
 7401WAT     OW22201   1.492   3.461   4.408
 7401WAT    HW122202   1.509   3.497   4.495
 7401WAT    HW222203   1.402   3.431   4.412
 7402WAT     OW22204   2.245   0.391   3.409
 7402WAT    HW122205   2.250   0.468   3.353
 7402WAT    HW222206   2.275   0.319   3.354
 7403WAT     OW22207   5.633   3.207   2.500
 7403WAT    HW122208   5.590   3.161   2.429
 7403WAT    HW222209   5.726   3.196   2.483
 7404WAT     OW22210   2.658   4.332   5.402
 7404WAT    HW122211   2.638   4.412   5.353
 7404WAT    HW222212   2.588   4.325   5.467
 7405WAT     OW22213   2.149   5.190   1.802
 7405WAT    HW122214   2.145   5.214   1.709
 7405WAT    HW222215   2.143   5.094   1.802
 7406WAT     OW22216   1.593   3.143   0.091
 7406WAT    HW122217   1.667   3.158   0.033
 7406WAT    HW222218   1.630   3.150   0.179
 7407WAT     OW22219   4.980   2.141   3.682
 7407WAT    HW122220   4.889   2.114   3.669
 7407WAT    HW222221   5.023   2.119   3.599
 7408WAT     OW22222   1.562   4.658   4.780
 7408WAT    HW122223   1.635   4.717   4.798
 7408WAT    HW222224   1.590   4.606   4.706
 7409WAT     OW22225   4.699   4.626   3.702
 7409WAT    HW122226   4.657   4.679   3.769
 7409WAT    HW222227   4.790   4.657   3.700
 7410WAT     OW22228   0.338   4.014   3.076
 7410WAT    HW122229   0.277   3.951   3.038
 7410WAT    HW222230   0.402   3.960   3.123
 7411WAT     OW22231   4.781   1.536   6.689
 7411WAT    HW122232   4.790   1.442   6.671
 7411WAT    HW222233   4.735   1.570   6.612
 7412WAT     OW22234   1.641   0.300   1.147
 7412WAT    HW122235   1.645   0.381   1.095
 7412WAT    HW222236   1.658   0.328   1.236
 7413WAT     OW22237   4.852   1.341   1.177
 7413WAT    HW122238   4.794   1.266   1.182
 7413WAT    HW222239   4.922   1.314   1.117
 7414WAT     OW22240   5.297   6.054   3.938
 7414WAT    HW122241   5.227   5.999   3.972
 7414WAT    HW222242   5.375   5.999   3.941
 7415WAT     OW22243   4.763   5.911   6.406
 7415WAT    HW122244   4.770   5.988   6.350
 7415WAT    HW222245   4.764   5.837   6.345
 7416WAT     OW22246   3.842   5.933   1.721
 7416WAT    HW122247   3.921   5.892   1.754
 7416WAT    HW222248   3.830   6.010   1.777
 7417WAT     OW22249   2.562   2.376   0.124
 7417WAT    HW122250   2.545   2.319   0.049
 7417WAT    HW222251   2.652   2.406   0.111
 7418WAT     OW22252   3.564   5.043   4.976
 7418WAT    HW122253   3.586   5.117   5.033
 7418WAT    HW222254   3.495   4.997   5.023
 7419WAT     OW22255   4.835   0.115   6.402
 7419WAT    HW122256   4.745   0.104   6.435
 7419WAT    HW222257   4.849   0.210   6.401
 7420WAT     OW22258   1.326   1.854   6.587
 7420WAT    HW122259   1.298   1.941   6.616
 7420WAT    HW222260   1.385   1.872   6.513
 7421WAT     OW22261   3.736   2.076   3.503
 7421WAT    HW122262   3.685   2.091   3.582
 7421WAT    HW222263   3.672   2.051   3.436
 7422WAT     OW22264   3.027   1.746   1.032
 7422WAT    HW122265   2.950   1.691   1.047
 7422WAT    HW222266   3.027   1.764   0.938
 7423WAT     OW22267   4.946   2.002   2.086
 7423WAT    HW122268   4.884   1.992   2.014
 7423WAT    HW222269   5.009   2.067   2.055
 7424WAT     OW22270   6.232   1.655   1.361
 7424WAT    HW122271   6.181   1.576   1.376
 7424WAT    HW222272   6.316   1.639   1.405
 7425WAT     OW22273   0.880   1.496   5.886
 7425WAT    HW122274   0.820   1.439   5.837
 7425WAT    HW222275   0.910   1.559   5.821
 7426WAT     OW22276   5.863   4.331   6.605
 7426WAT    HW122277   5.919   4.353   6.530
 7426WAT    HW222278   5.829   4.415   6.635
 7427WAT     OW22279   2.520   3.691   5.763
 7427WAT    HW122280   2.610   3.657   5.764
 7427WAT    HW222281   2.482   3.658   5.845
 7428WAT     OW22282   6.532   1.833   0.281
 7428WAT    HW122283   6.468   1.817   0.210
 7428WAT    HW222284   6.483   1.813   0.361
 7429WAT     OW22285   0.627   4.321   5.585
 7429WAT    HW122286   0.543   4.345   5.545
 7429WAT    HW222287   0.678   4.401   5.582
 7430WAT     OW22288   1.825   5.707   4.228
 7430WAT    HW122289   1.856   5.721   4.317
 7430WAT    HW222290   1.735   5.739   4.228
 7431WAT     OW22291   4.750   1.618   0.415
 7431WAT    HW122292   4.759   1.712   0.403
 7431WAT    HW222293   4.813   1.579   0.355
 7432WAT     OW22294   0.084   2.456   2.961
 7432WAT    HW122295   0.087   2.391   2.891
 7432WAT    HW222296   0.105   2.539   2.919
 7433WAT     OW22297   0.915   1.517   3.879
 7433WAT    HW122298   0.969   1.555   3.949
 7433WAT    HW222299   0.872   1.592   3.838
 7434WAT     OW22300   3.808   0.456   3.425
 7434WAT    HW122301   3.817   0.484   3.334
 7434WAT    HW222302   3.781   0.536   3.472
 7435WAT     OW22303   6.678   5.949   4.235
 7435WAT    HW122304   6.708   5.978   4.149
 7435WAT    HW222305   6.749   5.973   4.294
 7436WAT     OW22306   5.064   1.280   1.016
 7436WAT    HW122307   5.070   1.189   0.986
 7436WAT    HW222308   5.154   1.312   1.010
 7437WAT     OW22309   5.008   3.216   4.036
 7437WAT    HW122310   5.054   3.185   4.114
 7437WAT    HW222311   5.074   3.267   3.988
 7438WAT     OW22312   2.485   3.451   2.956
 7438WAT    HW122313   2.407   3.406   2.987
 7438WAT    HW222314   2.503   3.412   2.870
 7439WAT     OW22315   1.673   3.077   0.623
 7439WAT    HW122316   1.759   3.085   0.581
 7439WAT    HW222317   1.651   3.166   0.650
 7440WAT     OW22318   0.207   2.106   5.139
 7440WAT    HW122319   0.165   2.021   5.128
 7440WAT    HW222320   0.156   2.166   5.085
 7441WAT     OW22321   6.540   5.797   4.429
 7441WAT    HW122322   6.592   5.858   4.376
 7441WAT    HW222323   6.529   5.721   4.372
 7442WAT     OW22324   6.302   2.646   6.607
 7442WAT    HW122325   6.301   2.642   6.511
 7442WAT    HW222326   6.395   2.654   6.629
 7443WAT     OW22327   0.489   0.678   0.169
 7443WAT    HW122328   0.436   0.687   0.248
 7443WAT    HW222329   0.449   0.738   0.106
 7444WAT     OW22330   3.380   5.946   4.071
 7444WAT    HW122331   3.341   5.865   4.038
 7444WAT    HW222332   3.471   5.942   4.041
 7445WAT     OW22333   4.686   4.382   5.317
 7445WAT    HW122334   4.699   4.302   5.267
 7445WAT    HW222335   4.595   4.407   5.298
 7446WAT     OW22336   5.393   5.966   5.602
 7446WAT    HW122337   5.389   6.061   5.590
 7446WAT    HW222338   5.303   5.937   5.588
 7447WAT     OW22339   1.594   1.633   1.810
 7447WAT    HW122340   1.596   1.686   1.730
 7447WAT    HW222341   1.596   1.543   1.780
 7448WAT     OW22342   0.723   2.300   5.142
 7448WAT    HW122343   0.631   2.276   5.141
 7448WAT    HW222344   0.764   2.238   5.202
 7449WAT     OW22345   1.967   5.319   5.260
 7449WAT    HW122346   1.891   5.271   5.292
 7449WAT    HW222347   2.018   5.339   5.339
 7450WAT     OW22348   3.955   6.718   0.251
 7450WAT    HW122349   3.991   6.683   0.333
 7450WAT    HW222350   3.879   6.768   0.278
 7451WAT     OW22351   5.188   4.696   2.761
 7451WAT    HW122352   5.098   4.727   2.753
 7451WAT    HW222353   5.227   4.714   2.676
 7452WAT     OW22354   6.444   6.159   5.168
 7452WAT    HW122355   6.393   6.232   5.203
 7452WAT    HW222356   6.495   6.127   5.242
 7453WAT     OW22357   6.358   4.437   6.400
 7453WAT    HW122358   6.320   4.419   6.486
 7453WAT    HW222359   6.312   4.515   6.370
 7454WAT     OW22360   2.074   1.145   4.792
 7454WAT    HW122361   2.139   1.080   4.768
 7454WAT    HW222362   2.059   1.130   4.886
 7455WAT     OW22363   1.760   5.229   1.337
 7455WAT    HW122364   1.828   5.292   1.362
 7455WAT    HW222365   1.686   5.249   1.395
 7456WAT     OW22366   4.380   0.966   1.572
 7456WAT    HW122367   4.313   1.031   1.594
 7456WAT    HW222368   4.339   0.882   1.595
 7457WAT     OW22369   0.686   5.500   0.401
 7457WAT    HW122370   0.700   5.593   0.385
 7457WAT    HW222371   0.764   5.457   0.365
 7458WAT     OW22372   3.087   4.951   6.021
 7458WAT    HW122373   3.003   4.919   6.053
 7458WAT    HW222374   3.122   4.878   5.969
 7459WAT     OW22375   2.233   0.010   5.096
 7459WAT    HW122376   2.238   0.084   5.036
 7459WAT    HW222377   2.248  -0.067   5.040
 7460WAT     OW22378   4.647   3.987   6.433
 7460WAT    HW122379   4.724   3.958   6.383
 7460WAT    HW222380   4.681   4.004   6.521
 7461WAT     OW22381   0.968   6.010   3.420
 7461WAT    HW122382   0.888   5.960   3.401
 7461WAT    HW222383   1.022   5.951   3.471
 7462WAT     OW22384   0.183   4.568   0.890
 7462WAT    HW122385   0.264   4.581   0.841
 7462WAT    HW222386   0.158   4.477   0.871
 7463WAT     OW22387   1.823   0.631   6.261
 7463WAT    HW122388   1.736   0.614   6.226
 7463WAT    HW222389   1.863   0.690   6.197
 7464WAT     OW22390   1.461   6.109   2.639
 7464WAT    HW122391   1.521   6.171   2.681
 7464WAT    HW222392   1.374   6.133   2.672
 7465WAT     OW22393   0.859   2.146   5.328
 7465WAT    HW122394   0.916   2.069   5.328
 7465WAT    HW222395   0.874   2.186   5.414
 7466WAT     OW22396   5.128   1.158   4.592
 7466WAT    HW122397   5.219   1.186   4.581
 7466WAT    HW222398   5.129   1.104   4.671
 7467WAT     OW22399   0.715   4.135   1.368
 7467WAT    HW122400   0.778   4.085   1.317
 7467WAT    HW222401   0.666   4.069   1.416
 7468WAT     OW22402   1.219   4.668   3.145
 7468WAT    HW122403   1.203   4.762   3.149
 7468WAT    HW222404   1.253   4.653   3.057
 7469WAT     OW22405   3.309   1.105   0.795
 7469WAT    HW122406   3.317   1.031   0.735
 7469WAT    HW222407   3.350   1.075   0.876
 7470WAT     OW22408   4.143   3.481   1.645
 7470WAT    HW122409   4.100   3.536   1.710
 7470WAT    HW222410   4.111   3.512   1.561
 7471WAT     OW22411   5.763   3.573   0.921
 7471WAT    HW122412   5.734   3.485   0.944
 7471WAT    HW222413   5.780   3.616   1.005
 7472WAT     OW22414   4.903   4.267   5.040
 7472WAT    HW122415   4.924   4.348   5.087
 7472WAT    HW222416   4.921   4.288   4.948
 7473WAT     OW22417   0.711   5.113   1.839
 7473WAT    HW122418   0.656   5.178   1.882
 7473WAT    HW222419   0.790   5.109   1.893
 7474WAT     OW22420   5.673   2.122   1.228
 7474WAT    HW122421   5.637   2.053   1.284
 7474WAT    HW222422   5.685   2.081   1.143
 7475WAT     OW22423   0.153   4.530   2.734
 7475WAT    HW122424   0.117   4.587   2.666
 7475WAT    HW222425   0.236   4.571   2.757
 7476WAT     OW22426   4.400   1.246   1.409
 7476WAT    HW122427   4.486   1.220   1.442
 7476WAT    HW222428   4.360   1.165   1.378
 7477WAT     OW22429   3.216   2.748   1.249
 7477WAT    HW122430   3.250   2.831   1.285
 7477WAT    HW222431   3.198   2.694   1.326
 7478WAT     OW22432   6.088   4.412   1.106
 7478WAT    HW122433   6.031   4.432   1.180
 7478WAT    HW222434   6.177   4.422   1.142
 7479WAT     OW22435   3.200   6.162   2.477
 7479WAT    HW122436   3.166   6.076   2.501
 7479WAT    HW222437   3.280   6.172   2.529
 7480WAT     OW22438   4.532   2.554   4.810
 7480WAT    HW122439   4.517   2.648   4.803
 7480WAT    HW222440   4.627   2.546   4.821
 7481WAT     OW22441   3.858   1.369   2.758
 7481WAT    HW122442   3.778   1.422   2.754
 7481WAT    HW222443   3.833   1.292   2.809
 7482WAT     OW22444   1.364   3.959   4.385
 7482WAT    HW122445   1.332   4.002   4.306
 7482WAT    HW222446   1.297   3.976   4.450
 7483WAT     OW22447   3.244   1.711   1.194
 7483WAT    HW122448   3.211   1.727   1.282
 7483WAT    HW222449   3.172   1.735   1.136
 7484WAT     OW22450   1.225   6.106   6.596
 7484WAT    HW122451   1.167   6.122   6.671
 7484WAT    HW222452   1.197   6.021   6.563
 7485WAT     OW22453   2.336   6.375   2.433
 7485WAT    HW122454   2.257   6.409   2.475
 7485WAT    HW222455   2.408   6.410   2.486
 7486WAT     OW22456   0.420   4.023   6.103
 7486WAT    HW122457   0.411   4.013   6.198
 7486WAT    HW222458   0.336   4.060   6.075
 7487WAT     OW22459   5.951   2.861   6.168
 7487WAT    HW122460   6.013   2.903   6.109
 7487WAT    HW222461   5.887   2.929   6.190
 7488WAT     OW22462   4.867   2.227   5.891
 7488WAT    HW122463   4.951   2.217   5.846
 7488WAT    HW222464   4.810   2.270   5.826
 7489WAT     OW22465   0.278   4.172   2.450
 7489WAT    HW122466   0.348   4.150   2.388
 7489WAT    HW222467   0.254   4.088   2.489
 7490WAT     OW22468   3.685   1.770   5.643
 7490WAT    HW122469   3.709   1.689   5.598
 7490WAT    HW222470   3.676   1.835   5.572
 7491WAT     OW22471   0.237   1.679   4.380
 7491WAT    HW122472   0.236   1.639   4.467
 7491WAT    HW222473   0.196   1.765   4.392
 7492WAT     OW22474   1.153   2.183   1.027
 7492WAT    HW122475   1.200   2.106   1.059
 7492WAT    HW222476   1.192   2.201   0.942
 7493WAT     OW22477   4.281   2.231   0.410
 7493WAT    HW122478   4.199   2.188   0.430
 7493WAT    HW222479   4.347   2.161   0.412
 7494WAT     OW22480   5.633   1.277   5.480
 7494WAT    HW122481   5.693   1.349   5.462
 7494WAT    HW222482   5.589   1.260   5.397
 7495WAT     OW22483   5.685   4.437   3.656
 7495WAT    HW122484   5.624   4.488   3.602
 7495WAT    HW222485   5.647   4.440   3.744
 7496WAT     OW22486   1.032   0.051   3.510
 7496WAT    HW122487   1.010   0.086   3.596
 7496WAT    HW222488   1.125   0.029   3.516
 7497WAT     OW22489   2.230   5.598   0.233
 7497WAT    HW122490   2.164   5.667   0.224
 7497WAT    HW222491   2.183   5.526   0.276
 7498WAT     OW22492   3.535   6.675   2.454
 7498WAT    HW122493   3.535   6.579   2.452
 7498WAT    HW222494   3.489   6.697   2.535
 7499WAT     OW22495   0.479   3.460   0.384
 7499WAT    HW122496   0.564   3.473   0.340
 7499WAT    HW222497   0.434   3.544   0.373
 7500WAT     OW22498   5.038   4.511   1.689
 7500WAT    HW122499   5.113   4.482   1.636
 7500WAT    HW222500   5.038   4.452   1.764
 7501WAT     OW22501   5.715   5.142   0.073
 7501WAT    HW122502   5.696   5.180   0.159
 7501WAT    HW222503   5.811   5.141   0.068
 7502WAT     OW22504   5.516   0.338   4.900
 7502WAT    HW122505   5.487   0.337   4.991
 7502WAT    HW222506   5.545   0.249   4.882
 7503WAT     OW22507   4.094   0.672   6.285
 7503WAT    HW122508   4.157   0.740   6.305
 7503WAT    HW222509   4.009   0.715   6.289
 7504WAT     OW22510   5.874   5.668   0.669
 7504WAT    HW122511   5.961   5.628   0.676
 7504WAT    HW222512   5.891   5.762   0.665
 7505WAT     OW22513   4.225   1.415   4.928
 7505WAT    HW122514   4.246   1.395   4.836
 7505WAT    HW222515   4.306   1.399   4.975
 7506WAT     OW22516   1.810   3.195   6.658
 7506WAT    HW122517   1.903   3.171   6.658
 7506WAT    HW222518   1.809   3.286   6.689
 7507WAT     OW22519   4.967   2.401   1.892
 7507WAT    HW122520   4.891   2.363   1.847
 7507WAT    HW222521   4.973   2.490   1.856
 7508WAT     OW22522   3.521   5.054   3.682
 7508WAT    HW122523   3.499   4.964   3.703
 7508WAT    HW222524   3.605   5.049   3.637
 7509WAT     OW22525   2.806   2.799   1.284
 7509WAT    HW122526   2.728   2.747   1.264
 7509WAT    HW222527   2.871   2.770   1.219
 7510WAT     OW22528   6.284   4.466   5.204
 7510WAT    HW122529   6.193   4.439   5.193
 7510WAT    HW222530   6.321   4.400   5.262
 7511WAT     OW22531   0.179   2.213   0.256
 7511WAT    HW122532   0.101   2.159   0.270
 7511WAT    HW222533   0.224   2.213   0.340
 7512WAT     OW22534   1.801   4.106   3.702
 7512WAT    HW122535   1.806   4.027   3.648
 7512WAT    HW222536   1.796   4.178   3.639
 7513WAT     OW22537   5.238   3.871   0.503
 7513WAT    HW122538   5.150   3.836   0.521
 7513WAT    HW222539   5.232   3.904   0.413
 7514WAT     OW22540   1.474   5.047   5.563
 7514WAT    HW122541   1.457   5.059   5.470
 7514WAT    HW222542   1.569   5.040   5.569
 7515WAT     OW22543   1.761   0.413   0.811
 7515WAT    HW122544   1.740   0.464   0.889
 7515WAT    HW222545   1.857   0.409   0.810
 7516WAT     OW22546   4.301   0.417   2.261
 7516WAT    HW122547   4.237   0.430   2.332
 7516WAT    HW222548   4.385   0.443   2.300
 7517WAT     OW22549   6.200   4.725   0.188
 7517WAT    HW122550   6.137   4.680   0.131
 7517WAT    HW222551   6.205   4.814   0.152
 7518WAT     OW22552   6.362   6.071   4.920
 7518WAT    HW122553   6.268   6.091   4.913
 7518WAT    HW222554   6.385   6.100   5.008
 7519WAT     OW22555   0.148   0.811   1.996
 7519WAT    HW122556   0.130   0.718   1.991
 7519WAT    HW222557   0.225   0.824   1.941
 7520WAT     OW22558   3.046   5.193   2.267
 7520WAT    HW122559   3.059   5.216   2.175
 7520WAT    HW222560   3.133   5.171   2.299
 7521WAT     OW22561   2.485   5.092   3.757
 7521WAT    HW122562   2.494   5.154   3.685
 7521WAT    HW222563   2.390   5.083   3.770
 7522WAT     OW22564   2.996   1.156   2.498
 7522WAT    HW122565   2.961   1.245   2.488
 7522WAT    HW222566   3.089   1.168   2.517
 7523WAT     OW22567   0.234   2.237   4.480
 7523WAT    HW122568   0.166   2.209   4.418
 7523WAT    HW222569   0.240   2.332   4.468
 7524WAT     OW22570   4.004   5.444   0.851
 7524WAT    HW122571   3.998   5.534   0.881
 7524WAT    HW222572   4.094   5.418   0.871
 7525WAT     OW22573   2.406   5.602   5.013
 7525WAT    HW122574   2.487   5.592   4.963
 7525WAT    HW222575   2.395   5.696   5.025
 7526WAT     OW22576   3.293   4.710   0.631
 7526WAT    HW122577   3.224   4.776   0.641
 7526WAT    HW222578   3.258   4.649   0.565
 7527WAT     OW22579   6.574   5.103   2.190
 7527WAT    HW122580   6.497   5.096   2.134
 7527WAT    HW222581   6.572   5.023   2.243
 7528WAT     OW22582   5.411   2.617   0.341
 7528WAT    HW122583   5.451   2.679   0.402
 7528WAT    HW222584   5.426   2.531   0.381
 7529WAT     OW22585   1.147   1.676   3.655
 7529WAT    HW122586   1.117   1.592   3.620
 7529WAT    HW222587   1.201   1.652   3.730
 7530WAT     OW22588   0.276   5.917   6.119
 7530WAT    HW122589   0.186   5.947   6.108
 7530WAT    HW222590   0.271   5.850   6.187
 7531WAT     OW22591   1.845   0.823   2.307
 7531WAT    HW122592   1.896   0.885   2.359
 7531WAT    HW222593   1.907   0.790   2.242
 7532WAT     OW22594   1.561   0.367   5.821
 7532WAT    HW122595   1.545   0.279   5.789
 7532WAT    HW222596   1.656   0.374   5.826
 7533WAT     OW22597   5.490   5.058   2.981
 7533WAT    HW122598   5.428   5.111   3.032
 7533WAT    HW222599   5.572   5.067   3.029
 7534WAT     OW22600   5.512   4.922   0.963
 7534WAT    HW122601   5.462   4.844   0.987
 7534WAT    HW222602   5.530   4.911   0.870
 7535WAT     OW22603   0.711   1.117   0.913
 7535WAT    HW122604   0.651   1.043   0.899
 7535WAT    HW222605   0.664   1.176   0.971
 7536WAT     OW22606   6.043   6.319   4.055
 7536WAT    HW122607   6.099   6.329   3.978
 7536WAT    HW222608   6.001   6.404   4.066
 7537WAT     OW22609   0.226   5.515   3.169
 7537WAT    HW122610   0.257   5.509   3.079
 7537WAT    HW222611   0.178   5.597   3.172
 7538WAT     OW22612   4.045   5.877   6.662
 7538WAT    HW122613   4.084   5.960   6.686
 7538WAT    HW222614   4.049   5.875   6.566
 7539WAT     OW22615   4.237   1.894   4.764
 7539WAT    HW122616   4.187   1.956   4.816
 7539WAT    HW222617   4.259   1.824   4.825
 7540WAT     OW22618   5.709   3.029   5.039
 7540WAT    HW122619   5.716   3.059   4.948
 7540WAT    HW222620   5.627   3.067   5.070
 7541WAT     OW22621   0.993   2.516   3.873
 7541WAT    HW122622   0.991   2.420   3.876
 7541WAT    HW222623   0.910   2.541   3.832
 7542WAT     OW22624   2.310   5.804   4.646
 7542WAT    HW122625   2.226   5.787   4.688
 7542WAT    HW222626   2.289   5.807   4.552
 7543WAT     OW22627   6.124   1.455   2.611
 7543WAT    HW122628   6.206   1.431   2.567
 7543WAT    HW222629   6.107   1.545   2.582
 7544WAT     OW22630   5.641   2.061   6.150
 7544WAT    HW122631   5.720   2.048   6.098
 7544WAT    HW222632   5.571   2.069   6.086
 7545WAT     OW22633   0.994   2.930   5.410
 7545WAT    HW122634   0.930   2.866   5.380
 7545WAT    HW222635   1.066   2.924   5.347
 7546WAT     OW22636   5.791   3.413   1.545
 7546WAT    HW122637   5.759   3.501   1.529
 7546WAT    HW222638   5.789   3.370   1.460
 7547WAT     OW22639   3.058   5.958   5.987
 7547WAT    HW122640   3.074   6.038   6.037
 7547WAT    HW222641   3.144   5.933   5.953
 7548WAT     OW22642   1.903   5.858   5.622
 7548WAT    HW122643   1.924   5.905   5.703
 7548WAT    HW222644   1.936   5.769   5.638
 7549WAT     OW22645   1.161   1.337   5.175
 7549WAT    HW122646   1.073   1.319   5.140
 7549WAT    HW222647   1.190   1.254   5.211
 7550WAT     OW22648   0.983   0.268   3.358
 7550WAT    HW122649   0.998   0.185   3.402
 7550WAT    HW222650   1.019   0.334   3.417
 7551WAT     OW22651   1.390   5.380   0.792
 7551WAT    HW122652   1.421   5.428   0.715
 7551WAT    HW222653   1.381   5.447   0.859
 7552WAT     OW22654   0.016   3.505   1.844
 7552WAT    HW122655   0.028   3.584   1.896
 7552WAT    HW222656  -0.075   3.510   1.815
 7553WAT     OW22657   2.174   4.083   4.374
 7553WAT    HW122658   2.104   4.078   4.439
 7553WAT    HW222659   2.177   3.995   4.335
 7554WAT     OW22660   6.601   4.593   3.559
 7554WAT    HW122661   6.648   4.591   3.476
 7554WAT    HW222662   6.518   4.636   3.539
 7555WAT     OW22663   5.893   0.398   1.850
 7555WAT    HW122664   5.947   0.410   1.928
 7555WAT    HW222665   5.839   0.322   1.869
 7556WAT     OW22666   4.672   3.553   4.187
 7556WAT    HW122667   4.701   3.482   4.129
 7556WAT    HW222668   4.721   3.539   4.268
 7557WAT     OW22669   3.425   1.759   1.835
 7557WAT    HW122670   3.513   1.762   1.872
 7557WAT    HW222671   3.383   1.839   1.866
 7558WAT     OW22672   3.592   0.439   0.694
 7558WAT    HW122673   3.524   0.507   0.689
 7558WAT    HW222674   3.549   0.366   0.739
 7559WAT     OW22675   3.217   0.694   0.145
 7559WAT    HW122676   3.290   0.647   0.105
 7559WAT    HW222677   3.206   0.772   0.091
 7560WAT     OW22678   5.897   1.652   3.064
 7560WAT    HW122679   5.979   1.605   3.051
 7560WAT    HW222680   5.921   1.729   3.116
 7561WAT     OW22681   2.100   2.680   1.719
 7561WAT    HW122682   2.174   2.636   1.677
 7561WAT    HW222683   2.030   2.615   1.718
 7562WAT     OW22684   0.512   5.495   1.353
 7562WAT    HW122685   0.435   5.551   1.363
 7562WAT    HW222686   0.586   5.550   1.379
 7563WAT     OW22687   0.304   5.050   1.273
 7563WAT    HW122688   0.352   5.118   1.321
 7563WAT    HW222689   0.285   4.984   1.339
 7564WAT     OW22690   3.556   2.809   5.046
 7564WAT    HW122691   3.622   2.803   4.976
 7564WAT    HW222692   3.506   2.888   5.025
 7565WAT     OW22693   2.118   1.171   1.477
 7565WAT    HW122694   2.022   1.165   1.483
 7565WAT    HW222695   2.148   1.082   1.495
 7566WAT     OW22696   4.574   6.383   4.797
 7566WAT    HW122697   4.511   6.343   4.856
 7566WAT    HW222698   4.620   6.310   4.757
 7567WAT     OW22699   5.014   3.694   4.773
 7567WAT    HW122700   4.950   3.639   4.729
 7567WAT    HW222701   4.996   3.682   4.866
 7568WAT     OW22702   5.446   6.160   3.423
 7568WAT    HW122703   5.534   6.170   3.459
 7568WAT    HW222704   5.460   6.143   3.330
 7569WAT     OW22705   6.235   4.413   6.653
 7569WAT    HW122706   6.293   4.425   6.729
 7569WAT    HW222707   6.154   4.456   6.678
 7570WAT     OW22708   6.239   4.564   4.540
 7570WAT    HW122709   6.171   4.498   4.558
 7570WAT    HW222710   6.216   4.600   4.454
 7571WAT     OW22711   3.450   6.520   3.536
 7571WAT    HW122712   3.406   6.466   3.602
 7571WAT    HW222713   3.531   6.472   3.516
 7572WAT     OW22714   0.268   4.079   5.092
 7572WAT    HW122715   0.355   4.068   5.129
 7572WAT    HW222716   0.266   4.023   5.015
 7573WAT     OW22717   6.049   3.527   1.934
 7573WAT    HW122718   5.966   3.522   1.886
 7573WAT    HW222719   6.023   3.529   2.026
 7574WAT     OW22720   0.284   6.316   1.791
 7574WAT    HW122721   0.363   6.263   1.805
 7574WAT    HW222722   0.305   6.401   1.831
 7575WAT     OW22723   3.221   2.923   3.611
 7575WAT    HW122724   3.171   2.843   3.597
 7575WAT    HW222725   3.206   2.975   3.532
 7576WAT     OW22726   3.235   5.460   6.366
 7576WAT    HW122727   3.303   5.404   6.402
 7576WAT    HW222728   3.273   5.499   6.288
 7577WAT     OW22729   0.644   5.168   5.408
 7577WAT    HW122730   0.691   5.141   5.328
 7577WAT    HW222731   0.556   5.134   5.396
 7578WAT     OW22732   2.888   2.349   3.879
 7578WAT    HW122733   2.808   2.397   3.859
 7578WAT    HW222734   2.893   2.281   3.812
 7579WAT     OW22735   5.344   0.582   4.019
 7579WAT    HW122736   5.264   0.634   4.015
 7579WAT    HW222737   5.331   0.523   4.093
 7580WAT     OW22738   0.652   2.769   3.622
 7580WAT    HW122739   0.565   2.810   3.627
 7580WAT    HW222740   0.660   2.744   3.530
 7581WAT     OW22741   5.793   5.644   1.092
 7581WAT    HW122742   5.820   5.643   1.184
 7581WAT    HW222743   5.835   5.567   1.053
 7582WAT     OW22744   0.440   2.496   2.529
 7582WAT    HW122745   0.385   2.551   2.585
 7582WAT    HW222746   0.524   2.542   2.525
 7583WAT     OW22747   3.596   4.859   1.778
 7583WAT    HW122748   3.554   4.809   1.707
 7583WAT    HW222749   3.606   4.947   1.743
 7584WAT     OW22750   4.104   5.612   3.817
 7584WAT    HW122751   4.195   5.615   3.788
 7584WAT    HW222752   4.053   5.605   3.736
 7585WAT     OW22753   2.061   0.748   4.915
 7585WAT    HW122754   1.989   0.777   4.858
 7585WAT    HW222755   2.127   0.816   4.907
 7586WAT     OW22756   3.187   3.048   3.371
 7586WAT    HW122757   3.116   2.989   3.346
 7586WAT    HW222758   3.242   3.054   3.293
 7587WAT     OW22759   6.646   0.804   6.031
 7587WAT    HW122760   6.682   0.793   5.943
 7587WAT    HW222761   6.703   0.869   6.072
 7588WAT     OW22762   3.560   2.133   3.718
 7588WAT    HW122763   3.496   2.176   3.775
 7588WAT    HW222764   3.521   2.048   3.698
 7589WAT     OW22765   5.736   2.028   0.973
 7589WAT    HW122766   5.824   2.010   0.942
 7589WAT    HW222767   5.700   2.091   0.911
 7590WAT     OW22768   1.258   4.833   1.047
 7590WAT    HW122769   1.168   4.817   1.018
 7590WAT    HW222770   1.288   4.748   1.080
 7591WAT     OW22771   5.398   5.554   6.371
 7591WAT    HW122772   5.402   5.600   6.287
 7591WAT    HW222773   5.341   5.608   6.426
 7592WAT     OW22774   3.945   6.372   5.550
 7592WAT    HW122775   4.032   6.373   5.590
 7592WAT    HW222776   3.892   6.319   5.609
 7593WAT     OW22777   6.566   0.360   0.122
 7593WAT    HW122778   6.508   0.345   0.047
 7593WAT    HW222779   6.654   0.350   0.085
 7594WAT     OW22780   1.265   1.814   6.041
 7594WAT    HW122781   1.265   1.909   6.027
 7594WAT    HW222782   1.263   1.776   5.953
 7595WAT     OW22783   6.026   2.361   1.007
 7595WAT    HW122784   6.056   2.428   1.069
 7595WAT    HW222785   6.066   2.386   0.924
 7596WAT     OW22786   1.652   3.778   1.338
 7596WAT    HW122787   1.679   3.749   1.250
 7596WAT    HW222788   1.727   3.827   1.371
 7597WAT     OW22789   6.011   3.287   6.281
 7597WAT    HW122790   6.105   3.281   6.261
 7597WAT    HW222791   5.980   3.359   6.226
 7598WAT     OW22792   3.740   4.419   2.663
 7598WAT    HW122793   3.754   4.514   2.673
 7598WAT    HW222794   3.685   4.411   2.585
 7599WAT     OW22795   4.529   4.452   6.685
 7599WAT    HW122796   4.550   4.407   6.603
 7599WAT    HW222797   4.597   4.519   6.693
 7600WAT     OW22798   3.111   4.324   6.342
 7600WAT    HW122799   3.131   4.348   6.432
 7600WAT    HW222800   3.133   4.403   6.291
 7601WAT     OW22801   4.802   2.592   5.947
 7601WAT    HW122802   4.867   2.534   5.986
 7601WAT    HW222803   4.839   2.680   5.957
 7602WAT     OW22804   2.958   5.941   6.528
 7602WAT    HW122805   3.053   5.943   6.538
 7602WAT    HW222806   2.939   6.006   6.460
 7603WAT     OW22807   6.592   3.473   2.550
 7603WAT    HW122808   6.630   3.435   2.629
 7603WAT    HW222809   6.637   3.429   2.478
 7604WAT     OW22810   0.486   6.096   0.585
 7604WAT    HW122811   0.440   6.177   0.608
 7604WAT    HW222812   0.442   6.029   0.637
 7605WAT     OW22813   0.091   2.870   4.259
 7605WAT    HW122814   0.114   2.935   4.193
 7605WAT    HW222815   0.008   2.833   4.228
 7606WAT     OW22816   3.582   4.520   6.076
 7606WAT    HW122817   3.556   4.520   6.168
 7606WAT    HW222818   3.635   4.441   6.066
 7607WAT     OW22819   1.208   3.996   4.872
 7607WAT    HW122820   1.287   3.943   4.870
 7607WAT    HW222821   1.145   3.945   4.924
 7608WAT     OW22822   2.730   1.144   4.948
 7608WAT    HW122823   2.672   1.200   4.896
 7608WAT    HW222824   2.810   1.138   4.896
 7609WAT     OW22825   3.506   5.067   1.465
 7609WAT    HW122826   3.580   5.081   1.525
 7609WAT    HW222827   3.429   5.067   1.522
 7610WAT     OW22828   2.315   6.097   1.543
 7610WAT    HW122829   2.366   6.039   1.600
 7610WAT    HW222830   2.370   6.175   1.533
 7611WAT     OW22831   1.297   3.892   3.468
 7611WAT    HW122832   1.295   3.797   3.452
 7611WAT    HW222833   1.236   3.905   3.540
 7612WAT     OW22834   1.675   0.540   2.845
 7612WAT    HW122835   1.658   0.623   2.801
 7612WAT    HW222836   1.717   0.485   2.778
 7613WAT     OW22837   1.115   0.697   1.013
 7613WAT    HW122838   1.153   0.669   1.097
 7613WAT    HW222839   1.136   0.790   1.007
 7614WAT     OW22840   6.657   3.740   1.975
 7614WAT    HW122841   6.616   3.825   1.992
 7614WAT    HW222842   6.620   3.682   2.042
 7615WAT     OW22843   4.411   1.927   4.551
 7615WAT    HW122844   4.346   1.923   4.620
 7615WAT    HW222845   4.446   1.838   4.547
 7616WAT     OW22846   5.874   5.971   2.112
 7616WAT    HW122847   5.881   6.061   2.080
 7616WAT    HW222848   5.788   5.941   2.082
 7617WAT     OW22849   4.846   6.248   3.689
 7617WAT    HW122850   4.930   6.203   3.702
 7617WAT    HW222851   4.822   6.281   3.775
 7618WAT     OW22852   3.860   6.057   0.411
 7618WAT    HW122853   3.800   6.060   0.337
 7618WAT    HW222854   3.868   5.963   0.431
 7619WAT     OW22855   0.272   6.584   5.352
 7619WAT    HW122856   0.241   6.514   5.409
 7619WAT    HW222857   0.215   6.658   5.371
 7620WAT     OW22858   0.536   6.693   3.654
 7620WAT    HW122859   0.477   6.707   3.728
 7620WAT    HW222860   0.597   6.626   3.685
 7621WAT     OW22861   1.112   0.453   2.322
 7621WAT    HW122862   1.170   0.526   2.346
 7621WAT    HW222863   1.156   0.411   2.248
 7622WAT     OW22864   4.965   2.467   3.567
 7622WAT    HW122865   5.001   2.435   3.649
 7622WAT    HW222866   5.023   2.431   3.500
 7623WAT     OW22867   0.761   3.072   3.411
 7623WAT    HW122868   0.813   3.138   3.365
 7623WAT    HW222869   0.821   2.998   3.422
 7624WAT     OW22870   1.253   5.575   4.451
 7624WAT    HW122871   1.281   5.487   4.426
 7624WAT    HW222872   1.158   5.571   4.453
 7625WAT     OW22873   3.937   6.158   2.484
 7625WAT    HW122874   4.030   6.136   2.488
 7625WAT    HW222875   3.892   6.078   2.511
 7626WAT     OW22876   3.446   5.146   4.587
 7626WAT    HW122877   3.500   5.087   4.640
 7626WAT    HW222878   3.437   5.225   4.640
 7627WAT     OW22879   4.861   1.464   5.181
 7627WAT    HW122880   4.829   1.548   5.214
 7627WAT    HW222881   4.955   1.465   5.198
 7628WAT     OW22882   5.014   1.497   4.258
 7628WAT    HW122883   5.002   1.449   4.340
 7628WAT    HW222884   5.089   1.455   4.216
 7629WAT     OW22885   2.372   5.464   2.621
 7629WAT    HW122886   2.390   5.471   2.527
 7629WAT    HW222887   2.404   5.547   2.658
 7630WAT     OW22888   2.382   1.383   6.184
 7630WAT    HW122889   2.452   1.423   6.132
 7630WAT    HW222890   2.423   1.307   6.225
 7631WAT     OW22891   6.035   1.951   2.220
 7631WAT    HW122892   6.008   1.920   2.134
 7631WAT    HW222893   5.957   1.942   2.274
 7632WAT     OW22894   3.553   6.445   3.927
 7632WAT    HW122895   3.516   6.360   3.951
 7632WAT    HW222896   3.610   6.425   3.852
 7633WAT     OW22897   0.306   4.513   0.269
 7633WAT    HW122898   0.245   4.548   0.204
 7633WAT    HW222899   0.256   4.447   0.316
 7634WAT     OW22900   2.473   5.725   0.297
 7634WAT    HW122901   2.391   5.677   0.290
 7634WAT    HW222902   2.534   5.663   0.338
 7635WAT     OW22903   4.798   1.824   4.960
 7635WAT    HW122904   4.786   1.903   5.013
 7635WAT    HW222905   4.880   1.785   4.993
 7636WAT     OW22906   5.190   4.380   3.478
 7636WAT    HW122907   5.260   4.340   3.529
 7636WAT    HW222908   5.159   4.311   3.420
 7637WAT     OW22909   3.902   3.578   6.491
 7637WAT    HW122910   3.922   3.505   6.550
 7637WAT    HW222911   3.987   3.614   6.467
 7638WAT     OW22912   0.762   1.911   1.991
 7638WAT    HW122913   0.783   1.975   2.060
 7638WAT    HW222914   0.839   1.854   1.987
 7639WAT     OW22915   5.539   5.305   5.478
 7639WAT    HW122916   5.504   5.237   5.419
 7639WAT    HW222917   5.634   5.297   5.469
 7640WAT     OW22918   0.006   5.477   5.102
 7640WAT    HW122919  -0.045   5.440   5.030
 7640WAT    HW222920  -0.052   5.540   5.144
 7641WAT     OW22921   3.571   2.842   1.381
 7641WAT    HW122922   3.497   2.895   1.352
 7641WAT    HW222923   3.532   2.762   1.415
 7642WAT     OW22924   1.062   4.789   0.340
 7642WAT    HW122925   1.091   4.707   0.300
 7642WAT    HW222926   0.997   4.763   0.405
 7643WAT     OW22927   3.647   4.140   1.378
 7643WAT    HW122928   3.704   4.214   1.356
 7643WAT    HW222929   3.704   4.080   1.428
 7644WAT     OW22930   3.822   0.497   6.341
 7644WAT    HW122931   3.751   0.491   6.277
 7644WAT    HW222932   3.841   0.591   6.346
 7645WAT     OW22933   6.305   6.437   4.848
 7645WAT    HW122934   6.371   6.371   4.825
 7645WAT    HW222935   6.271   6.467   4.763
 7646WAT     OW22936   4.292   3.164   0.350
 7646WAT    HW122937   4.296   3.252   0.387
 7646WAT    HW222938   4.368   3.158   0.292
 7647WAT     OW22939   3.495   1.468   0.008
 7647WAT    HW122940   3.428   1.421   0.058
 7647WAT    HW222941   3.452   1.490  -0.075
 7648WAT     OW22942   4.069   2.800   0.423
 7648WAT    HW122943   4.140   2.753   0.380
 7648WAT    HW222944   4.112   2.873   0.467
 7649WAT     OW22945   0.721   1.355   1.939
 7649WAT    HW122946   0.708   1.426   1.877
 7649WAT    HW222947   0.636   1.312   1.944
 7650WAT     OW22948   2.472   4.892   0.625
 7650WAT    HW122949   2.497   4.963   0.684
 7650WAT    HW222950   2.545   4.830   0.630
 7651WAT     OW22951   3.068   6.099   0.759
 7651WAT    HW122952   2.997   6.039   0.737
 7651WAT    HW222953   3.024   6.182   0.776
 7652WAT     OW22954   0.744   3.416   0.976
 7652WAT    HW122955   0.770   3.358   1.048
 7652WAT    HW222956   0.794   3.384   0.901
 7653WAT     OW22957   0.633   4.834   6.692
 7653WAT    HW122958   0.729   4.835   6.698
 7653WAT    HW222959   0.610   4.742   6.695
 7654WAT     OW22960   4.786   6.207   5.860
 7654WAT    HW122961   4.792   6.302   5.846
 7654WAT    HW222962   4.873   6.182   5.892
 7655WAT     OW22963   2.771   2.332   5.213
 7655WAT    HW122964   2.800   2.243   5.197
 7655WAT    HW222965   2.675   2.327   5.216
 7656WAT     OW22966   4.501   3.614   5.655
 7656WAT    HW122967   4.535   3.649   5.573
 7656WAT    HW222968   4.426   3.560   5.629
 7657WAT     OW22969   6.500   5.775   0.345
 7657WAT    HW122970   6.568   5.743   0.286
 7657WAT    HW222971   6.419   5.765   0.296
 7658WAT     OW22972   5.303   0.955   3.803
 7658WAT    HW122973   5.354   1.030   3.771
 7658WAT    HW222974   5.240   0.993   3.864
 7659WAT     OW22975   4.784   6.492   3.564
 7659WAT    HW122976   4.814   6.403   3.586
 7659WAT    HW222977   4.793   6.541   3.645
 7660WAT     OW22978   6.038   4.825   1.445
 7660WAT    HW122979   5.984   4.880   1.389
 7660WAT    HW222980   6.069   4.885   1.514
 7661WAT     OW22981   0.758   4.483   0.409
 7661WAT    HW122982   0.801   4.555   0.456
 7661WAT    HW222983   0.696   4.526   0.350
 7662WAT     OW22984   2.738   0.183   3.618
 7662WAT    HW122985   2.805   0.148   3.676
 7662WAT    HW222986   2.750   0.278   3.621
 7663WAT     OW22987   3.559   1.505   2.147
 7663WAT    HW122988   3.622   1.468   2.209
 7663WAT    HW222989   3.596   1.486   2.061
 7664WAT     OW22990   3.904   6.085   1.418
 7664WAT    HW122991   3.895   6.108   1.325
 7664WAT    HW222992   3.845   6.011   1.430
 7665WAT     OW22993   0.028   1.014   0.511
 7665WAT    HW122994   0.075   1.077   0.457
 7665WAT    HW222995  -0.025   1.067   0.569
 7666WAT     OW22996   6.169   0.940   6.657
 7666WAT    HW122997   6.076   0.926   6.636
 7666WAT    HW222998   6.205   0.852   6.666
 7667WAT     OW22999   0.365   6.234   3.867
 7667WAT    HW123000   0.369   6.156   3.922
 7667WAT    HW223001   0.279   6.271   3.885
 7668WAT     OW23002   3.672   1.060   3.598
 7668WAT    HW123003   3.631   1.116   3.532
 7668WAT    HW223004   3.766   1.077   3.588
 7669WAT     OW23005   0.225   2.878   3.219
 7669WAT    HW123006   0.152   2.866   3.159
 7669WAT    HW223007   0.220   2.970   3.244
 7670WAT     OW23008   3.627   2.898   6.415
 7670WAT    HW123009   3.612   2.992   6.409
 7670WAT    HW223010   3.552   2.859   6.369
 7671WAT     OW23011   3.378   4.440   4.703
 7671WAT    HW123012   3.337   4.370   4.753
 7671WAT    HW223013   3.313   4.465   4.637
 7672WAT     OW23014   1.878   1.919   3.622
 7672WAT    HW123015   1.895   1.844   3.679
 7672WAT    HW223016   1.941   1.985   3.650
 7673WAT     OW23017   1.389   6.677   0.283
 7673WAT    HW123018   1.433   6.597   0.313
 7673WAT    HW223019   1.305   6.646   0.249
 7674WAT     OW23020   2.521   3.707   3.493
 7674WAT    HW123021   2.493   3.616   3.498
 7674WAT    HW223022   2.588   3.716   3.560
 7675WAT     OW23023   4.041   5.105   3.981
 7675WAT    HW123024   3.968   5.149   4.024
 7675WAT    HW223025   4.056   5.154   3.901
 7676WAT     OW23026   3.388   6.700   2.709
 7676WAT    HW123027   3.328   6.749   2.653
 7676WAT    HW223028   3.432   6.766   2.761
 7677WAT     OW23029   1.214   5.944   2.876
 7677WAT    HW123030   1.126   5.909   2.888
 7677WAT    HW223031   1.204   6.014   2.811
 7678WAT     OW23032   1.106   2.081   5.790
 7678WAT    HW123033   1.113   2.171   5.760
 7678WAT    HW223034   1.168   2.075   5.863
 7679WAT     OW23035   1.069   0.744   3.877
 7679WAT    HW123036   1.140   0.767   3.817
 7679WAT    HW223037   1.015   0.823   3.880
 7680WAT     OW23038   6.061   2.498   4.591
 7680WAT    HW123039   6.091   2.587   4.572
 7680WAT    HW223040   6.029   2.465   4.507
 7681WAT     OW23041   4.689   2.949   6.049
 7681WAT    HW123042   4.675   3.028   5.997
 7681WAT    HW223043   4.774   2.916   6.020
 7682WAT     OW23044   3.306   0.371   6.544
 7682WAT    HW123045   3.252   0.348   6.620
 7682WAT    HW223046   3.371   0.300   6.539
 7683WAT     OW23047   1.360   5.216   4.020
 7683WAT    HW123048   1.367   5.126   4.053
 7683WAT    HW223049   1.381   5.209   3.927
 7684WAT     OW23050   2.441   5.722   2.694
 7684WAT    HW123051   2.518   5.729   2.638
 7684WAT    HW223052   2.455   5.788   2.762
 7685WAT     OW23053   4.430   5.644   4.746
 7685WAT    HW123054   4.471   5.637   4.659
 7685WAT    HW223055   4.391   5.731   4.747
 7686WAT     OW23056   2.078   6.680   2.118
 7686WAT    HW123057   1.997   6.646   2.080
 7686WAT    HW223058   2.067   6.775   2.117
 7687WAT     OW23059   6.348   6.211   1.595
 7687WAT    HW123060   6.435   6.249   1.581
 7687WAT    HW223061   6.366   6.118   1.611
 7688WAT     OW23062   4.207   2.491   3.246
 7688WAT    HW123063   4.160   2.574   3.238
 7688WAT    HW223064   4.237   2.490   3.337
 7689WAT     OW23065   6.463   6.517   2.425
 7689WAT    HW123066   6.520   6.488   2.497
 7689WAT    HW223067   6.384   6.463   2.434
 7690WAT     OW23068   0.398   0.719   1.564
 7690WAT    HW123069   0.452   0.649   1.528
 7690WAT    HW223070   0.324   0.674   1.604
 7691WAT     OW23071   4.133   4.465   1.007
 7691WAT    HW123072   4.204   4.494   1.063
 7691WAT    HW223073   4.085   4.545   0.985
 7692WAT     OW23074   1.056   3.232   4.905
 7692WAT    HW123075   1.111   3.310   4.905
 7692WAT    HW223076   1.007   3.235   4.823
 7693WAT     OW23077   3.948   3.089   1.549
 7693WAT    HW123078   4.011   3.131   1.608
 7693WAT    HW223079   3.955   2.995   1.569
 7694WAT     OW23080   3.154   4.735   2.395
 7694WAT    HW123081   3.096   4.661   2.376
 7694WAT    HW223082   3.104   4.812   2.369
 7695WAT     OW23083   2.622   1.198   6.046
 7695WAT    HW123084   2.615   1.169   6.137
 7695WAT    HW223085   2.686   1.139   6.007
 7696WAT     OW23086   1.374   3.906   5.285
 7696WAT    HW123087   1.311   3.952   5.340
 7696WAT    HW223088   1.412   3.974   5.230
 7697WAT     OW23089   6.469   6.206   0.086
 7697WAT    HW123090   6.413   6.282   0.073
 7697WAT    HW223091   6.544   6.239   0.135
 7698WAT     OW23092   3.906   1.628   2.303
 7698WAT    HW123093   3.907   1.666   2.215
 7698WAT    HW223094   3.858   1.547   2.294
 7699WAT     OW23095   2.082   5.203   6.433
 7699WAT    HW123096   2.102   5.262   6.361
 7699WAT    HW223097   2.125   5.121   6.411
 7700WAT     OW23098   5.077   2.813   1.553
 7700WAT    HW123099   5.158   2.863   1.543
 7700WAT    HW223100   5.055   2.784   1.465
 7701WAT     OW23101   4.658   0.065   0.020
 7701WAT    HW123102   4.622   0.079  -0.068
 7701WAT    HW223103   4.694  -0.024   0.017
 7702WAT     OW23104   3.933   5.519   3.320
 7702WAT    HW123105   3.927   5.439   3.269
 7702WAT    HW223106   4.010   5.565   3.285
 7703WAT     OW23107   6.483   5.385   1.759
 7703WAT    HW123108   6.480   5.480   1.746
 7703WAT    HW223109   6.436   5.370   1.841
 7704WAT     OW23110   2.846   3.994   1.619
 7704WAT    HW123111   2.760   4.031   1.636
 7704WAT    HW223112   2.906   4.068   1.624
 7705WAT     OW23113   6.059   3.761   4.503
 7705WAT    HW123114   6.006   3.819   4.558
 7705WAT    HW223115   6.149   3.778   4.530
 7706WAT     OW23116   0.376   0.336   2.506
 7706WAT    HW123117   0.318   0.289   2.446
 7706WAT    HW223118   0.353   0.302   2.592
 7707WAT     OW23119   2.498   6.468   0.203
 7707WAT    HW123120   2.411   6.508   0.201
 7707WAT    HW223121   2.540   6.506   0.280
 7708WAT     OW23122   4.265   5.401   0.939
 7708WAT    HW123123   4.294   5.318   0.977
 7708WAT    HW223124   4.341   5.434   0.892
 7709WAT     OW23125   2.032   3.625   5.118
 7709WAT    HW123126   2.039   3.710   5.161
 7709WAT    HW223127   2.019   3.562   5.189
 7710WAT     OW23128   3.064   2.817   6.199
 7710WAT    HW123129   2.992   2.864   6.157
 7710WAT    HW223130   3.143   2.852   6.158
 7711WAT     OW23131   6.700   4.352   1.727
 7711WAT    HW123132   6.618   4.380   1.766
 7711WAT    HW223133   6.676   4.279   1.670
 7712WAT     OW23134   2.025   1.983   2.735
 7712WAT    HW123135   1.942   2.013   2.773
 7712WAT    HW223136   2.071   2.064   2.712
 7713WAT     OW23137   5.778   4.669   5.959
 7713WAT    HW123138   5.774   4.573   5.960
 7713WAT    HW223139   5.863   4.690   5.998
 7714WAT     OW23140   3.645   5.580   0.620
 7714WAT    HW123141   3.621   5.666   0.586
 7714WAT    HW223142   3.635   5.589   0.715
 7715WAT     OW23143   5.699   0.867   5.834
 7715WAT    HW123144   5.659   0.917   5.762
 7715WAT    HW223145   5.765   0.813   5.792
 7716WAT     OW23146   1.288   2.311   2.863
 7716WAT    HW123147   1.325   2.310   2.951
 7716WAT    HW223148   1.363   2.315   2.805
 7717WAT     OW23149   3.485   3.460   5.576
 7717WAT    HW123150   3.479   3.553   5.553
 7717WAT    HW223151   3.563   3.429   5.531
 7718WAT     OW23152   4.524   4.490   0.765
 7718WAT    HW123153   4.444   4.543   0.769
 7718WAT    HW223154   4.526   4.443   0.849
 7719WAT     OW23155   0.430   1.121   4.008
 7719WAT    HW123156   0.361   1.131   3.943
 7719WAT    HW223157   0.414   1.191   4.072
 7720WAT     OW23158   1.870   2.437   4.169
 7720WAT    HW123159   1.893   2.381   4.244
 7720WAT    HW223160   1.888   2.526   4.200
 7721WAT     OW23161   4.962   5.059   0.836
 7721WAT    HW123162   4.905   4.988   0.805
 7721WAT    HW223163   5.013   5.085   0.759
 7722WAT     OW23164   6.499   0.934   0.788
 7722WAT    HW123165   6.563   0.863   0.795
 7722WAT    HW223166   6.415   0.891   0.777
 7723WAT     OW23167   6.643   1.608   3.151
 7723WAT    HW123168   6.675   1.665   3.081
 7723WAT    HW223169   6.692   1.635   3.228
 7724WAT     OW23170   3.684   1.596   4.151
 7724WAT    HW123171   3.650   1.607   4.062
 7724WAT    HW223172   3.720   1.508   4.152
 7725WAT     OW23173   5.027   0.051   2.779
 7725WAT    HW123174   4.975   0.094   2.712
 7725WAT    HW223175   5.028   0.113   2.852
 7726WAT     OW23176   1.575   0.970   4.467
 7726WAT    HW123177   1.528   0.898   4.509
 7726WAT    HW223178   1.509   1.038   4.454
 7727WAT     OW23179   3.492   5.357   0.603
 7727WAT    HW123180   3.528   5.309   0.678
 7727WAT    HW223181   3.546   5.436   0.597
 7728WAT     OW23182   4.304   2.442   0.599
 7728WAT    HW123183   4.225   2.495   0.611
 7728WAT    HW223184   4.276   2.370   0.543
 7729WAT     OW23185   3.230   4.342   2.994
 7729WAT    HW123186   3.249   4.321   3.085
 7729WAT    HW223187   3.135   4.353   2.991
 7730WAT     OW23188   3.054   3.660   1.705
 7730WAT    HW123189   3.114   3.590   1.681
 7730WAT    HW223190   3.090   3.695   1.787
 7731WAT     OW23191   2.874   4.575   5.289
 7731WAT    HW123192   2.918   4.532   5.363
 7731WAT    HW223193   2.933   4.561   5.215
 7732WAT     OW23194   3.894   2.448   2.488
 7732WAT    HW123195   3.893   2.426   2.581
 7732WAT    HW223196   3.987   2.449   2.465
 7733WAT     OW23197   0.379   0.090   0.818
 7733WAT    HW123198   0.334   0.038   0.885
 7733WAT    HW223199   0.309   0.143   0.779
 7734WAT     OW23200   3.272   1.230   2.533
 7734WAT    HW123201   3.297   1.195   2.619
 7734WAT    HW223202   3.349   1.215   2.478
 7735WAT     OW23203   4.520   0.195   4.465
 7735WAT    HW123204   4.493   0.190   4.374
 7735WAT    HW223205   4.438   0.186   4.515
 7736WAT     OW23206   4.376   6.673   1.838
 7736WAT    HW123207   4.313   6.638   1.774
 7736WAT    HW223208   4.363   6.767   1.835
 7737WAT     OW23209   2.917   6.524   4.778
 7737WAT    HW123210   2.957   6.597   4.825
 7737WAT    HW223211   2.865   6.478   4.844
 7738WAT     OW23212   2.665   3.998   4.178
 7738WAT    HW123213   2.698   4.027   4.263
 7738WAT    HW223214   2.744   3.986   4.124
 7739WAT     OW23215   3.650   3.764   0.849
 7739WAT    HW123216   3.570   3.798   0.810
 7739WAT    HW223217   3.620   3.703   0.917
 7740WAT     OW23218   4.788   5.185   0.023
 7740WAT    HW123219   4.767   5.207   0.114
 7740WAT    HW223220   4.730   5.112   0.002
 7741WAT     OW23221   5.472   4.371   1.606
 7741WAT    HW123222   5.385   4.392   1.574
 7741WAT    HW223223   5.459   4.347   1.697
 7742WAT     OW23224   2.746   2.323   2.858
 7742WAT    HW123225   2.819   2.295   2.914
 7742WAT    HW223226   2.765   2.284   2.773
 7743WAT     OW23227   3.667   5.019   2.180
 7743WAT    HW123228   3.737   4.966   2.220
 7743WAT    HW223229   3.714   5.077   2.120
 7744WAT     OW23230   3.932   4.524   5.181
 7744WAT    HW123231   4.013   4.564   5.149
 7744WAT    HW223232   3.863   4.571   5.135
 7745WAT     OW23233   6.329   5.356   1.992
 7745WAT    HW123234   6.239   5.360   1.958
 7745WAT    HW223235   6.327   5.410   2.071
 7746WAT     OW23236   5.786   4.397   5.938
 7746WAT    HW123237   5.735   4.339   5.882
 7746WAT    HW223238   5.877   4.370   5.924
 7747WAT     OW23239   5.530   1.616   2.633
 7747WAT    HW123240   5.583   1.552   2.681
 7747WAT    HW223241   5.442   1.607   2.670
 7748WAT     OW23242   5.718   3.253   1.949
 7748WAT    HW123243   5.762   3.260   2.034
 7748WAT    HW223244   5.711   3.159   1.932
 7749WAT     OW23245   0.521   4.783   5.202
 7749WAT    HW123246   0.594   4.722   5.185
 7749WAT    HW223247   0.503   4.821   5.116
 7750WAT     OW23248   4.014   4.653   1.906
 7750WAT    HW123249   3.946   4.642   1.973
 7750WAT    HW223250   3.973   4.706   1.838
 7751WAT     OW23251   5.127   2.618   2.211
 7751WAT    HW123252   5.214   2.647   2.238
 7751WAT    HW223253   5.101   2.680   2.143
 7752WAT     OW23254   2.518   0.302   6.702
 7752WAT    HW123255   2.475   0.257   6.775
 7752WAT    HW223256   2.538   0.232   6.640
 7753WAT     OW23257   2.885   1.702   2.441
 7753WAT    HW123258   2.800   1.746   2.437
 7753WAT    HW223259   2.938   1.757   2.498
 7754WAT     OW23260   0.357   5.753   2.567
 7754WAT    HW123261   0.401   5.693   2.507
 7754WAT    HW223262   0.268   5.717   2.575
 7755WAT     OW23263   3.981   4.603   4.839
 7755WAT    HW123264   3.984   4.508   4.830
 7755WAT    HW223265   3.890   4.626   4.822
 7756WAT     OW23266   0.221   6.541   6.053
 7756WAT    HW123267   0.247   6.627   6.086
 7756WAT    HW223268   0.261   6.535   5.966
 7757WAT     OW23269   5.267   4.737   1.888
 7757WAT    HW123270   5.301   4.823   1.915
 7757WAT    HW223271   5.345   4.682   1.882
 7758WAT     OW23272   2.688   6.671   4.414
 7758WAT    HW123273   2.644   6.700   4.334
 7758WAT    HW223274   2.765   6.727   4.420
 7759WAT     OW23275   0.539   2.634   1.742
 7759WAT    HW123276   0.453   2.600   1.765
 7759WAT    HW223277   0.561   2.588   1.660
 7760WAT     OW23278   2.600   5.669   3.322
 7760WAT    HW123279   2.597   5.606   3.394
 7760WAT    HW223280   2.682   5.649   3.277
 7761WAT     OW23281   5.710   5.593   5.613
 7761WAT    HW123282   5.715   5.573   5.707
 7761WAT    HW223283   5.626   5.637   5.603
 7762WAT     OW23284   5.049   5.981   5.334
 7762WAT    HW123285   5.051   6.075   5.313
 7762WAT    HW223286   4.963   5.969   5.376
 7763WAT     OW23287   1.507   0.428   6.603
 7763WAT    HW123288   1.485   0.336   6.613
 7763WAT    HW223289   1.565   0.447   6.677
 7764WAT     OW23290   3.898   2.626   4.396
 7764WAT    HW123291   3.943   2.671   4.325
 7764WAT    HW223292   3.941   2.541   4.402
 7765WAT     OW23293   0.503   3.257   2.254
 7765WAT    HW123294   0.575   3.233   2.312
 7765WAT    HW223295   0.439   3.186   2.266
 7766WAT     OW23296   5.258   4.892   0.692
 7766WAT    HW123297   5.353   4.898   0.685
 7766WAT    HW223298   5.236   4.940   0.772
 7767WAT     OW23299   0.043   4.260   6.308
 7767WAT    HW123300   0.120   4.236   6.360
 7767WAT    HW223301  -0.031   4.220   6.353
 7768WAT     OW23302   0.486   2.990   3.981
 7768WAT    HW123303   0.581   2.991   3.998
 7768WAT    HW223304   0.459   3.081   3.988
 7769WAT     OW23305   6.366   6.344   5.605
 7769WAT    HW123306   6.304   6.302   5.546
 7769WAT    HW223307   6.420   6.400   5.549
 7770WAT     OW23308   4.087   0.713   2.668
 7770WAT    HW123309   3.997   0.688   2.647
 7770WAT    HW223310   4.117   0.646   2.728
 7771WAT     OW23311   5.566   4.683   4.837
 7771WAT    HW123312   5.584   4.756   4.778
 7771WAT    HW223313   5.653   4.651   4.862
 7772WAT     OW23314   0.322   6.196   4.735
 7772WAT    HW123315   0.272   6.120   4.705
 7772WAT    HW223316   0.366   6.166   4.814
 7773WAT     OW23317   1.625   5.928   2.777
 7773WAT    HW123318   1.567   5.984   2.725
 7773WAT    HW223319   1.566   5.874   2.829
 7774WAT     OW23320   0.907   5.116   6.472
 7774WAT    HW123321   0.968   5.165   6.417
 7774WAT    HW223322   0.873   5.047   6.414
 7775WAT     OW23323   5.215   0.538   5.522
 7775WAT    HW123324   5.267   0.618   5.518
 7775WAT    HW223325   5.127   0.565   5.495
 7776WAT     OW23326   1.404   6.250   5.612
 7776WAT    HW123327   1.400   6.192   5.688
 7776WAT    HW223328   1.482   6.304   5.627
 7777WAT     OW23329   0.985   6.542   3.357
 7777WAT    HW123330   0.977   6.631   3.392
 7777WAT    HW223331   1.032   6.494   3.425
 7778WAT     OW23332   0.351   5.031   0.756
 7778WAT    HW123333   0.342   5.011   0.849
 7778WAT    HW223334   0.344   5.126   0.750
 7779WAT     OW23335   3.374   3.164   2.727
 7779WAT    HW123336   3.407   3.170   2.637
 7779WAT    HW223337   3.362   3.255   2.754
 7780WAT     OW23338   4.410   3.942   3.879
 7780WAT    HW123339   4.410   3.893   3.961
 7780WAT    HW223340   4.458   3.886   3.818
 7781WAT     OW23341   5.782   2.620   1.755
 7781WAT    HW123342   5.775   2.526   1.771
 7781WAT    HW223343   5.762   2.660   1.839
 7782WAT     OW23344   2.838   4.401   1.519
 7782WAT    HW123345   2.893   4.325   1.539
 7782WAT    HW223346   2.756   4.383   1.565
 7783WAT     OW23347   6.675   0.143   2.428
 7783WAT    HW123348   6.670   0.060   2.380
 7783WAT    HW223349   6.614   0.132   2.501
 7784WAT     OW23350   5.055   4.064   5.179
 7784WAT    HW123351   5.011   4.133   5.130
 7784WAT    HW223352   4.989   3.996   5.192
 7785WAT     OW23353   2.752   4.658   3.610
 7785WAT    HW123354   2.717   4.738   3.649
 7785WAT    HW223355   2.675   4.608   3.584
 7786WAT     OW23356   3.949   2.434   2.014
 7786WAT    HW123357   3.900   2.516   2.007
 7786WAT    HW223358   3.890   2.376   2.062
 7787WAT     OW23359   1.827   1.055   6.163
 7787WAT    HW123360   1.741   1.096   6.152
 7787WAT    HW223361   1.889   1.127   6.150
 7788WAT     OW23362   0.764   5.437   6.464
 7788WAT    HW123363   0.729   5.511   6.513
 7788WAT    HW223364   0.702   5.366   6.480
 7789WAT     OW23365   0.147   3.850   2.959
 7789WAT    HW123366   0.147   3.798   2.879
 7789WAT    HW223367   0.090   3.801   3.019
 7790WAT     OW23368   6.683   6.673   6.359
 7790WAT    HW123369   6.617   6.742   6.350
 7790WAT    HW223370   6.637   6.603   6.405
 7791WAT     OW23371   4.783   2.148   2.841
 7791WAT    HW123372   4.687   2.152   2.841
 7791WAT    HW223373   4.805   2.098   2.920
 7792WAT     OW23374   1.635   0.450   5.057
 7792WAT    HW123375   1.690   0.377   5.084
 7792WAT    HW223376   1.634   0.445   4.962
 7793WAT     OW23377   3.613   4.847   2.500
 7793WAT    HW123378   3.548   4.807   2.443
 7793WAT    HW223379   3.566   4.867   2.581
 7794WAT     OW23380   2.236   6.105   2.709
 7794WAT    HW123381   2.296   6.089   2.636
 7794WAT    HW223382   2.175   6.031   2.706
 7795WAT     OW23383   4.981   5.139   5.341
 7795WAT    HW123384   5.017   5.062   5.296
 7795WAT    HW223385   5.058   5.184   5.376
 7796WAT     OW23386   4.492   3.784   6.281
 7796WAT    HW123387   4.541   3.856   6.322
 7796WAT    HW223388   4.456   3.734   6.354
 7797WAT     OW23389   2.579   0.173   3.193
 7797WAT    HW123390   2.493   0.175   3.233
 7797WAT    HW223391   2.565   0.200   3.102
 7798WAT     OW23392   4.360   5.612   6.472
 7798WAT    HW123393   4.370   5.574   6.385
 7798WAT    HW223394   4.414   5.691   6.469
 7799WAT     OW23395   3.433   3.195   1.710
 7799WAT    HW123396   3.477   3.239   1.637
 7799WAT    HW223397   3.408   3.265   1.770
 7800WAT     OW23398   3.318   3.870   1.155
 7800WAT    HW123399   3.396   3.923   1.144
 7800WAT    HW223400   3.322   3.839   1.246
 7801WAT     OW23401   2.636   4.722   4.252
 7801WAT    HW123402   2.648   4.676   4.169
 7801WAT    HW223403   2.624   4.813   4.227
 7802WAT     OW23404   1.593   4.425   0.942
 7802WAT    HW123405   1.556   4.398   0.858
 7802WAT    HW223406   1.542   4.378   1.007
 7803WAT     OW23407   5.599   5.008   5.826
 7803WAT    HW123408   5.681   5.056   5.835
 7803WAT    HW223409   5.606   4.963   5.742
 7804WAT     OW23410   4.381   2.395   4.040
 7804WAT    HW123411   4.450   2.460   4.054
 7804WAT    HW223412   4.310   2.423   4.097
 7805WAT     OW23413   3.687   3.272   5.753
 7805WAT    HW123414   3.620   3.312   5.808
 7805WAT    HW223415   3.763   3.263   5.809
 7806WAT     OW23416   6.436   2.338   3.149
 7806WAT    HW123417   6.351   2.357   3.188
 7806WAT    HW223418   6.483   2.288   3.216
 7807WAT     OW23419   0.745   0.825   3.102
 7807WAT    HW123420   0.708   0.913   3.093
 7807WAT    HW223421   0.817   0.837   3.164
 7808WAT     OW23422   1.282   2.193   0.515
 7808WAT    HW123423   1.206   2.195   0.457
 7808WAT    HW223424   1.348   2.245   0.468
 7809WAT     OW23425   1.244   0.074   0.488
 7809WAT    HW123426   1.159   0.033   0.471
 7809WAT    HW223427   1.296   0.056   0.409
 7810WAT     OW23428   6.368   3.708   2.729
 7810WAT    HW123429   6.403   3.763   2.659
 7810WAT    HW223430   6.332   3.632   2.684
 7811WAT     OW23431   6.535   2.387   4.254
 7811WAT    HW123432   6.443   2.379   4.228
 7811WAT    HW223433   6.532   2.388   4.350
 7812WAT     OW23434   4.541   4.906   4.356
 7812WAT    HW123435   4.600   4.834   4.378
 7812WAT    HW223436   4.461   4.863   4.326
 7813WAT     OW23437   5.062   2.658   1.776
 7813WAT    HW123438   5.136   2.598   1.768
 7813WAT    HW223439   5.067   2.713   1.698
 7814WAT     OW23440   6.709   1.560   6.562
 7814WAT    HW123441   6.640   1.557   6.628
 7814WAT    HW223442   6.789   1.537   6.609
 7815WAT     OW23443   5.874   0.036   1.089
 7815WAT    HW123444   5.948   0.046   1.029
 7815WAT    HW223445   5.864   0.123   1.129
 7816WAT     OW23446   0.238   6.658   0.992
 7816WAT    HW123447   0.161   6.617   0.954
 7816WAT    HW223448   0.206   6.701   1.071
 7817WAT     OW23449   4.677   3.983   5.377
 7817WAT    HW123450   4.650   4.039   5.451
 7817WAT    HW223451   4.668   4.039   5.300
 7818WAT     OW23452   1.350   3.022   4.492
 7818WAT    HW123453   1.322   2.931   4.495
 7818WAT    HW223454   1.270   3.072   4.510
 7819WAT     OW23455   5.122   0.980   4.799
 7819WAT    HW123456   5.190   0.913   4.796
 7819WAT    HW223457   5.041   0.931   4.811
 7820WAT     OW23458   0.940   2.059   6.146
 7820WAT    HW123459   0.922   1.976   6.189
 7820WAT    HW223460   1.029   2.082   6.174
 7821WAT     OW23461   6.122   3.824   5.048
 7821WAT    HW123462   6.190   3.802   4.984
 7821WAT    HW223463   6.115   3.746   5.103
 7822WAT     OW23464   6.593   6.316   1.534
 7822WAT    HW123465   6.671   6.360   1.566
 7822WAT    HW223466   6.626   6.243   1.482
 7823WAT     OW23467   1.663   5.186   0.410
 7823WAT    HW123468   1.718   5.121   0.454
 7823WAT    HW223469   1.725   5.240   0.360
 7824WAT     OW23470   3.500   1.217   2.387
 7824WAT    HW123471   3.563   1.149   2.410
 7824WAT    HW223472   3.552   1.297   2.378
 7825WAT     OW23473   4.371   4.565   1.556
 7825WAT    HW123474   4.344   4.567   1.648
 7825WAT    HW223475   4.305   4.512   1.513
 7826WAT     OW23476   5.908   5.632   1.360
 7826WAT    HW123477   5.944   5.631   1.449
 7826WAT    HW223478   5.919   5.543   1.328
 7827WAT     OW23479   6.293   5.839   4.539
 7827WAT    HW123480   6.382   5.834   4.504
 7827WAT    HW223481   6.267   5.930   4.526
 7828WAT     OW23482   0.846   1.768   5.258
 7828WAT    HW123483   0.814   1.832   5.193
 7828WAT    HW223484   0.921   1.811   5.298
 7829WAT     OW23485   6.146   0.637   2.492
 7829WAT    HW123486   6.206   0.702   2.457
 7829WAT    HW223487   6.109   0.678   2.570
 7830WAT     OW23488   5.220   0.742   6.137
 7830WAT    HW123489   5.262   0.820   6.100
 7830WAT    HW223490   5.271   0.669   6.103
 7831WAT     OW23491   6.378   6.260   2.746
 7831WAT    HW123492   6.387   6.172   2.781
 7831WAT    HW223493   6.338   6.311   2.817
 7832WAT     OW23494   0.882   3.850   2.450
 7832WAT    HW123495   0.855   3.764   2.482
 7832WAT    HW223496   0.802   3.902   2.452
 7833WAT     OW23497   5.617   1.256   6.054
 7833WAT    HW123498   5.566   1.236   6.133
 7833WAT    HW223499   5.568   1.215   5.984
 7834WAT     OW23500   4.416   3.931   5.180
 7834WAT    HW123501   4.405   3.989   5.256
 7834WAT    HW223502   4.421   3.990   5.105
 7835WAT     OW23503   5.369   6.233   0.224
 7835WAT    HW123504   5.439   6.258   0.164
 7835WAT    HW223505   5.349   6.312   0.274
 7836WAT     OW23506   0.603   0.618   5.500
 7836WAT    HW123507   0.625   0.527   5.483
 7836WAT    HW223508   0.549   0.616   5.580
 7837WAT     OW23509   2.149   0.567   5.447
 7837WAT    HW123510   2.222   0.526   5.402
 7837WAT    HW223511   2.071   0.534   5.402
 7838WAT     OW23512   1.174   4.198   2.242
 7838WAT    HW123513   1.247   4.241   2.285
 7838WAT    HW223514   1.098   4.254   2.260
 7839WAT     OW23515   4.645   3.929   0.332
 7839WAT    HW123516   4.579   3.997   0.317
 7839WAT    HW223517   4.728   3.974   0.318
 7840WAT     OW23518   5.109   4.547   1.288
 7840WAT    HW123519   5.109   4.599   1.208
 7840WAT    HW223520   5.051   4.473   1.270
 7841WAT     OW23521   5.651   3.612   5.634
 7841WAT    HW123522   5.596   3.576   5.704
 7841WAT    HW223523   5.588   3.642   5.568
 7842WAT     OW23524   1.157   4.943   3.159
 7842WAT    HW123525   1.183   5.031   3.133
 7842WAT    HW223526   1.173   4.941   3.254
 7843WAT     OW23527   5.135   3.993   1.314
 7843WAT    HW123528   5.159   4.030   1.229
 7843WAT    HW223529   5.040   3.985   1.310
 7844WAT     OW23530   4.790   2.356   3.999
 7844WAT    HW123531   4.777   2.305   4.078
 7844WAT    HW223532   4.730   2.317   3.935
 7845WAT     OW23533   1.728   0.138   0.243
 7845WAT    HW123534   1.668   0.094   0.182
 7845WAT    HW223535   1.675   0.208   0.282
 7846WAT     OW23536   6.521   0.541   5.426
 7846WAT    HW123537   6.458   0.606   5.396
 7846WAT    HW223538   6.511   0.468   5.365
 7847WAT     OW23539   2.860   1.973   6.499
 7847WAT    HW123540   2.787   1.952   6.557
 7847WAT    HW223541   2.854   2.068   6.485
 7848WAT     OW23542   5.480   2.122   0.311
 7848WAT    HW123543   5.559   2.071   0.297
 7848WAT    HW223544   5.429   2.110   0.231
 7849WAT     OW23545   4.291   4.509   3.996
 7849WAT    HW123546   4.291   4.540   3.905
 7849WAT    HW223547   4.369   4.547   4.034
 7850WAT     OW23548   4.320   4.242   4.773
 7850WAT    HW123549   4.365   4.231   4.690
 7850WAT    HW223550   4.245   4.183   4.768
 7851WAT     OW23551   2.588   2.534   4.106
 7851WAT    HW123552   2.522   2.601   4.120
 7851WAT    HW223553   2.645   2.540   4.183
 7852WAT     OW23554   0.686   0.244   4.894
 7852WAT    HW123555   0.762   0.218   4.946
 7852WAT    HW223556   0.723   0.279   4.813
 7853WAT     OW23557   5.110   4.765   0.493
 7853WAT    HW123558   5.153   4.804   0.569
 7853WAT    HW223559   5.174   4.703   0.458
 7854WAT     OW23560   1.640   5.603   4.580
 7854WAT    HW123561   1.601   5.531   4.531
 7854WAT    HW223562   1.725   5.569   4.608
 7855WAT     OW23563   2.618   2.953   6.496
 7855WAT    HW123564   2.572   3.010   6.558
 7855WAT    HW223565   2.710   2.956   6.524
 7856WAT     OW23566   0.827   0.345   4.536
 7856WAT    HW123567   0.862   0.384   4.456
 7856WAT    HW223568   0.887   0.273   4.556
 7857WAT     OW23569   6.587   3.544   6.112
 7857WAT    HW123570   6.503   3.590   6.108
 7857WAT    HW223571   6.648   3.610   6.145
 7858WAT     OW23572   4.671   3.075   0.785
 7858WAT    HW123573   4.710   3.122   0.711
 7858WAT    HW223574   4.732   3.003   0.802
 7859WAT     OW23575   6.518   3.139   1.562
 7859WAT    HW123576   6.517   3.189   1.644
 7859WAT    HW223577   6.485   3.052   1.586
 7860WAT     OW23578   0.948   0.571   4.865
 7860WAT    HW123579   1.018   0.629   4.835
 7860WAT    HW223580   0.921   0.609   4.949
 7861WAT     OW23581   3.528   1.639   2.961
 7861WAT    HW123582   3.605   1.672   3.008
 7861WAT    HW223583   3.458   1.700   2.986
 7862WAT     OW23584   5.284   5.270   0.756
 7862WAT    HW123585   5.280   5.202   0.823
 7862WAT    HW223586   5.378   5.277   0.735
 7863WAT     OW23587   3.945   2.037   4.703
 7863WAT    HW123588   3.979   2.033   4.793
 7863WAT    HW223589   3.914   1.948   4.686
 7864WAT     OW23590   1.735   1.732   2.285
 7864WAT    HW123591   1.798   1.699   2.348
 7864WAT    HW223592   1.767   1.820   2.263
 7865WAT     OW23593   1.806   0.230   5.138
 7865WAT    HW123594   1.846   0.299   5.191
 7865WAT    HW223595   1.861   0.153   5.153
 7866WAT     OW23596   3.035   1.089   4.053
 7866WAT    HW123597   3.023   1.174   4.010
 7866WAT    HW223598   2.948   1.068   4.089
 7867WAT     OW23599   1.576   5.407   5.691
 7867WAT    HW123600   1.531   5.468   5.632
 7867WAT    HW223601   1.507   5.347   5.719
 7868WAT     OW23602   5.350   0.047   6.471
 7868WAT    HW123603   5.372   0.119   6.530
 7868WAT    HW223604   5.259   0.025   6.493
 7869WAT     OW23605   4.339   0.056   3.993
 7869WAT    HW123606   4.273  -0.012   4.006
 7869WAT    HW223607   4.399   0.019   3.928
 7870WAT     OW23608   1.150   0.387   1.595
 7870WAT    HW123609   1.227   0.432   1.630
 7870WAT    HW223610   1.089   0.384   1.669
 7871WAT     OW23611   4.206   3.003   0.547
 7871WAT    HW123612   4.230   3.057   0.472
 7871WAT    HW223613   4.289   2.985   0.592
 7872WAT     OW23614   2.441   0.486   0.905
 7872WAT    HW123615   2.483   0.400   0.897
 7872WAT    HW223616   2.436   0.519   0.815
 7873WAT     OW23617   6.701   5.313   1.386
 7873WAT    HW123618   6.641   5.373   1.343
 7873WAT    HW223619   6.748   5.270   1.315
 7874WAT     OW23620   2.936   3.350   4.574
 7874WAT    HW123621   2.905   3.266   4.541
 7874WAT    HW223622   2.947   3.404   4.496
 7875WAT     OW23623   0.600   1.410   2.674
 7875WAT    HW123624   0.596   1.358   2.593
 7875WAT    HW223625   0.563   1.495   2.650
 7876WAT     OW23626   4.332   2.550   1.883
 7876WAT    HW123627   4.284   2.498   1.820
 7876WAT    HW223628   4.422   2.517   1.878
 7877WAT     OW23629   0.878   6.616   3.934
 7877WAT    HW123630   0.950   6.678   3.946
 7877WAT    HW223631   0.799   6.664   3.959
 7878WAT     OW23632   2.605   5.229   5.112
 7878WAT    HW123633   2.559   5.306   5.145
 7878WAT    HW223634   2.692   5.234   5.153
 7879WAT     OW23635   2.923   2.744   6.431
 7879WAT    HW123636   2.979   2.769   6.358
 7879WAT    HW223637   2.897   2.827   6.471
 7880WAT     OW23638   3.312   5.080   1.667
 7880WAT    HW123639   3.305   5.068   1.762
 7880WAT    HW223640   3.226   5.053   1.633
 7881WAT     OW23641   1.252   6.399   3.011
 7881WAT    HW123642   1.268   6.408   2.917
 7881WAT    HW223643   1.268   6.306   3.029
 7882WAT     OW23644   3.362   6.354   6.067
 7882WAT    HW123645   3.363   6.392   6.155
 7882WAT    HW223646   3.402   6.421   6.012
 7883WAT     OW23647   6.399   2.826   2.297
 7883WAT    HW123648   6.360   2.797   2.380
 7883WAT    HW223649   6.344   2.786   2.229
 7884WAT     OW23650   5.384   5.380   0.296
 7884WAT    HW123651   5.337   5.428   0.364
 7884WAT    HW223652   5.376   5.435   0.218
 7885WAT     OW23653   5.816   6.363   6.162
 7885WAT    HW123654   5.858   6.422   6.100
 7885WAT    HW223655   5.773   6.421   6.225
 7886WAT     OW23656   6.171   2.681   5.306
 7886WAT    HW123657   6.167   2.612   5.240
 7886WAT    HW223658   6.217   2.753   5.263
 7887WAT     OW23659   3.676   0.725   0.586
 7887WAT    HW123660   3.735   0.772   0.526
 7887WAT    HW223661   3.619   0.674   0.528
 7888WAT     OW23662   4.113   4.830   2.280
 7888WAT    HW123663   4.151   4.822   2.368
 7888WAT    HW223664   4.022   4.853   2.296
 7889WAT     OW23665   5.565   4.992   4.302
 7889WAT    HW123666   5.660   4.978   4.299
 7889WAT    HW223667   5.532   4.921   4.357
 7890WAT     OW23668   0.715   1.697   3.445
 7890WAT    HW123669   0.680   1.756   3.512
 7890WAT    HW223670   0.793   1.742   3.412
 7891WAT     OW23671   2.683   4.094   5.637
 7891WAT    HW123672   2.767   4.120   5.599
 7891WAT    HW223673   2.679   4.141   5.720
 7892WAT     OW23674   1.492   5.303   2.803
 7892WAT    HW123675   1.462   5.214   2.821
 7892WAT    HW223676   1.412   5.354   2.791
 7893WAT     OW23677   6.520   3.662   3.690
 7893WAT    HW123678   6.444   3.693   3.640
 7893WAT    HW223679   6.499   3.682   3.781
 7894WAT     OW23680   1.461   5.652   2.622
 7894WAT    HW123681   1.431   5.726   2.570
 7894WAT    HW223682   1.556   5.653   2.612
 7895WAT     OW23683   5.651   2.607   5.767
 7895WAT    HW123684   5.713   2.558   5.713
 7895WAT    HW223685   5.679   2.698   5.759
 7896WAT     OW23686   0.469   0.839   4.525
 7896WAT    HW123687   0.446   0.747   4.514
 7896WAT    HW223688   0.471   0.874   4.436
 7897WAT     OW23689   4.387   4.952   1.875
 7897WAT    HW123690   4.351   4.971   1.962
 7897WAT    HW223691   4.325   4.993   1.814
 7898WAT     OW23692   1.855   5.056   2.859
 7898WAT    HW123693   1.900   4.984   2.815
 7898WAT    HW223694   1.772   5.018   2.888
 7899WAT     OW23695   2.554   0.751   6.310
 7899WAT    HW123696   2.495   0.692   6.356
 7899WAT    HW223697   2.497   0.813   6.265
 7900WAT     OW23698   2.241   2.506   1.552
 7900WAT    HW123699   2.319   2.490   1.498
 7900WAT    HW223700   2.170   2.517   1.489
 7901WAT     OW23701   3.091   2.236   0.678
 7901WAT    HW123702   3.111   2.174   0.609
 7901WAT    HW223703   3.054   2.312   0.632
 7902WAT     OW23704   3.584   4.962   3.119
 7902WAT    HW123705   3.543   5.042   3.152
 7902WAT    HW223706   3.514   4.919   3.070
 7903WAT     OW23707   1.081   3.981   2.868
 7903WAT    HW123708   1.120   3.903   2.827
 7903WAT    HW223709   1.010   4.006   2.809
 7904WAT     OW23710   6.477   0.110   2.623
 7904WAT    HW123711   6.388   0.136   2.597
 7904WAT    HW223712   6.465   0.027   2.669
 7905WAT     OW23713   1.280   2.085   6.003
 7905WAT    HW123714   1.247   2.118   6.087
 7905WAT    HW223715   1.365   2.128   5.992
 7906WAT     OW23716   0.880   2.837   4.244
 7906WAT    HW123717   0.936   2.771   4.203
 7906WAT    HW223718   0.940   2.908   4.267
 7907WAT     OW23719   4.982   1.828   1.774
 7907WAT    HW123720   5.059   1.880   1.798
 7907WAT    HW223721   5.010   1.780   1.696
 7908WAT     OW23722   4.586   0.449   4.546
 7908WAT    HW123723   4.508   0.469   4.598
 7908WAT    HW223724   4.568   0.362   4.508
 7909WAT     OW23725   2.111   4.318   2.349
 7909WAT    HW123726   2.203   4.291   2.340
 7909WAT    HW223727   2.106   4.402   2.304
 7910WAT     OW23728   0.371   0.844   1.833
 7910WAT    HW123729   0.377   0.821   1.740
 7910WAT    HW223730   0.357   0.938   1.834
 7911WAT     OW23731   2.424   5.347   4.334
 7911WAT    HW123732   2.406   5.297   4.254
 7911WAT    HW223733   2.415   5.438   4.308
 7912WAT     OW23734   5.912   3.398   3.998
 7912WAT    HW123735   5.917   3.491   4.020
 7912WAT    HW223736   5.819   3.376   4.012
 7913WAT     OW23737   3.171   3.705   5.200
 7913WAT    HW123738   3.203   3.628   5.249
 7913WAT    HW223739   3.078   3.687   5.187
 7914WAT     OW23740   0.811   3.980   5.621
 7914WAT    HW123741   0.895   3.941   5.598
 7914WAT    HW223742   0.829   4.033   5.698
 7915WAT     OW23743   5.923   1.842   0.354
 7915WAT    HW123744   5.907   1.760   0.402
 7915WAT    HW223745   6.012   1.833   0.320
 7916WAT     OW23746   3.695   6.246   5.194
 7916WAT    HW123747   3.685   6.199   5.277
 7916WAT    HW223748   3.671   6.181   5.127
 7917WAT     OW23749   5.131   2.115   3.021
 7917WAT    HW123750   5.127   2.189   2.960
 7917WAT    HW223751   5.156   2.040   2.967
 7918WAT     OW23752   5.791   0.803   2.817
 7918WAT    HW123753   5.738   0.723   2.815
 7918WAT    HW223754   5.815   0.813   2.909
 7919WAT     OW23755   5.059   4.493   6.680
 7919WAT    HW123756   4.986   4.497   6.742
 7919WAT    HW223757   5.017   4.487   6.594
 7920WAT     OW23758   1.282   3.517   1.463
 7920WAT    HW123759   1.247   3.603   1.486
 7920WAT    HW223760   1.236   3.456   1.522
 7921WAT     OW23761   0.397   2.339   4.844
 7921WAT    HW123762   0.345   2.267   4.810
 7921WAT    HW223763   0.359   2.417   4.804
 7922WAT     OW23764   3.009   0.877   4.678
 7922WAT    HW123765   3.052   0.858   4.762
 7922WAT    HW223766   3.018   0.796   4.628
 7923WAT     OW23767   1.449   4.748   0.604
 7923WAT    HW123768   1.437   4.714   0.515
 7923WAT    HW223769   1.533   4.711   0.632
 7924WAT     OW23770   4.564   0.116   6.484
 7924WAT    HW123771   4.533   0.145   6.399
 7924WAT    HW223772   4.517   0.034   6.500
 7925WAT     OW23773   2.225   6.144   0.137
 7925WAT    HW123774   2.229   6.197   0.058
 7925WAT    HW223775   2.209   6.055   0.106
 7926WAT     OW23776   6.039   6.044   2.524
 7926WAT    HW123777   5.946   6.029   2.510
 7926WAT    HW223778   6.080   6.026   2.440
 7927WAT     OW23779   6.535   2.963   1.001
 7927WAT    HW123780   6.465   2.906   0.970
 7927WAT    HW223781   6.542   3.030   0.933
 7928WAT     OW23782   1.203   3.788   2.724
 7928WAT    HW123783   1.298   3.797   2.733
 7928WAT    HW223784   1.190   3.729   2.650
 7929WAT     OW23785   0.933   6.266   3.018
 7929WAT    HW123786   0.930   6.362   3.020
 7929WAT    HW223787   0.985   6.243   3.095
 7930WAT     OW23788   5.630   0.060   1.367
 7930WAT    HW123789   5.568   0.105   1.424
 7930WAT    HW223790   5.716   0.080   1.404
 7931WAT     OW23791   2.794   2.673   0.299
 7931WAT    HW123792   2.715   2.650   0.348
 7931WAT    HW223793   2.850   2.715   0.365
 7932WAT     OW23794   4.654   5.544   4.259
 7932WAT    HW123795   4.675   5.469   4.203
 7932WAT    HW223796   4.572   5.578   4.223
 7933WAT     OW23797   5.089   6.104   3.726
 7933WAT    HW123798   5.133   6.079   3.645
 7933WAT    HW223799   5.159   6.107   3.792
 7934WAT     OW23800   5.195   2.586   1.067
 7934WAT    HW123801   5.222   2.660   1.012
 7934WAT    HW223802   5.259   2.584   1.138
 7935WAT     OW23803   1.101   3.642   3.068
 7935WAT    HW123804   1.177   3.694   3.044
 7935WAT    HW223805   1.066   3.684   3.146
 7936WAT     OW23806   3.803   2.968   0.611
 7936WAT    HW123807   3.784   3.011   0.528
 7936WAT    HW223808   3.806   2.874   0.590
 7937WAT     OW23809   5.381   2.390   1.983
 7937WAT    HW123810   5.320   2.373   2.055
 7937WAT    HW223811   5.405   2.303   1.952
 7938WAT     OW23812   0.214   3.537   0.009
 7938WAT    HW123813   0.266   3.498  -0.060
 7938WAT    HW223814   0.258   3.620   0.029
 7939WAT     OW23815   3.542   2.916   6.686
 7939WAT    HW123816   3.552   2.895   6.593
 7939WAT    HW223817   3.632   2.919   6.720
 7940WAT     OW23818   2.546   3.349   2.714
 7940WAT    HW123819   2.498   3.350   2.632
 7940WAT    HW223820   2.638   3.347   2.687
 7941WAT     OW23821   2.724   1.338   2.729
 7941WAT    HW123822   2.706   1.401   2.798
 7941WAT    HW223823   2.778   1.386   2.666
 7942WAT     OW23824   0.564   3.248   3.209
 7942WAT    HW123825   0.551   3.171   3.265
 7942WAT    HW223826   0.506   3.233   3.135
 7943WAT     OW23827   0.863   4.550   2.731
 7943WAT    HW123828   0.914   4.471   2.715
 7943WAT    HW223829   0.775   4.529   2.700
 7944WAT     OW23830   6.455   2.599   1.689
 7944WAT    HW123831   6.370   2.588   1.646
 7944WAT    HW223832   6.518   2.564   1.627
 7945WAT     OW23833   2.272   2.875   1.333
 7945WAT    HW123834   2.357   2.894   1.374
 7945WAT    HW223835   2.209   2.884   1.404
 7946WAT     OW23836   4.084   4.645   1.310
 7946WAT    HW123837   4.033   4.680   1.382
 7946WAT    HW223838   4.080   4.713   1.242
 7947WAT     OW23839   2.054   3.545   6.449
 7947WAT    HW123840   1.996   3.519   6.377
 7947WAT    HW223841   2.098   3.464   6.474
 7948WAT     OW23842   0.089   6.442   1.641
 7948WAT    HW123843   0.159   6.388   1.677
 7948WAT    HW223844   0.067   6.503   1.712
 7949WAT     OW23845   1.601   6.560   1.088
 7949WAT    HW123846   1.643   6.474   1.080
 7949WAT    HW223847   1.580   6.584   0.998
 7950WAT     OW23848   5.105   5.233   4.665
 7950WAT    HW123849   5.013   5.210   4.652
 7950WAT    HW223850   5.104   5.325   4.688
 7951WAT     OW23851   5.405   5.781   3.038
 7951WAT    HW123852   5.317   5.791   3.075
 7951WAT    HW223853   5.463   5.783   3.113
 7952WAT     OW23854   6.540   3.557   2.160
 7952WAT    HW123855   6.482   3.485   2.136
 7952WAT    HW223856   6.602   3.518   2.222
 7953WAT     OW23857   6.529   2.892   6.015
 7953WAT    HW123858   6.527   2.919   5.923
 7953WAT    HW223859   6.622   2.882   6.035
 7954WAT     OW23860   5.206   2.762   5.111
 7954WAT    HW123861   5.194   2.681   5.060
 7954WAT    HW223862   5.122   2.774   5.155
 7955WAT     OW23863   4.890   4.532   2.524
 7955WAT    HW123864   4.882   4.620   2.488
 7955WAT    HW223865   4.832   4.478   2.470
 7956WAT     OW23866   2.487   0.260   1.330
 7956WAT    HW123867   2.517   0.321   1.397
 7956WAT    HW223868   2.563   0.205   1.312
 7957WAT     OW23869   5.433   4.278   5.846
 7957WAT    HW123870   5.389   4.316   5.770
 7957WAT    HW223871   5.523   4.263   5.817
 7958WAT     OW23872   2.661   4.516   6.104
 7958WAT    HW123873   2.696   4.565   6.030
 7958WAT    HW223874   2.590   4.464   6.066
 7959WAT     OW23875   2.043   3.631   3.018
 7959WAT    HW123876   1.974   3.667   2.962
 7959WAT    HW223877   2.037   3.536   3.005
 7960WAT     OW23878   3.999   0.796   3.554
 7960WAT    HW123879   3.998   0.767   3.463
 7960WAT    HW223880   4.091   0.790   3.580
 7961WAT     OW23881   2.747   5.234   1.073
 7961WAT    HW123882   2.834   5.273   1.067
 7961WAT    HW223883   2.752   5.174   1.147
 7962WAT     OW23884   4.276   5.272   2.128
 7962WAT    HW123885   4.271   5.298   2.036
 7962WAT    HW223886   4.274   5.176   2.126
 7963WAT     OW23887   5.820   6.071   3.298
 7963WAT    HW123888   5.799   6.091   3.207
 7963WAT    HW223889   5.833   5.976   3.299
 7964WAT     OW23890   0.218   1.557   2.729
 7964WAT    HW123891   0.212   1.462   2.742
 7964WAT    HW223892   0.293   1.569   2.672
 7965WAT     OW23893   4.028   4.648   0.776
 7965WAT    HW123894   3.961   4.654   0.845
 7965WAT    HW223895   4.016   4.562   0.738
 7966WAT     OW23896   4.157   2.757   3.337
 7966WAT    HW123897   4.091   2.818   3.370
 7966WAT    HW223898   4.192   2.715   3.416
 7967WAT     OW23899   4.081   5.554   5.498
 7967WAT    HW123900   4.092   5.479   5.439
 7967WAT    HW223901   4.139   5.622   5.463
 7968WAT     OW23902   2.348   2.054   5.016
 7968WAT    HW123903   2.353   2.148   4.999
 7968WAT    HW223904   2.278   2.023   4.958
 7969WAT     OW23905   1.548   2.854   0.895
 7969WAT    HW123906   1.552   2.799   0.974
 7969WAT    HW223907   1.638   2.882   0.881
 7970WAT     OW23908   5.444   4.117   4.632
 7970WAT    HW123909   5.383   4.084   4.698
 7970WAT    HW223910   5.388   4.160   4.567
 7971WAT     OW23911   1.336   0.011   3.956
 7971WAT    HW123912   1.367  -0.048   4.024
 7971WAT    HW223913   1.397   0.085   3.959
 7972WAT     OW23914   6.354   1.841   4.043
 7972WAT    HW123915   6.448   1.824   4.039
 7972WAT    HW223916   6.313   1.760   4.013
 7973WAT     OW23917   0.743   6.654   5.817
 7973WAT    HW123918   0.768   6.623   5.730
 7973WAT    HW223919   0.808   6.721   5.838
 7974WAT     OW23920   0.037   0.232   4.316
 7974WAT    HW123921  -0.030   0.173   4.352
 7974WAT    HW223922   0.064   0.286   4.390
 7975WAT     OW23923   2.877   0.904   1.672
 7975WAT    HW123924   2.872   0.905   1.576
 7975WAT    HW223925   2.789   0.925   1.701
 7976WAT     OW23926   0.210   5.261   2.240
 7976WAT    HW123927   0.139   5.276   2.302
 7976WAT    HW223928   0.167   5.262   2.154
 7977WAT     OW23929   0.094   0.165   4.805
 7977WAT    HW123930   0.114   0.092   4.863
 7977WAT    HW223931   0.124   0.137   4.719
 7978WAT     OW23932   5.151   5.828   3.127
 7978WAT    HW123933   5.078   5.792   3.077
 7978WAT    HW223934   5.110   5.880   3.196
 7979WAT     OW23935   1.639   4.189   5.475
 7979WAT    HW123936   1.700   4.142   5.531
 7979WAT    HW223937   1.694   4.231   5.408
 7980WAT     OW23938   4.834   6.479   5.805
 7980WAT    HW123939   4.822   6.466   5.711
 7980WAT    HW223940   4.795   6.564   5.823
 7981WAT     OW23941   2.653   3.043   2.914
 7981WAT    HW123942   2.575   3.070   2.963
 7981WAT    HW223943   2.622   3.027   2.826
 7982WAT     OW23944   2.187   2.025   0.552
 7982WAT    HW123945   2.116   2.081   0.584
 7982WAT    HW223946   2.156   1.992   0.468
 7983WAT     OW23947   4.710   3.538   1.046
 7983WAT    HW123948   4.682   3.500   1.129
 7983WAT    HW223949   4.805   3.546   1.054
 7984WAT     OW23950   5.051   4.865   4.810
 7984WAT    HW123951   5.101   4.925   4.866
 7984WAT    HW223952   4.962   4.899   4.813
 7985WAT     OW23953   3.263   3.645   2.178
 7985WAT    HW123954   3.280   3.551   2.172
 7985WAT    HW223955   3.238   3.659   2.269
 7986WAT     OW23956   2.055   0.542   4.486
 7986WAT    HW123957   2.097   0.622   4.454
 7986WAT    HW223958   2.123   0.498   4.537
 7987WAT     OW23959   4.714   5.746   5.255
 7987WAT    HW123960   4.732   5.655   5.281
 7987WAT    HW223961   4.792   5.773   5.207
 7988WAT     OW23962   2.803   1.035   5.916
 7988WAT    HW123963   2.803   0.960   5.856
 7988WAT    HW223964   2.878   1.020   5.973
 7989WAT     OW23965   2.353   1.606   2.533
 7989WAT    HW123966   2.393   1.522   2.513
 7989WAT    HW223967   2.300   1.627   2.456
 7990WAT     OW23968   1.618   2.241   3.595
 7990WAT    HW123969   1.622   2.164   3.651
 7990WAT    HW223970   1.625   2.315   3.656
 7991WAT     OW23971   5.025   1.417   6.354
 7991WAT    HW123972   5.011   1.511   6.342
 7991WAT    HW223973   4.954   1.376   6.303
 7992WAT     OW23974   0.373   2.457   3.473
 7992WAT    HW123975   0.297   2.418   3.431
 7992WAT    HW223976   0.357   2.551   3.469
 7993WAT     OW23977   2.902   0.214   1.328
 7993WAT    HW123978   2.821   0.168   1.306
 7993WAT    HW223979   2.875   0.282   1.390
 7994WAT     OW23980   5.969   5.617   5.539
 7994WAT    HW123981   5.876   5.599   5.558
 7994WAT    HW223982   5.994   5.550   5.475
 7995WAT     OW23983   6.332   1.855   2.064
 7995WAT    HW123984   6.389   1.857   1.988
 7995WAT    HW223985   6.291   1.768   2.061
 7996WAT     OW23986   2.910   2.233   3.079
 7996WAT    HW123987   2.985   2.270   3.127
 7996WAT    HW223988   2.854   2.197   3.148
 7997WAT     OW23989   3.283   5.738   4.756
 7997WAT    HW123990   3.193   5.755   4.727
 7997WAT    HW223991   3.278   5.655   4.802
 7998WAT     OW23992   2.988   0.442   3.435
 7998WAT    HW123993   2.928   0.437   3.361
 7998WAT    HW223994   3.072   0.470   3.397
 7999WAT     OW23995   5.200   0.188   1.473
 7999WAT    HW123996   5.175   0.131   1.547
 7999WAT    HW223997   5.126   0.182   1.413
 8000WAT     OW23998   5.490   4.570   1.866
 8000WAT    HW123999   5.478   4.475   1.872
 8000WAT    HW224000   5.580   4.580   1.837
 8001WAT     OW24001   5.286   1.704   2.989
 8001WAT    HW124002   5.334   1.741   3.063
 8001WAT    HW224003   5.243   1.780   2.949
 8002WAT     OW24004   1.481   0.649   0.681
 8002WAT    HW124005   1.451   0.718   0.622
 8002WAT    HW224006   1.519   0.696   0.755
 8003WAT     OW24007   3.690   6.402   1.908
 8003WAT    HW124008   3.744   6.435   1.836
 8003WAT    HW224009   3.678   6.477   1.966
 8004WAT     OW24010   1.055   1.308   5.973
 8004WAT    HW124011   1.018   1.259   6.047
 8004WAT    HW224012   0.989   1.374   5.953
 8005WAT     OW24013   1.741   2.472   4.681
 8005WAT    HW124014   1.707   2.387   4.654
 8005WAT    HW224015   1.743   2.524   4.601
 8006WAT     OW24016   0.456   0.009   6.600
 8006WAT    HW124017   0.369  -0.008   6.564
 8006WAT    HW224018   0.460  -0.045   6.679
 8007WAT     OW24019   4.734   1.087   3.111
 8007WAT    HW124020   4.809   1.070   3.054
 8007WAT    HW224021   4.770   1.137   3.184
 8008WAT     OW24022   3.733   3.677   2.887
 8008WAT    HW124023   3.713   3.639   2.973
 8008WAT    HW224024   3.828   3.688   2.888
 8009WAT     OW24025   4.132   2.649   4.704
 8009WAT    HW124026   4.196   2.718   4.688
 8009WAT    HW224027   4.048   2.688   4.680
 8010WAT     OW24028   3.066   3.955   2.442
 8010WAT    HW124029   3.137   3.994   2.391
 8010WAT    HW224030   3.079   3.989   2.530
 8011WAT     OW24031   0.165   0.948   3.498
 8011WAT    HW124032   0.259   0.960   3.496
 8011WAT    HW224033   0.153   0.858   3.529
 8012WAT     OW24034   2.353   1.630   0.704
 8012WAT    HW124035   2.443   1.597   0.710
 8012WAT    HW224036   2.317   1.587   0.626
 8013WAT     OW24037   1.483   6.443   6.679
 8013WAT    HW124038   1.391   6.454   6.704
 8013WAT    HW224039   1.500   6.350   6.689
 8014WAT     OW24040   3.139   4.015   1.002
 8014WAT    HW124041   3.205   4.083   0.988
 8014WAT    HW224042   3.180   3.955   1.064
 8015WAT     OW24043   4.683   1.295   5.300
 8015WAT    HW124044   4.704   1.299   5.393
 8015WAT    HW224045   4.747   1.351   5.258
 8016WAT     OW24046   5.662   6.568   4.179
 8016WAT    HW124047   5.609   6.641   4.146
 8016WAT    HW224048   5.600   6.495   4.187
 8017WAT     OW24049   1.831   4.173   0.659
 8017WAT    HW124050   1.832   4.141   0.749
 8017WAT    HW224051   1.830   4.094   0.605
 8018WAT     OW24052   5.361   3.218   3.759
 8018WAT    HW124053   5.325   3.271   3.830
 8018WAT    HW224054   5.288   3.162   3.731
 8019WAT     OW24055   5.084   4.939   0.282
 8019WAT    HW124056   5.080   4.882   0.359
 8019WAT    HW224057   5.138   5.013   0.309
 8020WAT     OW24058   0.794   1.224   3.421
 8020WAT    HW124059   0.796   1.301   3.479
 8020WAT    HW224060   0.875   1.230   3.370
 8021WAT     OW24061   1.688   4.679   0.991
 8021WAT    HW124062   1.624   4.745   0.964
 8021WAT    HW224063   1.652   4.596   0.960
 8022WAT     OW24064   6.655   5.930   0.743
 8022WAT    HW124065   6.609   6.004   0.704
 8022WAT    HW224066   6.632   5.856   0.687
 8023WAT     OW24067   3.361   0.659   2.604
 8023WAT    HW124068   3.344   0.568   2.628
 8023WAT    HW224069   3.279   0.705   2.626
 8024WAT     OW24070   3.409   0.846   3.102
 8024WAT    HW124071   3.368   0.870   3.185
 8024WAT    HW224072   3.482   0.909   3.092
 8025WAT     OW24073   3.458   2.927   2.859
 8025WAT    HW124074   3.519   2.880   2.802
 8025WAT    HW224075   3.423   2.997   2.803
 8026WAT     OW24076   3.793   1.256   5.497
 8026WAT    HW124077   3.748   1.218   5.422
 8026WAT    HW224078   3.780   1.193   5.568
 8027WAT     OW24079   2.154   6.587   3.438
 8027WAT    HW124080   2.234   6.613   3.485
 8027WAT    HW224081   2.171   6.611   3.347
 8028WAT     OW24082   0.102   3.655   1.154
 8028WAT    HW124083   0.137   3.568   1.135
 8028WAT    HW224084   0.037   3.670   1.086
 8029WAT     OW24085   2.509   4.062   3.682
 8029WAT    HW124086   2.589   4.064   3.735
 8029WAT    HW224087   2.439   4.078   3.745
 8030WAT     OW24088   2.694   6.653   5.004
 8030WAT    HW124089   2.705   6.675   5.096
 8030WAT    HW224090   2.711   6.558   5.000
 8031WAT     OW24091   0.795   3.242   1.185
 8031WAT    HW124092   0.865   3.243   1.250
 8031WAT    HW224093   0.772   3.149   1.176
 8032WAT     OW24094   3.754   5.666   4.994
 8032WAT    HW124095   3.705   5.721   5.054
 8032WAT    HW224096   3.808   5.610   5.050
 8033WAT     OW24097   2.955   0.109   3.777
 8033WAT    HW124098   3.005   0.138   3.701
 8033WAT    HW224099   3.000   0.030   3.806
 8034WAT     OW24100   1.027   0.966   4.937
 8034WAT    HW124101   1.044   0.993   5.028
 8034WAT    HW224102   0.936   0.938   4.937
 8035WAT     OW24103   1.975   3.460   1.858
 8035WAT    HW124104   1.923   3.405   1.917
 8035WAT    HW224105   2.059   3.471   1.903
 8036WAT     OW24106   3.213   0.825   0.392
 8036WAT    HW124107   3.190   0.772   0.316
 8036WAT    HW224108   3.128   0.854   0.427
 8037WAT     OW24109   4.665   5.100   3.508
 8037WAT    HW124110   4.749   5.112   3.464
 8037WAT    HW224111   4.602   5.144   3.451
 8038WAT     OW24112   4.239   5.894   2.997
 8038WAT    HW124113   4.148   5.869   3.010
 8038WAT    HW224114   4.289   5.815   3.021
 8039WAT     OW24115   2.892   1.317   4.354
 8039WAT    HW124116   2.908   1.234   4.399
 8039WAT    HW224117   2.914   1.384   4.419
 8040WAT     OW24118   2.698   6.339   4.054
 8040WAT    HW124119   2.782   6.362   4.093
 8040WAT    HW224120   2.719   6.269   3.992
 8041WAT     OW24121   6.140   4.091   1.521
 8041WAT    HW124122   6.162   4.024   1.586
 8041WAT    HW224123   6.188   4.064   1.442
 8042WAT     OW24124   6.374   2.989   4.396
 8042WAT    HW124125   6.438   2.929   4.434
 8042WAT    HW224126   6.394   2.989   4.303
 8043WAT     OW24127   4.621   3.195   5.934
 8043WAT    HW124128   4.623   3.252   5.857
 8043WAT    HW224129   4.668   3.243   6.001
 8044WAT     OW24130   1.861   2.738   5.063
 8044WAT    HW124131   1.926   2.804   5.087
 8044WAT    HW224132   1.911   2.657   5.055
 8045WAT     OW24133   2.152   5.619   5.394
 8045WAT    HW124134   2.197   5.698   5.425
 8045WAT    HW224135   2.116   5.644   5.309
 8046WAT     OW24136   0.218   0.378   1.585
 8046WAT    HW124137   0.216   0.461   1.633
 8046WAT    HW224138   0.140   0.381   1.529
 8047WAT     OW24139   2.494   6.239   4.926
 8047WAT    HW124140   2.464   6.155   4.890
 8047WAT    HW224141   2.467   6.236   5.018
 8048WAT     OW24142   1.781   6.157   5.037
 8048WAT    HW124143   1.695   6.182   5.070
 8048WAT    HW224144   1.762   6.102   4.960
 8049WAT     OW24145   3.599   3.297   4.630
 8049WAT    HW124146   3.667   3.364   4.618
 8049WAT    HW224147   3.624   3.227   4.569
 8050WAT     OW24148   5.470   3.501   0.795
 8050WAT    HW124149   5.547   3.478   0.741
 8050WAT    HW224150   5.405   3.531   0.731
 8051WAT     OW24151   5.092   0.998   3.984
 8051WAT    HW124152   5.109   0.978   4.076
 8051WAT    HW224153   5.070   1.091   3.984
 8052WAT     OW24154   1.099   2.510   2.879
 8052WAT    HW124155   1.140   2.594   2.899
 8052WAT    HW224156   1.171   2.447   2.877
 8053WAT     OW24157   1.732   6.688   1.526
 8053WAT    HW124158   1.686   6.708   1.444
 8053WAT    HW224159   1.666   6.647   1.581
 8054WAT     OW24160   4.766   5.876   3.271
 8054WAT    HW124161   4.858   5.899   3.284
 8054WAT    HW224162   4.739   5.838   3.354
 8055WAT     OW24163   5.441   0.757   1.383
 8055WAT    HW124164   5.443   0.686   1.319
 8055WAT    HW224165   5.527   0.755   1.425
 8056WAT     OW24166   5.480   5.821   0.772
 8056WAT    HW124167   5.452   5.911   0.752
 8056WAT    HW224168   5.551   5.831   0.835
 8057WAT     OW24169   6.302   0.698   6.683
 8057WAT    HW124170   6.356   0.657   6.616
 8057WAT    HW224171   6.352   0.688   6.764
 8058WAT     OW24172   6.334   3.789   3.529
 8058WAT    HW124173   6.386   3.861   3.494
 8058WAT    HW224174   6.261   3.832   3.573
 8059WAT     OW24175   6.490   1.641   5.074
 8059WAT    HW124176   6.566   1.616   5.126
 8059WAT    HW224177   6.525   1.694   5.003
 8060WAT     OW24178   2.064   2.191   4.626
 8060WAT    HW124179   2.027   2.106   4.652
 8060WAT    HW224180   2.158   2.175   4.621
 8061WAT     OW24181   6.588   2.840   3.280
 8061WAT    HW124182   6.645   2.833   3.203
 8061WAT    HW224183   6.510   2.791   3.256
 8062WAT     OW24184   0.051   6.360   5.057
 8062WAT    HW124185   0.139   6.397   5.063
 8062WAT    HW224186   0.017   6.366   5.147
 8063WAT     OW24187   3.149   2.085   6.284
 8063WAT    HW124188   3.223   2.139   6.313
 8063WAT    HW224189   3.134   2.024   6.355
 8064WAT     OW24190   3.821   4.298   0.021
 8064WAT    HW124191   3.911   4.297   0.053
 8064WAT    HW224192   3.780   4.370   0.068
 8065WAT     OW24193   6.317   0.600   5.758
 8065WAT    HW124194   6.250   0.550   5.711
 8065WAT    HW224195   6.285   0.604   5.848
 8066WAT     OW24196   2.290   2.326   3.541
 8066WAT    HW124197   2.275   2.306   3.448
 8066WAT    HW224198   2.202   2.337   3.577
 8067WAT     OW24199   1.065   2.816   0.018
 8067WAT    HW124200   1.072   2.899   0.065
 8067WAT    HW224201   1.151   2.805  -0.023
 8068WAT     OW24202   0.461   1.787   0.761
 8068WAT    HW124203   0.538   1.779   0.817
 8068WAT    HW224204   0.389   1.751   0.814
 8069WAT     OW24205   6.114   3.000   2.456
 8069WAT    HW124206   6.114   2.967   2.366
 8069WAT    HW224207   6.124   2.922   2.510
 8070WAT     OW24208   3.132   1.321   5.716
 8070WAT    HW124209   3.177   1.405   5.705
 8070WAT    HW224210   3.165   1.267   5.644
 8071WAT     OW24211   2.025   3.085   1.721
 8071WAT    HW124212   1.963   3.154   1.698
 8071WAT    HW224213   2.109   3.130   1.729
 8072WAT     OW24214   0.372   3.772   6.516
 8072WAT    HW124215   0.294   3.727   6.486
 8072WAT    HW224216   0.365   3.771   6.612
 8073WAT     OW24217   3.549   5.906   2.522
 8073WAT    HW124218   3.502   5.847   2.582
 8073WAT    HW224219   3.535   5.868   2.435
 8074WAT     OW24220   0.676   2.579   5.145
 8074WAT    HW124221   0.699   2.486   5.143
 8074WAT    HW224222   0.656   2.601   5.054
 8075WAT     OW24223   6.463   5.432   4.584
 8075WAT    HW124224   6.501   5.508   4.628
 8075WAT    HW224225   6.385   5.467   4.540
 8076WAT     OW24226   1.952   1.759   5.016
 8076WAT    HW124227   2.001   1.693   5.065
 8076WAT    HW224228   1.864   1.756   5.053
 8077WAT     OW24229   3.761   6.440   0.354
 8077WAT    HW124230   3.704   6.368   0.382
 8077WAT    HW224231   3.743   6.510   0.417
 8078WAT     OW24232   1.676   6.254   2.720
 8078WAT    HW124233   1.748   6.201   2.686
 8078WAT    HW224234   1.718   6.336   2.747
 8079WAT     OW24235   5.633   4.073   3.368
 8079WAT    HW124236   5.692   4.115   3.431
 8079WAT    HW224237   5.642   3.979   3.387
 8080WAT     OW24238   0.044   1.854   1.459
 8080WAT    HW124239   0.050   1.893   1.546
 8080WAT    HW224240  -0.019   1.909   1.412
 8081WAT     OW24241   2.011   5.130   0.769
 8081WAT    HW124242   1.973   5.104   0.853
 8081WAT    HW224243   2.032   5.048   0.725
 8082WAT     OW24244   3.399   4.815   3.729
 8082WAT    HW124245   3.304   4.816   3.714
 8082WAT    HW224246   3.431   4.742   3.675
 8083WAT     OW24247   6.175   1.580   3.028
 8083WAT    HW124248   6.170   1.506   2.968
 8083WAT    HW224249   6.198   1.655   2.972
 8084WAT     OW24250   6.150   1.359   2.863
 8084WAT    HW124251   6.244   1.338   2.861
 8084WAT    HW224252   6.132   1.394   2.776
 8085WAT     OW24253   5.388   0.076   5.592
 8085WAT    HW124254   5.354   0.152   5.545
 8085WAT    HW224255   5.459   0.042   5.537
 8086WAT     OW24256   2.133   3.654   4.034
 8086WAT    HW124257   2.166   3.727   4.086
 8086WAT    HW224258   2.066   3.614   4.089
 8087WAT     OW24259   2.439   0.361   5.470
 8087WAT    HW124260   2.498   0.319   5.408
 8087WAT    HW224261   2.475   0.449   5.483
 8088WAT     OW24262   0.268   2.003   2.281
 8088WAT    HW124263   0.281   1.918   2.238
 8088WAT    HW224264   0.263   2.066   2.209
 8089WAT     OW24265   4.775   1.985   1.864
 8089WAT    HW124266   4.697   1.931   1.855
 8089WAT    HW224267   4.845   1.935   1.823
 8090WAT     OW24268   0.404   4.565   3.058
 8090WAT    HW124269   0.481   4.604   3.099
 8090WAT    HW224270   0.408   4.472   3.080
 8091WAT     OW24271   6.509   3.571   4.577
 8091WAT    HW124272   6.539   3.631   4.645
 8091WAT    HW224273   6.500   3.626   4.499
 8092WAT     OW24274   4.208   6.510   2.642
 8092WAT    HW124275   4.219   6.419   2.671
 8092WAT    HW224276   4.114   6.526   2.645
 8093WAT     OW24277   5.355   4.435   2.448
 8093WAT    HW124278   5.383   4.355   2.403
 8093WAT    HW224279   5.340   4.499   2.379
 8094WAT     OW24280   3.188   0.328   2.706
 8094WAT    HW124281   3.215   0.260   2.645
 8094WAT    HW224282   3.146   0.280   2.778
 8095WAT     OW24283   0.709   0.294   3.351
 8095WAT    HW124284   0.804   0.283   3.348
 8095WAT    HW224285   0.676   0.207   3.374
 8096WAT     OW24286   6.366   3.009   6.412
 8096WAT    HW124287   6.443   2.964   6.447
 8096WAT    HW224288   6.341   3.072   6.480
 8097WAT     OW24289   0.038   2.844   1.617
 8097WAT    HW124290   0.036   2.797   1.700
 8097WAT    HW224291   0.110   2.804   1.569
 8098WAT     OW24292   5.894   1.650   0.910
 8098WAT    HW124293   5.886   1.682   1.000
 8098WAT    HW224294   5.985   1.619   0.903
 8099WAT     OW24295   4.930   4.410   5.923
 8099WAT    HW124296   4.920   4.361   5.842
 8099WAT    HW224297   5.000   4.473   5.905
 8100WAT     OW24298   0.570   2.151   3.068
 8100WAT    HW124299   0.555   2.132   3.160
 8100WAT    HW224300   0.616   2.074   3.035
 8101WAT     OW24301   3.017   5.778   4.676
 8101WAT    HW124302   2.944   5.738   4.629
 8101WAT    HW224303   3.045   5.851   4.620
 8102WAT     OW24304   6.695   0.620   3.135
 8102WAT    HW124305   6.625   0.659   3.189
 8102WAT    HW224306   6.649   0.558   3.079
 8103WAT     OW24307   3.317   1.237   0.419
 8103WAT    HW124308   3.384   1.169   0.427
 8103WAT    HW224309   3.336   1.298   0.491
 8104WAT     OW24310   2.517   4.856   5.392
 8104WAT    HW124311   2.610   4.834   5.387
 8104WAT    HW224312   2.485   4.806   5.466
 8105WAT     OW24313   0.574   3.795   6.080
 8105WAT    HW124314   0.662   3.812   6.114
 8105WAT    HW224315   0.527   3.878   6.091
 8106WAT     OW24316   5.709   0.502   1.660
 8106WAT    HW124317   5.784   0.491   1.718
 8106WAT    HW224318   5.639   0.451   1.702
 8107WAT     OW24319   6.373   3.977   3.808
 8107WAT    HW124320   6.393   3.897   3.856
 8107WAT    HW224321   6.292   3.957   3.761
 8108WAT     OW24322   2.875   2.241   1.023
 8108WAT    HW124323   2.836   2.248   0.936
 8108WAT    HW224324   2.878   2.146   1.040
 8109WAT     OW24325   4.066   1.036   4.316
 8109WAT    HW124326   4.063   0.958   4.372
 8109WAT    HW224327   4.159   1.051   4.300
 8110WAT     OW24328   1.406   6.369   3.806
 8110WAT    HW124329   1.392   6.304   3.737
 8110WAT    HW224330   1.363   6.448   3.773
 8111WAT     OW24331   0.342   1.871   2.519
 8111WAT    HW124332   0.259   1.875   2.566
 8111WAT    HW224333   0.326   1.920   2.438
 8112WAT     OW24334   2.289   3.938   0.964
 8112WAT    HW124335   2.230   3.910   1.033
 8112WAT    HW224336   2.375   3.940   1.005
 8113WAT     OW24337   6.670   1.947   3.386
 8113WAT    HW124338   6.683   1.853   3.387
 8113WAT    HW224339   6.702   1.977   3.472
 8114WAT     OW24340   6.594   1.171   0.673
 8114WAT    HW124341   6.545   1.203   0.597
 8114WAT    HW224342   6.542   1.099   0.707
 8115WAT     OW24343   3.575   5.311   0.868
 8115WAT    HW124344   3.552   5.402   0.886
 8115WAT    HW224345   3.491   5.265   0.868
 8116WAT     OW24346   2.535   2.020   1.838
 8116WAT    HW124347   2.487   2.035   1.919
 8116WAT    HW224348   2.537   2.105   1.794
 8117WAT     OW24349   2.833   6.662   2.344
 8117WAT    HW124350   2.799   6.578   2.376
 8117WAT    HW224351   2.915   6.674   2.392
 8118WAT     OW24352   4.178   0.644   0.541
 8118WAT    HW124353   4.240   0.712   0.515
 8118WAT    HW224354   4.114   0.640   0.470
 8119WAT     OW24355   6.595   3.105   2.493
 8119WAT    HW124356   6.508   3.143   2.506
 8119WAT    HW224357   6.615   3.121   2.401
 8120WAT     OW24358   5.616   6.550   1.849
 8120WAT    HW124359   5.566   6.471   1.871
 8120WAT    HW224360   5.659   6.529   1.766
 8121WAT     OW24361   5.263   2.288   6.357
 8121WAT    HW124362   5.340   2.333   6.393
 8121WAT    HW224363   5.278   2.196   6.377
 8122WAT     OW24364   5.227   3.680   2.562
 8122WAT    HW124365   5.286   3.701   2.490
 8122WAT    HW224366   5.270   3.606   2.606
 8123WAT     OW24367   6.376   0.605   2.213
 8123WAT    HW124368   6.417   0.569   2.134
 8123WAT    HW224369   6.353   0.527   2.265
 8124WAT     OW24370   1.273   2.025   3.942
 8124WAT    HW124371   1.337   2.090   3.969
 8124WAT    HW224372   1.279   2.024   3.846
 8125WAT     OW24373   1.395   4.955   4.568
 8125WAT    HW124374   1.474   4.997   4.603
 8125WAT    HW224375   1.363   4.902   4.641
 8126WAT     OW24376   5.572   5.866   4.623
 8126WAT    HW124377   5.654   5.832   4.658
 8126WAT    HW224378   5.521   5.788   4.600
 8127WAT     OW24379   4.512   5.510   3.915
 8127WAT    HW124380   4.471   5.556   3.988
 8127WAT    HW224381   4.564   5.441   3.957
 8128WAT     OW24382   1.343   0.337   0.508
 8128WAT    HW124383   1.342   0.357   0.602
 8128WAT    HW224384   1.306   0.249   0.502
 8129WAT     OW24385   5.201   0.206   5.080
 8129WAT    HW124386   5.151   0.286   5.064
 8129WAT    HW224387   5.134   0.137   5.083
 8130WAT     OW24388   2.101   1.512   1.190
 8130WAT    HW124389   2.183   1.560   1.193
 8130WAT    HW224390   2.080   1.505   1.097
 8131WAT     OW24391   2.258   3.237   1.717
 8131WAT    HW124392   2.289   3.313   1.768
 8131WAT    HW224393   2.266   3.265   1.626
 8132WAT     OW24394   4.575   6.680   2.383
 8132WAT    HW124395   4.623   6.644   2.458
 8132WAT    HW224396   4.487   6.694   2.417
 8133WAT     OW24397   6.379   1.148   2.427
 8133WAT    HW124398   6.465   1.140   2.386
 8133WAT    HW224399   6.367   1.064   2.471
 8134WAT     OW24400   2.527   3.058   5.957
 8134WAT    HW124401   2.547   3.045   6.050
 8134WAT    HW224402   2.553   2.976   5.915
 8135WAT     OW24403   4.745   3.013   1.809
 8135WAT    HW124404   4.674   2.960   1.775
 8135WAT    HW224405   4.804   3.024   1.735
 8136WAT     OW24406   5.043   5.238   0.110
 8136WAT    HW124407   4.956   5.227   0.073
 8136WAT    HW224408   5.029   5.242   0.204
 8137WAT     OW24409   0.734   2.553   3.776
 8137WAT    HW124410   0.704   2.630   3.728
 8137WAT    HW224411   0.695   2.563   3.863
 8138WAT     OW24412   0.202   3.178   1.025
 8138WAT    HW124413   0.120   3.164   1.074
 8138WAT    HW224414   0.190   3.127   0.945
 8139WAT     OW24415   0.387   0.240   3.534
 8139WAT    HW124416   0.317   0.175   3.544
 8139WAT    HW224417   0.455   0.194   3.485
 8140WAT     OW24418   5.914   4.558   2.928
 8140WAT    HW124419   5.962   4.476   2.916
 8140WAT    HW224420   5.835   4.533   2.976
 8141WAT     OW24421   2.749   3.902   6.587
 8141WAT    HW124422   2.700   3.857   6.656
 8141WAT    HW224423   2.750   3.994   6.614
 8142WAT     OW24424   1.469   1.452   6.101
 8142WAT    HW124425   1.492   1.543   6.121
 8142WAT    HW224426   1.410   1.426   6.171
 8143WAT     OW24427   1.299   3.523   0.481
 8143WAT    HW124428   1.224   3.483   0.525
 8143WAT    HW224429   1.262   3.565   0.404
 8144WAT     OW24430   5.924   5.929   6.609
 8144WAT    HW124431   6.017   5.943   6.587
 8144WAT    HW224432   5.888   5.883   6.533
 8145WAT     OW24433   0.741   1.858   4.061
 8145WAT    HW124434   0.751   1.953   4.058
 8145WAT    HW224435   0.805   1.830   4.126
 8146WAT     OW24436   0.908   3.293   4.670
 8146WAT    HW124437   0.819   3.265   4.690
 8146WAT    HW224438   0.911   3.385   4.693
 8147WAT     OW24439   2.111   3.215   2.783
 8147WAT    HW124440   2.161   3.287   2.745
 8147WAT    HW224441   2.056   3.256   2.850
 8148WAT     OW24442   4.085   5.552   1.806
 8148WAT    HW124443   4.081   5.647   1.819
 8148WAT    HW224444   4.066   5.540   1.713
 8149WAT     OW24445   0.516   0.643   1.938
 8149WAT    HW124446   0.461   0.714   1.903
 8149WAT    HW224447   0.605   0.667   1.914
 8150WAT     OW24448   6.073   2.697   6.359
 8150WAT    HW124449   6.165   2.687   6.334
 8150WAT    HW224450   6.037   2.758   6.295
 8151WAT     OW24451   1.926   1.159   3.019
 8151WAT    HW124452   1.861   1.095   3.046
 8151WAT    HW224453   1.940   1.214   3.096
 8152WAT     OW24454   1.527   0.696   0.092
 8152WAT    HW124455   1.581   0.617   0.096
 8152WAT    HW224456   1.437   0.664   0.092
 8153WAT     OW24457   6.595   2.856   2.624
 8153WAT    HW124458   6.682   2.828   2.595
 8153WAT    HW224459   6.581   2.940   2.579
 8154WAT     OW24460   3.429   0.615   1.417
 8154WAT    HW124461   3.410   0.697   1.462
 8154WAT    HW224462   3.509   0.632   1.367
 8155WAT     OW24463   6.335   5.447   4.935
 8155WAT    HW124464   6.425   5.449   4.903
 8155WAT    HW224465   6.311   5.540   4.943
 8156WAT     OW24466   0.147   0.792   6.334
 8156WAT    HW124467   0.239   0.770   6.317
 8156WAT    HW224468   0.123   0.851   6.263
 8157WAT     OW24469   3.753   3.062   0.356
 8157WAT    HW124470   3.744   3.131   0.290
 8157WAT    HW224471   3.787   2.987   0.309
 8158WAT     OW24472   2.942   4.909   6.496
 8158WAT    HW124473   3.004   4.837   6.485
 8158WAT    HW224474   2.928   4.915   6.590
 8159WAT     OW24475   5.573   0.455   0.724
 8159WAT    HW124476   5.570   0.442   0.818
 8159WAT    HW224477   5.484   0.433   0.694
 8160WAT     OW24478   4.118   2.878   5.312
 8160WAT    HW124479   4.034   2.835   5.328
 8160WAT    HW224480   4.177   2.807   5.287
 8161WAT     OW24481   4.500   6.213   4.165
 8161WAT    HW124482   4.594   6.201   4.152
 8161WAT    HW224483   4.474   6.274   4.095
 8162WAT     OW24484   1.980   0.029   5.211
 8162WAT    HW124485   1.951  -0.062   5.215
 8162WAT    HW224486   2.068   0.025   5.174
 8163WAT     OW24487   0.319   5.682   1.389
 8163WAT    HW124488   0.231   5.649   1.372
 8163WAT    HW224489   0.320   5.768   1.347
 8164WAT     OW24490   0.444   0.600   4.786
 8164WAT    HW124491   0.530   0.577   4.749
 8164WAT    HW224492   0.390   0.522   4.771
 8165WAT     OW24493   5.420   5.451   3.227
 8165WAT    HW124494   5.513   5.472   3.219
 8165WAT    HW224495   5.391   5.500   3.303
 8166WAT     OW24496   6.321   4.942   3.849
 8166WAT    HW124497   6.365   4.864   3.880
 8166WAT    HW224498   6.387   4.990   3.800
 8167WAT     OW24499   1.857   5.029   0.514
 8167WAT    HW124500   1.898   4.972   0.580
 8167WAT    HW224501   1.930   5.060   0.460
 8168WAT     OW24502   5.295   4.311   6.233
 8168WAT    HW124503   5.200   4.321   6.227
 8168WAT    HW224504   5.316   4.337   6.322
 8169WAT     OW24505   1.849   0.830   0.771
 8169WAT    HW124506   1.884   0.901   0.717
 8169WAT    HW224507   1.858   0.752   0.716
 8170WAT     OW24508   3.978   4.169   4.501
 8170WAT    HW124509   3.998   4.263   4.502
 8170WAT    HW224510   3.923   4.156   4.425
 8171WAT     OW24511   5.632   2.160   3.430
 8171WAT    HW124512   5.711   2.210   3.413
 8171WAT    HW224513   5.596   2.198   3.510
 8172WAT     OW24514   0.890   1.906   1.007
 8172WAT    HW124515   0.934   1.905   1.092
 8172WAT    HW224516   0.861   1.997   0.996
 8173WAT     OW24517   2.604   1.128   0.691
 8173WAT    HW124518   2.603   1.066   0.764
 8173WAT    HW224519   2.666   1.196   0.719
 8174WAT     OW24520   0.521   1.610   5.099
 8174WAT    HW124521   0.464   1.682   5.072
 8174WAT    HW224522   0.476   1.531   5.069
 8175WAT     OW24523   3.819   3.790   5.897
 8175WAT    HW124524   3.774   3.818   5.817
 8175WAT    HW224525   3.765   3.718   5.930
 8176WAT     OW24526   6.456   0.557   6.508
 8176WAT    HW124527   6.547   0.554   6.479
 8176WAT    HW224528   6.437   0.469   6.540
 8177WAT     OW24529   5.858   0.610   3.742
 8177WAT    HW124530   5.809   0.691   3.728
 8177WAT    HW224531   5.791   0.544   3.761
 8178WAT     OW24532   1.067   0.413   3.598
 8178WAT    HW124533   1.004   0.484   3.611
 8178WAT    HW224534   1.030   0.340   3.647
 8179WAT     OW24535   4.372   6.170   0.574
 8179WAT    HW124536   4.449   6.223   0.592
 8179WAT    HW224537   4.298   6.227   0.597
 8180WAT     OW24538   5.189   0.638   3.335
 8180WAT    HW124539   5.281   0.610   3.337
 8180WAT    HW224540   5.141   0.562   3.368
 8181WAT     OW24541   5.186   4.554   4.278
 8181WAT    HW124542   5.279   4.567   4.259
 8181WAT    HW224543   5.184   4.537   4.373
 8182WAT     OW24544   4.954   5.804   5.132
 8182WAT    HW124545   4.983   5.872   5.192
 8182WAT    HW224546   5.033   5.752   5.114
 8183WAT     OW24547   4.743   3.987   5.797
 8183WAT    HW124548   4.674   3.921   5.808
 8183WAT    HW224549   4.697   4.070   5.807
 8184WAT     OW24550   6.125   2.149   0.676
 8184WAT    HW124551   6.073   2.091   0.731
 8184WAT    HW224552   6.209   2.104   0.666
 8185WAT     OW24553   4.256   2.628   1.336
 8185WAT    HW124554   4.243   2.697   1.401
 8185WAT    HW224555   4.169   2.615   1.298
 8186WAT     OW24556   4.292   4.780   6.053
 8186WAT    HW124557   4.205   4.753   6.022
 8186WAT    HW224558   4.343   4.791   5.973
 8187WAT     OW24559   1.832   3.156   4.413
 8187WAT    HW124560   1.794   3.068   4.409
 8187WAT    HW224561   1.902   3.149   4.478
 8188WAT     OW24562   2.542   4.506   3.534
 8188WAT    HW124563   2.500   4.466   3.610
 8188WAT    HW224564   2.477   4.498   3.464
 8189WAT     OW24565   5.299   0.257   1.927
 8189WAT    HW124566   5.271   0.254   2.018
 8189WAT    HW224567   5.305   0.166   1.900
 8190WAT     OW24568   1.798   3.500   2.230
 8190WAT    HW124569   1.716   3.549   2.231
 8190WAT    HW224570   1.864   3.565   2.204
 8191WAT     OW24571   4.903   6.258   1.572
 8191WAT    HW124572   4.880   6.173   1.609
 8191WAT    HW224573   4.997   6.254   1.558
 8192WAT     OW24574   5.161   3.928   0.241
 8192WAT    HW124575   5.164   3.846   0.191
 8192WAT    HW224576   5.068   3.951   0.244
 8193WAT     OW24577   4.460   5.898   5.995
 8193WAT    HW124578   4.549   5.894   5.960
 8193WAT    HW224579   4.465   5.961   6.068
 8194WAT     OW24580   3.857   0.893   1.276
 8194WAT    HW124581   3.827   0.924   1.191
 8194WAT    HW224582   3.793   0.927   1.338
 8195WAT     OW24583   2.967   4.976   5.293
 8195WAT    HW124584   3.012   5.025   5.362
 8195WAT    HW224585   3.036   4.925   5.251
 8196WAT     OW24586   0.694   3.579   3.876
 8196WAT    HW124587   0.676   3.579   3.970
 8196WAT    HW224588   0.635   3.512   3.841
 8197WAT     OW24589   5.597   2.584   4.818
 8197WAT    HW124590   5.685   2.587   4.778
 8197WAT    HW224591   5.600   2.649   4.888
 8198WAT     OW24592   2.339   3.319   3.356
 8198WAT    HW124593   2.421   3.269   3.360
 8198WAT    HW224594   2.277   3.268   3.408
 8199WAT     OW24595   1.040   0.739   2.875
 8199WAT    HW124596   1.065   0.664   2.820
 8199WAT    HW224597   0.946   0.750   2.858
 8200WAT     OW24598   4.617   4.917   2.525
 8200WAT    HW124599   4.564   4.854   2.573
 8200WAT    HW224600   4.599   5.001   2.568
 8201WAT     OW24601   5.973   1.979   0.828
 8201WAT    HW124602   5.933   1.910   0.775
 8201WAT    HW224603   6.016   1.933   0.900
 8202WAT     OW24604   3.710   1.021   1.486
 8202WAT    HW124605   3.742   1.101   1.444
 8202WAT    HW224606   3.616   1.033   1.494
 8203WAT     OW24607   3.926   1.338   0.890
 8203WAT    HW124608   3.977   1.322   0.811
 8203WAT    HW224609   3.879   1.420   0.872
 8204WAT     OW24610   5.350   4.762   4.992
 8204WAT    HW124611   5.280   4.702   4.967
 8204WAT    HW224612   5.427   4.730   4.943
 8205WAT     OW24613   3.633   3.704   4.710
 8205WAT    HW124614   3.539   3.717   4.718
 8205WAT    HW224615   3.671   3.761   4.777
 8206WAT     OW24616   4.654   0.280   0.867
 8206WAT    HW124617   4.663   0.359   0.813
 8206WAT    HW224618   4.675   0.209   0.807
 8207WAT     OW24619   2.194   1.976   3.504
 8207WAT    HW124620   2.254   1.915   3.547
 8207WAT    HW224621   2.157   2.028   3.576
 8208WAT     OW24622   6.432   1.676   6.237
 8208WAT    HW124623   6.452   1.595   6.284
 8208WAT    HW224624   6.354   1.655   6.185
 8209WAT     OW24625   0.111   5.265   5.240
 8209WAT    HW124626   0.083   5.342   5.190
 8209WAT    HW224627   0.051   5.262   5.314
 8210WAT     OW24628   0.112   6.313   3.950
 8210WAT    HW124629   0.130   6.365   4.029
 8210WAT    HW224630   0.037   6.356   3.909
 8211WAT     OW24631   0.884   2.393   4.936
 8211WAT    HW124632   0.833   2.353   5.007
 8211WAT    HW224633   0.823   2.399   4.863
 8212WAT     OW24634   2.165   2.167   3.026
 8212WAT    HW124635   2.148   2.073   3.029
 8212WAT    HW224636   2.251   2.175   2.984
 8213WAT     OW24637   6.616   5.607   6.160
 8213WAT    HW124638   6.703   5.576   6.132
 8213WAT    HW224639   6.555   5.547   6.117
 8214WAT     OW24640   1.986   4.755   4.500
 8214WAT    HW124641   1.947   4.680   4.455
 8214WAT    HW224642   1.916   4.820   4.503
 8215WAT     OW24643   6.419   1.761   3.683
 8215WAT    HW124644   6.472   1.837   3.707
 8215WAT    HW224645   6.394   1.777   3.592
 8216WAT     OW24646   4.853   1.365   2.477
 8216WAT    HW124647   4.768   1.347   2.436
 8216WAT    HW224648   4.908   1.396   2.406
 8217WAT     OW24649   5.891   2.453   3.730
 8217WAT    HW124650   5.846   2.372   3.755
 8217WAT    HW224651   5.834   2.493   3.664
 8218WAT     OW24652   1.478   0.863   2.069
 8218WAT    HW124653   1.390   0.851   2.032
 8218WAT    HW224654   1.463   0.864   2.164
 8219WAT     OW24655   2.917   2.673   1.063
 8219WAT    HW124656   2.861   2.597   1.051
 8219WAT    HW224657   3.004   2.644   1.035
 8220WAT     OW24658   1.324   1.780   4.930
 8220WAT    HW124659   1.323   1.739   5.016
 8220WAT    HW224660   1.289   1.713   4.871
 8221WAT     OW24661   0.010   4.272   5.433
 8221WAT    HW124662   0.025   4.341   5.369
 8221WAT    HW224663   0.018   4.316   5.518
 8222WAT     OW24664   2.410   2.732   5.660
 8222WAT    HW124665   2.468   2.759   5.731
 8222WAT    HW224666   2.450   2.768   5.581
 8223WAT     OW24667   0.456   3.929   4.507
 8223WAT    HW124668   0.513   3.971   4.443
 8223WAT    HW224669   0.460   3.836   4.485
 8224WAT     OW24670   2.228   2.574   3.268
 8224WAT    HW124671   2.307   2.623   3.248
 8224WAT    HW224672   2.254   2.482   3.259
 8225WAT     OW24673   4.001   1.974   2.442
 8225WAT    HW124674   4.021   1.898   2.497
 8225WAT    HW224675   4.067   2.039   2.466
 8226WAT     OW24676   4.725   1.718   2.219
 8226WAT    HW124677   4.820   1.728   2.216
 8226WAT    HW224678   4.705   1.715   2.313
 8227WAT     OW24679   6.211   3.315   1.886
 8227WAT    HW124680   6.160   3.394   1.902
 8227WAT    HW224681   6.197   3.295   1.794
 8228WAT     OW24682   0.980   3.895   6.413
 8228WAT    HW124683   1.066   3.923   6.382
 8228WAT    HW224684   0.957   3.959   6.481
 8229WAT     OW24685   2.324   4.722   1.884
 8229WAT    HW124686   2.289   4.648   1.934
 8229WAT    HW224687   2.331   4.688   1.794
 8230WAT     OW24688   1.830   4.585   4.351
 8230WAT    HW124689   1.792   4.651   4.293
 8230WAT    HW224690   1.865   4.518   4.292
 8231WAT     OW24691   4.758   1.885   6.700
 8231WAT    HW124692   4.725   1.975   6.702
 8231WAT    HW224693   4.835   1.889   6.643
 8232WAT     OW24694   2.082   5.265   5.721
 8232WAT    HW124695   1.993   5.297   5.738
 8232WAT    HW224696   2.103   5.301   5.635
 8233WAT     OW24697   3.278   4.118   4.215
 8233WAT    HW124698   3.313   4.156   4.295
 8233WAT    HW224699   3.353   4.076   4.173
 8234WAT     OW24700   4.314   4.555   1.184
 8234WAT    HW124701   4.381   4.513   1.239
 8234WAT    HW224702   4.247   4.583   1.246
 8235WAT     OW24703   1.367   6.178   5.346
 8235WAT    HW124704   1.374   6.177   5.441
 8235WAT    HW224705   1.320   6.098   5.325
 8236WAT     OW24706   3.884   1.796   5.836
 8236WAT    HW124707   3.833   1.790   5.916
 8236WAT    HW224708   3.820   1.791   5.766
 8237WAT     OW24709   0.588   1.260   1.110
 8237WAT    HW124710   0.598   1.194   1.179
 8237WAT    HW224711   0.632   1.338   1.144
 8238WAT     OW24712   2.714   5.055   3.465
 8238WAT    HW124713   2.728   5.011   3.549
 8238WAT    HW224714   2.669   4.990   3.411
 8239WAT     OW24715   3.472   4.246   1.568
 8239WAT    HW124716   3.469   4.197   1.651
 8239WAT    HW224717   3.522   4.189   1.509
 8240WAT     OW24718   6.251   5.714   4.933
 8240WAT    HW124719   6.200   5.715   4.852
 8240WAT    HW224720   6.333   5.757   4.911
 8241WAT     OW24721   1.208   6.284   0.246
 8241WAT    HW124722   1.273   6.229   0.290
 8241WAT    HW224723   1.151   6.222   0.199
 8242WAT     OW24724   6.500   1.505   3.724
 8242WAT    HW124725   6.476   1.596   3.707
 8242WAT    HW224726   6.566   1.485   3.657
 8243WAT     OW24727   5.465   2.436   6.478
 8243WAT    HW124728   5.548   2.457   6.437
 8243WAT    HW224729   5.436   2.518   6.518
 8244WAT     OW24730   3.061   0.694   4.114
 8244WAT    HW124731   2.983   0.671   4.064
 8244WAT    HW224732   3.134   0.669   4.057
 8245WAT     OW24733   1.672   1.249   2.267
 8245WAT    HW124734   1.609   1.303   2.220
 8245WAT    HW224735   1.693   1.178   2.206
 8246WAT     OW24736   3.650   5.275   5.104
 8246WAT    HW124737   3.668   5.292   5.197
 8246WAT    HW224738   3.736   5.269   5.064
 8247WAT     OW24739   5.410   4.377   3.251
 8247WAT    HW124740   5.326   4.403   3.214
 8247WAT    HW224741   5.438   4.303   3.197
 8248WAT     OW24742   2.911   5.424   4.559
 8248WAT    HW124743   3.001   5.396   4.579
 8248WAT    HW224744   2.890   5.380   4.477
 8249WAT     OW24745   6.549   0.786   2.326
 8249WAT    HW124746   6.497   0.721   2.278
 8249WAT    HW224747   6.635   0.745   2.334
 8250WAT     OW24748   1.493   0.166   2.920
 8250WAT    HW124749   1.460   0.256   2.917
 8250WAT    HW224750   1.545   0.157   2.840
 8251WAT     OW24751   1.111   3.927   3.666
 8251WAT    HW124752   1.057   3.913   3.744
 8251WAT    HW224753   1.049   3.935   3.594
 8252WAT     OW24754   4.780   2.656   1.785
 8252WAT    HW124755   4.752   2.666   1.694
 8252WAT    HW224756   4.875   2.667   1.782
 8253WAT     OW24757   3.025   3.978   4.510
 8253WAT    HW124758   3.077   4.053   4.541
 8253WAT    HW224759   3.040   3.910   4.576
 8254WAT     OW24760   5.930   1.544   3.900
 8254WAT    HW124761   5.994   1.473   3.894
 8254WAT    HW224762   5.941   1.593   3.819
 8255WAT     OW24763   5.009   2.834   3.719
 8255WAT    HW124764   5.061   2.758   3.747
 8255WAT    HW224765   4.919   2.803   3.720
 8256WAT     OW24766   1.565   5.798   4.196
 8256WAT    HW124767   1.562   5.806   4.100
 8256WAT    HW224768   1.476   5.771   4.220
 8257WAT     OW24769   4.389   6.132   3.849
 8257WAT    HW124770   4.391   6.218   3.891
 8257WAT    HW224771   4.462   6.133   3.788
 8258WAT     OW24772   3.655   5.770   6.307
 8258WAT    HW124773   3.648   5.678   6.283
 8258WAT    HW224774   3.596   5.815   6.246
 8259WAT     OW24775   0.856   0.265   0.949
 8259WAT    HW124776   0.906   0.300   0.875
 8259WAT    HW224777   0.769   0.248   0.913
 8260WAT     OW24778   6.228   4.321   4.018
 8260WAT    HW124779   6.214   4.297   3.927
 8260WAT    HW224780   6.148   4.364   4.045
 8261WAT     OW24781   5.110   4.169   3.318
 8261WAT    HW124782   5.183   4.110   3.297
 8261WAT    HW224783   5.035   4.130   3.274
 8262WAT     OW24784   3.430   4.948   0.323
 8262WAT    HW124785   3.444   4.953   0.229
 8262WAT    HW224786   3.422   5.039   0.352
 8263WAT     OW24787   4.137   5.924   1.358
 8263WAT    HW124788   4.185   6.002   1.331
 8263WAT    HW224789   4.056   5.959   1.397
 8264WAT     OW24790   3.981   3.305   5.477
 8264WAT    HW124791   4.012   3.218   5.500
 8264WAT    HW224792   4.017   3.322   5.390
 8265WAT     OW24793   2.699   2.299   0.797
 8265WAT    HW124794   2.628   2.235   0.788
 8265WAT    HW224795   2.719   2.326   0.708
 8266WAT     OW24796   2.983   3.745   3.698
 8266WAT    HW124797   2.984   3.731   3.793
 8266WAT    HW224798   3.066   3.710   3.667
 8267WAT     OW24799   0.585   5.844   5.009
 8267WAT    HW124800   0.666   5.796   4.988
 8267WAT    HW224801   0.519   5.804   4.953
 8268WAT     OW24802   4.334   6.082   0.317
 8268WAT    HW124803   4.345   6.107   0.408
 8268WAT    HW224804   4.369   6.155   0.267
 8269WAT     OW24805   1.541   1.887   4.799
 8269WAT    HW124806   1.487   1.933   4.736
 8269WAT    HW224807   1.478   1.845   4.858
 8270WAT     OW24808   3.140   3.746   1.955
 8270WAT    HW124809   3.186   3.705   2.028
 8270WAT    HW224810   3.058   3.777   1.993
 8271WAT     OW24811   3.408   6.375   0.690
 8271WAT    HW124812   3.355   6.395   0.767
 8271WAT    HW224813   3.372   6.294   0.655
 8272WAT     OW24814   2.467   0.355   4.487
 8272WAT    HW124815   2.532   0.350   4.417
 8272WAT    HW224816   2.464   0.266   4.523
 8273WAT     OW24817   2.300   4.500   5.686
 8273WAT    HW124818   2.345   4.431   5.638
 8273WAT    HW224819   2.207   4.476   5.680
 8274WAT     OW24820   5.557   5.265   5.119
 8274WAT    HW124821   5.513   5.213   5.187
 8274WAT    HW224822   5.628   5.209   5.089
 8275WAT     OW24823   2.198   1.986   1.844
 8275WAT    HW124824   2.226   1.896   1.861
 8275WAT    HW224825   2.176   2.021   1.931
 8276WAT     OW24826   4.756   2.242   1.506
 8276WAT    HW124827   4.805   2.298   1.447
 8276WAT    HW224828   4.781   2.152   1.482
 8277WAT     OW24829   5.266   2.842   6.386
 8277WAT    HW124830   5.332   2.870   6.448
 8277WAT    HW224831   5.196   2.907   6.393
 8278WAT     OW24832   1.621   2.419   4.044
 8278WAT    HW124833   1.712   2.421   4.073
 8278WAT    HW224834   1.624   2.440   3.951
 8279WAT     OW24835   4.803   3.589   5.990
 8279WAT    HW124836   4.818   3.589   5.896
 8279WAT    HW224837   4.878   3.636   6.026
 8280WAT     OW24838   1.127   1.042   3.182
 8280WAT    HW124839   1.213   1.037   3.224
 8280WAT    HW224840   1.092   1.127   3.209
 8281WAT     OW24841   1.317   5.062   5.971
 8281WAT    HW124842   1.354   4.975   5.959
 8281WAT    HW224843   1.269   5.058   6.054
 8282WAT     OW24844   2.085   2.886   1.913
 8282WAT    HW124845   2.099   2.810   1.855
 8282WAT    HW224846   2.057   2.956   1.854
 8283WAT     OW24847   2.346   0.545   5.121
 8283WAT    HW124848   2.289   0.472   5.145
 8283WAT    HW224849   2.324   0.564   5.030
 8284WAT     OW24850   3.923   0.122   5.582
 8284WAT    HW124851   3.984   0.102   5.653
 8284WAT    HW224852   3.845   0.071   5.603
 8285WAT     OW24853   4.285   2.878   3.115
 8285WAT    HW124854   4.353   2.918   3.170
 8285WAT    HW224855   4.232   2.827   3.176
 8286WAT     OW24856   0.044   4.423   4.853
 8286WAT    HW124857   0.104   4.406   4.926
 8286WAT    HW224858  -0.015   4.348   4.852
 8287WAT     OW24859   2.955   4.379   2.105
 8287WAT    HW124860   2.864   4.351   2.098
 8287WAT    HW224861   3.004   4.298   2.120
 8288WAT     OW24862   4.590   4.397   1.084
 8288WAT    HW124863   4.621   4.483   1.056
 8288WAT    HW224864   4.557   4.411   1.173
 8289WAT     OW24865   0.726   0.945   6.575
 8289WAT    HW124866   0.695   0.931   6.485
 8289WAT    HW224867   0.674   1.019   6.607
 8290WAT     OW24868   4.657   4.992   1.816
 8290WAT    HW124869   4.564   4.980   1.835
 8290WAT    HW224870   4.663   4.989   1.721
 8291WAT     OW24871   5.580   6.394   3.165
 8291WAT    HW124872   5.561   6.465   3.104
 8291WAT    HW224873   5.634   6.434   3.233
 8292WAT     OW24874   6.482   3.876   2.547
 8292WAT    HW124875   6.521   3.946   2.599
 8292WAT    HW224876   6.557   3.827   2.513
 8293WAT     OW24877   3.348   2.630   3.269
 8293WAT    HW124878   3.350   2.658   3.177
 8293WAT    HW224879   3.439   2.640   3.298
 8294WAT     OW24880   6.255   6.478   5.818
 8294WAT    HW124881   6.297   6.434   5.744
 8294WAT    HW224882   6.328   6.513   5.869
 8295WAT     OW24883   2.099   0.498   1.828
 8295WAT    HW124884   2.077   0.413   1.789
 8295WAT    HW224885   2.064   0.493   1.917
 8296WAT     OW24886   0.591   4.558   6.669
 8296WAT    HW124887   0.533   4.570   6.593
 8296WAT    HW224888   0.678   4.548   6.631
 8297WAT     OW24889   6.596   1.116   4.704
 8297WAT    HW124890   6.540   1.097   4.629
 8297WAT    HW224891   6.609   1.211   4.701
 8298WAT     OW24892   0.783   0.085   0.355
 8298WAT    HW124893   0.782   0.163   0.300
 8298WAT    HW224894   0.719   0.103   0.424
 8299WAT     OW24895   1.173   3.426   2.901
 8299WAT    HW124896   1.144   3.506   2.944
 8299WAT    HW224897   1.093   3.375   2.888
 8300WAT     OW24898   3.140   2.515   6.493
 8300WAT    HW124899   3.095   2.532   6.575
 8300WAT    HW224900   3.071   2.483   6.434
 8301WAT     OW24901   5.323   0.382   2.632
 8301WAT    HW124902   5.261   0.385   2.559
 8301WAT    HW224903   5.348   0.473   2.646
 8302WAT     OW24904   4.988   3.323   2.498
 8302WAT    HW124905   5.047   3.300   2.569
 8302WAT    HW224906   5.022   3.276   2.422
 8303WAT     OW24907   2.812   2.065   2.114
 8303WAT    HW124908   2.768   2.075   2.199
 8303WAT    HW224909   2.798   2.148   2.070
 8304WAT     OW24910   1.769   6.399   3.264
 8304WAT    HW124911   1.748   6.492   3.263
 8304WAT    HW224912   1.721   6.362   3.190
 8305WAT     OW24913   4.175   2.698   3.806
 8305WAT    HW124914   4.189   2.604   3.798
 8305WAT    HW224915   4.082   2.707   3.829
 8306WAT     OW24916   1.487   1.448   1.252
 8306WAT    HW124917   1.435   1.510   1.302
 8306WAT    HW224918   1.425   1.382   1.222
 8307WAT     OW24919   6.275   0.691   3.716
 8307WAT    HW124920   6.232   0.692   3.801
 8307WAT    HW224921   6.240   0.767   3.670
 8308WAT     OW24922   0.473   6.031   5.716
 8308WAT    HW124923   0.553   5.983   5.739
 8308WAT    HW224924   0.403   5.985   5.761
 8309WAT     OW24925   3.972   5.695   0.946
 8309WAT    HW124926   3.891   5.691   0.997
 8309WAT    HW224927   4.038   5.725   1.008
 8310WAT     OW24928   4.080   3.526   1.370
 8310WAT    HW124929   4.161   3.523   1.320
 8310WAT    HW224930   4.043   3.439   1.362
 8311WAT     OW24931   5.024   3.374   2.093
 8311WAT    HW124932   5.059   3.340   2.010
 8311WAT    HW224933   4.934   3.401   2.071
 8312WAT     OW24934   2.119   0.546   3.865
 8312WAT    HW124935   2.170   0.549   3.784
 8312WAT    HW224936   2.076   0.460   3.863
 8313WAT     OW24937   6.631   3.269   5.792
 8313WAT    HW124938   6.617   3.359   5.820
 8313WAT    HW224939   6.708   3.272   5.735
 8314WAT     OW24940   6.438   5.605   1.009
 8314WAT    HW124941   6.499   5.678   1.002
 8314WAT    HW224942   6.435   5.568   0.920
 8315WAT     OW24943   3.077   1.654   0.596
 8315WAT    HW124944   3.164   1.694   0.590
 8315WAT    HW224945   3.088   1.584   0.660
 8316WAT     OW24946   5.927   3.561   4.362
 8316WAT    HW124947   5.966   3.628   4.420
 8316WAT    HW224948   5.854   3.526   4.413
 8317WAT     OW24949   2.468   6.333   4.662
 8317WAT    HW124950   2.551   6.379   4.648
 8317WAT    HW224951   2.471   6.306   4.754
 8318WAT     OW24952   4.113   0.633   6.014
 8318WAT    HW124953   4.207   0.617   6.000
 8318WAT    HW224954   4.104   0.634   6.110
 8319WAT     OW24955   1.062   6.423   0.766
 8319WAT    HW124956   1.087   6.399   0.676
 8319WAT    HW224957   1.136   6.394   0.820
 8320WAT     OW24958   0.863   4.372   4.664
 8320WAT    HW124959   0.797   4.310   4.632
 8320WAT    HW224960   0.833   4.397   4.751
 8321WAT     OW24961   6.009   4.184   6.231
 8321WAT    HW124962   5.926   4.227   6.248
 8321WAT    HW224963   5.986   4.098   6.197
 8322WAT     OW24964   6.368   1.924   4.996
 8322WAT    HW124965   6.394   1.947   4.907
 8322WAT    HW224966   6.447   1.941   5.049
 8323WAT     OW24967   2.084   4.127   4.966
 8323WAT    HW124968   2.018   4.058   4.957
 8323WAT    HW224969   2.165   4.081   4.984
 8324WAT     OW24970   4.332   0.291   2.793
 8324WAT    HW124971   4.425   0.281   2.772
 8324WAT    HW224972   4.286   0.247   2.721
 8325WAT     OW24973   2.072   5.092   6.106
 8325WAT    HW124974   1.990   5.048   6.127
 8325WAT    HW224975   2.064   5.178   6.146
 8326WAT     OW24976   2.032   5.341   4.106
 8326WAT    HW124977   1.942   5.372   4.112
 8326WAT    HW224978   2.048   5.295   4.189
 8327WAT     OW24979   0.921   6.340   1.847
 8327WAT    HW124980   0.876   6.256   1.854
 8327WAT    HW224981   0.914   6.379   1.934
 8328WAT     OW24982   4.067   3.281   4.568
 8328WAT    HW124983   4.062   3.339   4.643
 8328WAT    HW224984   4.160   3.276   4.547
 8329WAT     OW24985   6.178   6.605   1.345
 8329WAT    HW124986   6.266   6.576   1.368
 8329WAT    HW224987   6.191   6.684   1.292
 8330WAT     OW24988   2.282   1.846   4.570
 8330WAT    HW124989   2.266   1.882   4.657
 8330WAT    HW224990   2.228   1.767   4.566
 8331WAT     OW24991   4.144   3.970   6.424
 8331WAT    HW124992   4.089   3.972   6.503
 8331WAT    HW224993   4.161   4.062   6.405
 8332WAT     OW24994   3.845   3.687   5.510
 8332WAT    HW124995   3.917   3.644   5.555
 8332WAT    HW224996   3.795   3.730   5.579
 8333WAT     OW24997   4.323   3.451   6.668
 8333WAT    HW124998   4.280   3.505   6.734
 8333WAT    HW224999   4.275   3.368   6.670
 8334WAT     OW25000   4.007   0.664   1.258
 8334WAT    HW125001   4.022   0.652   1.352
 8334WAT    HW225002   3.947   0.738   1.253
 8335WAT     OW25003   0.191   0.239   0.413
 8335WAT    HW125004   0.279   0.273   0.395
 8335WAT    HW225005   0.182   0.163   0.356
 8336WAT     OW25006   5.815   1.472   6.280
 8336WAT    HW125007   5.901   1.451   6.244
 8336WAT    HW225008   5.782   1.390   6.315
 8337WAT     OW25009   6.365   4.260   5.367
 8337WAT    HW125010   6.380   4.287   5.458
 8337WAT    HW225011   6.326   4.173   5.375
 8338WAT     OW25012   2.320   4.291   4.284
 8338WAT    HW125013   2.274   4.345   4.220
 8338WAT    HW225014   2.261   4.218   4.300
 8339WAT     OW25015   0.660   4.866   1.210
 8339WAT    HW125016   0.578   4.829   1.243
 8339WAT    HW225017   0.688   4.927   1.280
 8340WAT     OW25018   1.228   3.806   1.075
 8340WAT    HW125019   1.138   3.827   1.052
 8340WAT    HW225020   1.232   3.710   1.070
 8341WAT     OW25021   3.377   4.165   0.964
 8341WAT    HW125022   3.431   4.172   0.885
 8341WAT    HW225023   3.435   4.125   1.029
 8342WAT     OW25024   1.581   2.764   0.344
 8342WAT    HW125025   1.658   2.817   0.325
 8342WAT    HW225026   1.579   2.758   0.440
 8343WAT     OW25027   2.610   3.014   1.250
 8343WAT    HW125028   2.563   2.979   1.326
 8343WAT    HW225029   2.689   2.961   1.245
 8344WAT     OW25030   0.601   3.763   2.176
 8344WAT    HW125031   0.561   3.738   2.259
 8344WAT    HW225032   0.605   3.682   2.126
 8345WAT     OW25033   2.865   0.001   2.745
 8345WAT    HW125034   2.803   0.069   2.718
 8345WAT    HW225035   2.810  -0.067   2.784
 8346WAT     OW25036   5.698   0.260   2.166
 8346WAT    HW125037   5.614   0.234   2.205
 8346WAT    HW225038   5.764   0.231   2.229
 8347WAT     OW25039   5.747   5.409   1.591
 8347WAT    HW125040   5.770   5.472   1.659
 8347WAT    HW225041   5.656   5.384   1.610
 8348WAT     OW25042   2.237   1.393   4.619
 8348WAT    HW125043   2.248   1.421   4.710
 8348WAT    HW225044   2.299   1.320   4.609
 8349WAT     OW25045   6.517   5.216   1.045
 8349WAT    HW125046   6.560   5.134   1.068
 8349WAT    HW225047   6.560   5.243   0.964
 8350WAT     OW25048   0.455   5.915   4.547
 8350WAT    HW125049   0.373   5.929   4.595
 8350WAT    HW225050   0.522   5.956   4.602
 8351WAT     OW25051   0.490   5.411   2.619
 8351WAT    HW125052   0.398   5.407   2.646
 8351WAT    HW225053   0.530   5.473   2.679
 8352WAT     OW25054   4.196   1.767   4.305
 8352WAT    HW125055   4.126   1.816   4.263
 8352WAT    HW225056   4.171   1.764   4.398
 8353WAT     OW25057   4.346   4.237   0.047
 8353WAT    HW125058   4.362   4.178  -0.027
 8353WAT    HW225059   4.397   4.315   0.028
 8354WAT     OW25060   3.433   3.035   4.977
 8354WAT    HW125061   3.476   3.116   4.951
 8354WAT    HW225062   3.342   3.047   4.952
 8355WAT     OW25063   6.513   5.093   4.942
 8355WAT    HW125064   6.504   4.998   4.954
 8355WAT    HW225065   6.475   5.109   4.855
 8356WAT     OW25066   3.576   0.696   5.575
 8356WAT    HW125067   3.623   0.770   5.538
 8356WAT    HW225068   3.637   0.658   5.639
 8357WAT     OW25069   0.460   4.473   5.078
 8357WAT    HW125070   0.465   4.493   4.985
 8357WAT    HW225071   0.529   4.527   5.118
 8358WAT     OW25072   4.774   0.854   0.242
 8358WAT    HW125073   4.822   0.775   0.214
 8358WAT    HW225074   4.839   0.907   0.287
 8359WAT     OW25075   5.712   3.432   5.945
 8359WAT    HW125076   5.633   3.474   5.913
 8359WAT    HW225077   5.690   3.339   5.951
 8360WAT     OW25078   6.362   3.346   0.726
 8360WAT    HW125079   6.377   3.337   0.632
 8360WAT    HW225080   6.412   3.275   0.766
 8361WAT     OW25081   6.478   6.247   4.741
 8361WAT    HW125082   6.447   6.171   4.790
 8361WAT    HW225083   6.480   6.218   4.650
 8362WAT     OW25084   4.754   4.591   4.969
 8362WAT    HW125085   4.830   4.558   5.019
 8362WAT    HW225086   4.724   4.667   5.019
 8363WAT     OW25087   4.467   4.121   4.979
 8363WAT    HW125088   4.414   4.189   4.937
 8363WAT    HW225089   4.483   4.058   4.910
 8364WAT     OW25090   4.518   1.680   4.543
 8364WAT    HW125091   4.548   1.652   4.456
 8364WAT    HW225092   4.547   1.611   4.602
 8365WAT     OW25093   5.566   4.018   2.485
 8365WAT    HW125094   5.560   3.923   2.471
 8365WAT    HW225095   5.501   4.037   2.552
 8366WAT     OW25096   5.682   6.513   6.347
 8366WAT    HW125097   5.619   6.580   6.319
 8366WAT    HW225098   5.628   6.442   6.381
 8367WAT     OW25099   1.771   2.444   1.292
 8367WAT    HW125100   1.789   2.373   1.229
 8367WAT    HW225101   1.857   2.482   1.309
 8368WAT     OW25102   5.339   4.724   1.037
 8368WAT    HW125103   5.365   4.647   0.987
 8368WAT    HW225104   5.244   4.717   1.044
 8369WAT     OW25105   0.485   4.554   4.248
 8369WAT    HW125106   0.421   4.495   4.285
 8369WAT    HW225107   0.434   4.630   4.219
 8370WAT     OW25108   4.513   4.757   2.937
 8370WAT    HW125109   4.476   4.810   3.008
 8370WAT    HW225110   4.481   4.668   2.953
 8371WAT     OW25111   2.350   3.278   5.119
 8371WAT    HW125112   2.311   3.252   5.203
 8371WAT    HW225113   2.319   3.212   5.057
 8372WAT     OW25114   1.980   0.478   2.081
 8372WAT    HW125115   1.894   0.442   2.060
 8372WAT    HW225116   1.966   0.572   2.085
 8373WAT     OW25117   3.596   3.251   4.900
 8373WAT    HW125118   3.589   3.272   4.807
 8373WAT    HW225119   3.676   3.199   4.907
 8374WAT     OW25120   6.608   3.653   5.108
 8374WAT    HW125121   6.531   3.686   5.154
 8374WAT    HW225122   6.619   3.564   5.139
 8375WAT     OW25123   0.056   2.127   4.305
 8375WAT    HW125124  -0.037   2.105   4.312
 8375WAT    HW225125   0.066   2.159   4.216
 8376WAT     OW25126   2.406   3.924   5.843
 8376WAT    HW125127   2.454   3.852   5.802
 8376WAT    HW225128   2.438   3.926   5.933
 8377WAT     OW25129   4.323   1.362   0.100
 8377WAT    HW125130   4.372   1.281   0.087
 8377WAT    HW225131   4.272   1.372   0.019
 8378WAT     OW25132   0.360   1.075   2.219
 8378WAT    HW125133   0.348   1.147   2.281
 8378WAT    HW225134   0.275   1.031   2.216
 8379WAT     OW25135   1.103   3.228   5.724
 8379WAT    HW125136   1.008   3.237   5.712
 8379WAT    HW225137   1.120   3.136   5.708
 8380WAT     OW25138   0.578   0.615   3.137
 8380WAT    HW125139   0.644   0.684   3.131
 8380WAT    HW225140   0.531   0.633   3.219
 8381WAT     OW25141   6.462   1.461   1.952
 8381WAT    HW125142   6.385   1.509   1.984
 8381WAT    HW225143   6.472   1.388   2.013
 8382WAT     OW25144   3.686   3.255   0.178
 8382WAT    HW125145   3.650   3.235   0.091
 8382WAT    HW225146   3.650   3.341   0.199
 8383WAT     OW25147   2.880   1.048   5.300
 8383WAT    HW125148   2.923   1.032   5.384
 8383WAT    HW225149   2.814   0.978   5.293
 8384WAT     OW25150   1.058   1.621   4.089
 8384WAT    HW125151   1.139   1.670   4.072
 8384WAT    HW225152   1.007   1.679   4.147
 8385WAT     OW25153   4.708   4.336   4.169
 8385WAT    HW125154   4.631   4.324   4.113
 8385WAT    HW225155   4.780   4.352   4.109
 8386WAT     OW25156   5.926   4.217   1.000
 8386WAT    HW125157   5.971   4.144   0.957
 8386WAT    HW225158   5.997   4.274   1.030
 8387WAT     OW25159   0.902   1.218   5.351
 8387WAT    HW125160   0.819   1.211   5.305
 8387WAT    HW225161   0.962   1.164   5.301
 8388WAT     OW25162   2.156   0.305   1.496
 8388WAT    HW125163   2.217   0.232   1.499
 8388WAT    HW225164   2.104   0.296   1.575
 8389WAT     OW25165   1.063   6.199   4.934
 8389WAT    HW125166   1.100   6.179   4.848
 8389WAT    HW225167   1.103   6.135   4.993
 8390WAT     OW25168   4.449   5.723   0.680
 8390WAT    HW125169   4.457   5.655   0.747
 8390WAT    HW225170   4.371   5.699   0.630
 8391WAT     OW25171   4.127   4.562   2.199
 8391WAT    HW125172   4.219   4.556   2.172
 8391WAT    HW225173   4.113   4.655   2.214
 8392WAT     OW25174   5.055   0.425   0.116
 8392WAT    HW125175   4.994   0.376   0.060
 8392WAT    HW225176   5.112   0.470   0.054
 8393WAT     OW25177   0.826   0.964   2.658
 8393WAT    HW125178   0.898   0.936   2.602
 8393WAT    HW225179   0.812   0.891   2.718
 8394WAT     OW25180   5.744   4.422   0.990
 8394WAT    HW125181   5.806   4.350   0.978
 8394WAT    HW225182   5.694   4.396   1.068
 8395WAT     OW25183   2.182   1.920   4.832
 8395WAT    HW125184   2.188   1.848   4.895
 8395WAT    HW225185   2.090   1.920   4.805
 8396WAT     OW25186   0.908   1.809   3.278
 8396WAT    HW125187   0.916   1.740   3.212
 8396WAT    HW225188   0.985   1.865   3.264
 8397WAT     OW25189   3.296   4.205   6.162
 8397WAT    HW125190   3.379   4.167   6.193
 8397WAT    HW225191   3.245   4.220   6.241
 8398WAT     OW25192   6.084   3.832   4.237
 8398WAT    HW125193   6.033   3.913   4.245
 8398WAT    HW225194   6.080   3.792   4.324
 8399WAT     OW25195   6.547   5.916   2.050
 8399WAT    HW125196   6.610   5.953   2.112
 8399WAT    HW225197   6.572   5.954   1.966
 8400WAT     OW25198   5.217   5.010   4.971
 8400WAT    HW125199   5.287   4.945   4.972
 8400WAT    HW225200   5.261   5.093   4.955
 8401WAT     OW25201   1.696   3.804   6.431
 8401WAT    HW125202   1.686   3.735   6.496
 8401WAT    HW225203   1.777   3.849   6.455
 8402WAT     OW25204   4.891   2.207   3.310
 8402WAT    HW125205   4.942   2.288   3.310
 8402WAT    HW225206   4.943   2.146   3.363
 8403WAT     OW25207   6.256   1.711   5.503
 8403WAT    HW125208   6.275   1.740   5.414
 8403WAT    HW225209   6.340   1.676   5.535
 8404WAT     OW25210   5.083   2.814   2.011
 8404WAT    HW125211   5.075   2.764   1.930
 8404WAT    HW225212   5.139   2.888   1.989
 8405WAT     OW25213   3.227   2.671   0.130
 8405WAT    HW125214   3.158   2.650   0.066
 8405WAT    HW225215   3.300   2.615   0.104
 8406WAT     OW25216   4.769   2.335   2.465
 8406WAT    HW125217   4.797   2.259   2.414
 8406WAT    HW225218   4.830   2.405   2.441
 8407WAT     OW25219   4.489   2.560   0.440
 8407WAT    HW125220   4.428   2.521   0.503
 8407WAT    HW225221   4.552   2.490   0.422
 8408WAT     OW25222   2.177   2.703   4.872
 8408WAT    HW125223   2.248   2.736   4.926
 8408WAT    HW225224   2.127   2.646   4.931
 8409WAT     OW25225   3.207   3.452   1.612
 8409WAT    HW125226   3.131   3.401   1.582
 8409WAT    HW225227   3.253   3.475   1.531
 8410WAT     OW25228   4.122   6.235   1.515
 8410WAT    HW125229   4.173   6.215   1.436
 8410WAT    HW225230   4.040   6.187   1.504
 8411WAT     OW25231   3.323   3.594   0.352
 8411WAT    HW125232   3.379   3.665   0.320
 8411WAT    HW225233   3.338   3.593   0.447
 8412WAT     OW25234   3.642   4.711   5.884
 8412WAT    HW125235   3.624   4.649   5.955
 8412WAT    HW225236   3.651   4.655   5.806
 8413WAT     OW25237   3.100   3.519   4.712
 8413WAT    HW125238   3.037   3.459   4.671
 8413WAT    HW225239   3.186   3.485   4.685
 8414WAT     OW25240   5.869   5.942   4.481
 8414WAT    HW125241   5.876   5.861   4.430
 8414WAT    HW225242   5.822   6.002   4.425
 8415WAT     OW25243   4.494   3.302   5.204
 8415WAT    HW125244   4.508   3.281   5.111
 8415WAT    HW225245   4.582   3.311   5.240
 8416WAT     OW25246   1.489   5.921   0.125
 8416WAT    HW125247   1.548   5.900   0.197
 8416WAT    HW225248   1.478   5.839   0.078
 8417WAT     OW25249   5.538   4.914   0.686
 8417WAT    HW125250   5.560   4.836   0.637
 8417WAT    HW225251   5.586   4.985   0.643
 8418WAT     OW25252   2.422   0.726   1.302
 8418WAT    HW125253   2.344   0.776   1.280
 8418WAT    HW225254   2.392   0.662   1.366
 8419WAT     OW25255   1.072   0.082   3.972
 8419WAT    HW125256   1.065   0.133   4.052
 8419WAT    HW225257   1.164   0.057   3.967
 8420WAT     OW25258   5.672   2.191   0.759
 8420WAT    HW125259   5.578   2.170   0.762
 8420WAT    HW225260   5.707   2.133   0.691
 8421WAT     OW25261   4.485   1.795   3.409
 8421WAT    HW125262   4.422   1.808   3.339
 8421WAT    HW225263   4.517   1.882   3.430
 8422WAT     OW25264   1.302   4.736   2.580
 8422WAT    HW125265   1.284   4.777   2.665
 8422WAT    HW225266   1.395   4.716   2.583
 8423WAT     OW25267   6.007   4.562   4.345
 8423WAT    HW125268   5.920   4.601   4.355
 8423WAT    HW225269   6.011   4.494   4.413
 8424WAT     OW25270   5.157   3.916   2.005
 8424WAT    HW125271   5.063   3.923   2.022
 8424WAT    HW225272   5.176   3.991   1.948
 8425WAT     OW25273   5.597   4.346   4.574
 8425WAT    HW125274   5.682   4.358   4.615
 8425WAT    HW225275   5.569   4.259   4.600
 8426WAT     OW25276   2.816   0.186   1.767
 8426WAT    HW125277   2.875   0.254   1.736
 8426WAT    HW225278   2.843   0.168   1.857
 8427WAT     OW25279   4.989   3.820   3.351
 8427WAT    HW125280   4.958   3.746   3.299
 8427WAT    HW225281   4.979   3.896   3.294
 8428WAT     OW25282   6.388   3.966   5.088
 8428WAT    HW125283   6.380   3.920   5.005
 8428WAT    HW225284   6.390   3.897   5.154
 8429WAT     OW25285   4.727   5.651   0.816
 8429WAT    HW125286   4.759   5.724   0.869
 8429WAT    HW225287   4.802   5.625   0.763
 8430WAT     OW25288   0.146   1.925   4.470
 8430WAT    HW125289   0.237   1.954   4.480
 8430WAT    HW225290   0.109   1.987   4.407
 8431WAT     OW25291   3.153   2.263   1.549
 8431WAT    HW125292   3.225   2.240   1.608
 8431WAT    HW225293   3.147   2.189   1.489
 8432WAT     OW25294   1.418   0.750   4.870
 8432WAT    HW125295   1.490   0.808   4.896
 8432WAT    HW225296   1.406   0.692   4.946
 8433WAT     OW25297   6.167   6.342   1.764
 8433WAT    HW125298   6.146   6.265   1.817
 8433WAT    HW225299   6.225   6.309   1.695
 8434WAT     OW25300   5.723   2.197   2.676
 8434WAT    HW125301   5.683   2.165   2.595
 8434WAT    HW225302   5.699   2.132   2.742
 8435WAT     OW25303   5.600   0.074   4.875
 8435WAT    HW125304   5.610   0.012   4.803
 8435WAT    HW225305   5.512   0.057   4.908
 8436WAT     OW25306   2.444   2.049   2.105
 8436WAT    HW125307   2.372   2.044   2.168
 8436WAT    HW225308   2.491   2.129   2.128
 8437WAT     OW25309   3.793   6.634   3.776
 8437WAT    HW125310   3.835   6.641   3.862
 8437WAT    HW225311   3.784   6.540   3.761
 8438WAT     OW25312   1.007   4.208   4.291
 8438WAT    HW125313   1.089   4.242   4.256
 8438WAT    HW225314   1.018   4.213   4.386
 8439WAT     OW25315   1.391   3.622   4.957
 8439WAT    HW125316   1.470   3.605   5.008
 8439WAT    HW225317   1.405   3.709   4.920
 8440WAT     OW25318   0.334   0.900   0.729
 8440WAT    HW125319   0.408   0.907   0.789
 8440WAT    HW225320   0.325   0.987   0.691
 8441WAT     OW25321   0.201   3.733   4.034
 8441WAT    HW125322   0.130   3.797   4.023
 8441WAT    HW225323   0.157   3.648   4.032
 8442WAT     OW25324   2.752   4.285   2.850
 8442WAT    HW125325   2.686   4.353   2.862
 8442WAT    HW225326   2.723   4.213   2.908
 8443WAT     OW25327   5.493   2.196   3.676
 8443WAT    HW125328   5.477   2.103   3.693
 8443WAT    HW225329   5.423   2.242   3.722
 8444WAT     OW25330   3.474   1.442   5.030
 8444WAT    HW125331   3.543   1.379   5.010
 8444WAT    HW225332   3.506   1.488   5.108
 8445WAT     OW25333   6.009   1.924   4.982
 8445WAT    HW125334   5.932   1.900   4.929
 8445WAT    HW225335   6.022   1.848   5.040
 8446WAT     OW25336   2.164   4.009   0.523
 8446WAT    HW125337   2.169   4.066   0.446
 8446WAT    HW225338   2.110   3.935   0.496
 8447WAT     OW25339   2.955   4.293   4.946
 8447WAT    HW125340   3.027   4.258   4.894
 8447WAT    HW225341   2.876   4.260   4.903
 8448WAT     OW25342   3.353   2.234   0.414
 8448WAT    HW125343   3.346   2.160   0.473
 8448WAT    HW225344   3.263   2.253   0.388
 8449WAT     OW25345   5.192   2.010   1.809
 8449WAT    HW125346   5.174   2.043   1.721
 8449WAT    HW225347   5.155   2.077   1.867
 8450WAT     OW25348   1.408   0.897   2.332
 8450WAT    HW125349   1.482   0.936   2.379
 8450WAT    HW225350   1.343   0.968   2.327
 8451WAT     OW25351   6.567   3.338   1.374
 8451WAT    HW125352   6.537   3.272   1.436
 8451WAT    HW225353   6.503   3.408   1.379
 8452WAT     OW25354   6.101   5.905   5.077
 8452WAT    HW125355   6.103   5.971   5.007
 8452WAT    HW225356   6.147   5.829   5.040
 8453WAT     OW25357   6.357   4.147   4.481
 8453WAT    HW125358   6.366   4.138   4.386
 8453WAT    HW225359   6.263   4.146   4.497
 8454WAT     OW25360   1.145   5.083   3.788
 8454WAT    HW125361   1.236   5.110   3.792
 8454WAT    HW225362   1.099   5.157   3.747
 8455WAT     OW25363   3.737   2.165   4.569
 8455WAT    HW125364   3.818   2.130   4.605
 8455WAT    HW225365   3.720   2.111   4.492
 8456WAT     OW25366   2.882   5.711   1.335
 8456WAT    HW125367   2.832   5.713   1.253
 8456WAT    HW225368   2.827   5.660   1.395
 8457WAT     OW25369   5.510   2.900   5.380
 8457WAT    HW125370   5.473   2.825   5.335
 8457WAT    HW225371   5.589   2.867   5.422
 8458WAT     OW25372   4.274   5.814   0.326
 8458WAT    HW125373   4.276   5.909   0.316
 8458WAT    HW225374   4.217   5.783   0.254
 8459WAT     OW25375   3.090   5.973   5.624
 8459WAT    HW125376   3.145   6.041   5.586
 8459WAT    HW225377   3.054   5.926   5.549
 8460WAT     OW25378   3.798   1.936   5.215
 8460WAT    HW125379   3.739   1.933   5.140
 8460WAT    HW225380   3.854   2.012   5.198
 8461WAT     OW25381   6.080   5.837   1.813
 8461WAT    HW125382   6.168   5.802   1.824
 8461WAT    HW225383   6.032   5.806   1.890
 8462WAT     OW25384   5.140   3.991   5.677
 8462WAT    HW125385   5.152   4.028   5.589
 8462WAT    HW225386   5.228   3.992   5.715
 8463WAT     OW25387   3.949   1.357   4.994
 8463WAT    HW125388   3.912   1.433   5.039
 8463WAT    HW225389   4.042   1.378   4.984
 8464WAT     OW25390   4.425   1.108   0.013
 8464WAT    HW125391   4.350   1.053   0.034
 8464WAT    HW225392   4.489   1.089   0.082
 8465WAT     OW25393   3.893   4.126   0.946
 8465WAT    HW125394   3.959   4.085   0.891
 8465WAT    HW225395   3.846   4.052   0.985
 8466WAT     OW25396   4.881   5.520   2.842
 8466WAT    HW125397   4.871   5.500   2.749
 8466WAT    HW225398   4.970   5.491   2.863
 8467WAT     OW25399   0.220   6.157   0.921
 8467WAT    HW125400   0.298   6.113   0.954
 8467WAT    HW225401   0.157   6.153   0.993
 8468WAT     OW25402   2.068   3.818   2.681
 8468WAT    HW125403   2.002   3.789   2.745
 8468WAT    HW225404   2.147   3.770   2.705
 8469WAT     OW25405   2.735   1.377   4.130
 8469WAT    HW125406   2.784   1.356   4.210
 8469WAT    HW225407   2.646   1.347   4.149
 8470WAT     OW25408   4.352   1.387   4.678
 8470WAT    HW125409   4.440   1.421   4.689
 8470WAT    HW225410   4.362   1.311   4.620
 8471WAT     OW25411   6.180   1.324   0.081
 8471WAT    HW125412   6.172   1.394   0.146
 8471WAT    HW225413   6.217   1.366   0.004
 8472WAT     OW25414   4.284   6.648   4.313
 8472WAT    HW125415   4.243   6.732   4.331
 8472WAT    HW225416   4.281   6.601   4.397
 8473WAT     OW25417   2.640   4.127   3.445
 8473WAT    HW125418   2.627   4.050   3.391
 8473WAT    HW225419   2.589   4.109   3.525
 8474WAT     OW25420   6.343   1.417   2.445
 8474WAT    HW125421   6.358   1.323   2.439
 8474WAT    HW225422   6.287   1.438   2.370
 8475WAT     OW25423   0.972   5.703   4.740
 8475WAT    HW125424   1.001   5.613   4.728
 8475WAT    HW225425   1.053   5.752   4.758
 8476WAT     OW25426   0.386   3.252   3.981
 8476WAT    HW125427   0.313   3.283   3.927
 8476WAT    HW225428   0.358   3.269   4.070
 8477WAT     OW25429   6.349   4.989   0.729
 8477WAT    HW125430   6.381   4.928   0.796
 8477WAT    HW225431   6.429   5.032   0.696
 8478WAT     OW25432   4.186   0.526   2.840
 8478WAT    HW125433   4.142   0.500   2.921
 8478WAT    HW225434   4.241   0.451   2.818
 8479WAT     OW25435   5.909   4.434   1.322
 8479WAT    HW125436   5.818   4.445   1.293
 8479WAT    HW225437   5.913   4.344   1.353
 8480WAT     OW25438   2.648   0.590   2.904
 8480WAT    HW125439   2.706   0.651   2.950
 8480WAT    HW225440   2.708   0.531   2.857
 8481WAT     OW25441   1.545   6.606   1.712
 8481WAT    HW125442   1.452   6.630   1.704
 8481WAT    HW225443   1.574   6.649   1.792
 8482WAT     OW25444   4.409   4.332   6.232
 8482WAT    HW125445   4.408   4.402   6.166
 8482WAT    HW225446   4.421   4.252   6.182
 8483WAT     OW25447   1.516   2.785   6.166
 8483WAT    HW125448   1.423   2.803   6.156
 8483WAT    HW225449   1.541   2.739   6.085
 8484WAT     OW25450   0.223   4.981   0.279
 8484WAT    HW125451   0.302   4.985   0.226
 8484WAT    HW225452   0.236   4.905   0.336
 8485WAT     OW25453   3.200   1.595   5.708
 8485WAT    HW125454   3.287   1.624   5.734
 8485WAT    HW225455   3.161   1.672   5.665
 8486WAT     OW25456   2.042   6.060   1.557
 8486WAT    HW125457   2.006   6.130   1.612
 8486WAT    HW225458   2.136   6.078   1.554
 8487WAT     OW25459   0.288   4.809   6.664
 8487WAT    HW125460   0.339   4.853   6.732
 8487WAT    HW225461   0.251   4.881   6.612
 8488WAT     OW25462   0.217   2.424   2.216
 8488WAT    HW125463   0.235   2.415   2.123
 8488WAT    HW225464   0.295   2.389   2.259
 8489WAT     OW25465   3.798   5.329   4.737
 8489WAT    HW125466   3.835   5.347   4.651
 8489WAT    HW225467   3.743   5.405   4.756
 8490WAT     OW25468   0.460   0.192   5.294
 8490WAT    HW125469   0.512   0.272   5.287
 8490WAT    HW225470   0.450   0.178   5.388
 8491WAT     OW25471   1.945   3.364   2.950
 8491WAT    HW125472   1.872   3.387   3.009
 8491WAT    HW225473   1.918   3.398   2.865
 8492WAT     OW25474   0.161   5.094   5.521
 8492WAT    HW125475   0.084   5.143   5.493
 8492WAT    HW225476   0.127   5.008   5.545
 8493WAT     OW25477   4.169   1.846   5.136
 8493WAT    HW125478   4.210   1.786   5.073
 8493WAT    HW225479   4.104   1.792   5.182
 8494WAT     OW25480   5.641   0.559   5.631
 8494WAT    HW125481   5.619   0.627   5.567
 8494WAT    HW225482   5.681   0.490   5.579
 8495WAT     OW25483   4.787   0.814   1.822
 8495WAT    HW125484   4.724   0.860   1.766
 8495WAT    HW225485   4.855   0.785   1.761
 8496WAT     OW25486   3.267   6.131   0.964
 8496WAT    HW125487   3.216   6.112   1.044
 8496WAT    HW225488   3.207   6.109   0.892
 8497WAT     OW25489   4.714   1.678   2.866
 8497WAT    HW125490   4.754   1.672   2.779
 8497WAT    HW225491   4.621   1.667   2.851
 8498WAT     OW25492   0.911   3.854   1.519
 8498WAT    HW125493   0.903   3.883   1.428
 8498WAT    HW225494   0.912   3.935   1.570
 8499WAT     OW25495   1.480   4.289   2.018
 8499WAT    HW125496   1.428   4.223   1.973
 8499WAT    HW225497   1.545   4.317   1.953
 8500WAT     OW25498   1.615   1.935   3.263
 8500WAT    HW125499   1.528   1.959   3.230
 8500WAT    HW225500   1.598   1.870   3.331
 8501WAT     OW25501   6.549   5.170   2.749
 8501WAT    HW125502   6.631   5.187   2.701
 8501WAT    HW225503   6.481   5.209   2.694
 8502WAT     OW25504   0.873   1.220   1.308
 8502WAT    HW125505   0.791   1.171   1.317
 8502WAT    HW225506   0.919   1.177   1.237
 8503WAT     OW25507   1.106   1.238   2.133
 8503WAT    HW125508   1.119   1.320   2.085
 8503WAT    HW225509   1.012   1.230   2.142
 8504WAT     OW25510   3.116   0.750   2.708
 8504WAT    HW125511   3.037   0.804   2.703
 8504WAT    HW225512   3.148   0.763   2.798
 8505WAT     OW25513   0.629   5.158   5.977
 8505WAT    HW125514   0.605   5.145   6.068
 8505WAT    HW225515   0.718   5.123   5.970
 8506WAT     OW25516   4.278   4.604   5.399
 8506WAT    HW125517   4.215   4.565   5.460
 8506WAT    HW225518   4.233   4.682   5.366
 8507WAT     OW25519   3.390   4.507   2.836
 8507WAT    HW125520   3.345   4.563   2.774
 8507WAT    HW225521   3.321   4.466   2.887
 8508WAT     OW25522   2.181   2.594   2.285
 8508WAT    HW125523   2.123   2.666   2.259
 8508WAT    HW225524   2.213   2.558   2.203
 8509WAT     OW25525   3.072   5.854   5.143
 8509WAT    HW125526   3.152   5.904   5.124
 8509WAT    HW225527   3.001   5.911   5.114
 8510WAT     OW25528   3.480   1.853   5.998
 8510WAT    HW125529   3.502   1.938   5.960
 8510WAT    HW225530   3.395   1.868   6.040
 8511WAT     OW25531   5.273   6.105   2.044
 8511WAT    HW125532   5.187   6.110   2.001
 8511WAT    HW225533   5.331   6.152   1.984
 8512WAT     OW25534   5.784   4.078   1.186
 8512WAT    HW125535   5.824   4.132   1.118
 8512WAT    HW225536   5.825   4.108   1.268
 8513WAT     OW25537   5.289   2.015   6.417
 8513WAT    HW125538   5.251   1.940   6.463
 8513WAT    HW225539   5.349   2.054   6.481
 8514WAT     OW25540   6.484   4.972   3.482
 8514WAT    HW125541   6.498   5.011   3.568
 8514WAT    HW225542   6.563   4.993   3.433
 8515WAT     OW25543   1.606   3.859   0.717
 8515WAT    HW125544   1.553   3.931   0.751
 8515WAT    HW225545   1.543   3.787   0.706
 8516WAT     OW25546   1.409   3.638   5.670
 8516WAT    HW125547   1.428   3.604   5.758
 8516WAT    HW225548   1.338   3.582   5.639
 8517WAT     OW25549   1.775   5.477   0.051
 8517WAT    HW125550   1.697   5.481  -0.005
 8517WAT    HW225551   1.847   5.504  -0.006
 8518WAT     OW25552   1.271   0.803   3.700
 8518WAT    HW125553   1.319   0.886   3.707
 8518WAT    HW225554   1.333   0.737   3.733
 8519WAT     OW25555   2.125   5.352   6.206
 8519WAT    HW125556   2.182   5.407   6.152
 8519WAT    HW225557   2.037   5.385   6.189
 8520WAT     OW25558   1.107   5.886   1.131
 8520WAT    HW125559   1.190   5.841   1.150
 8520WAT    HW225560   1.118   5.973   1.170
 8521WAT     OW25561   0.063   0.577   5.419
 8521WAT    HW125562   0.078   0.659   5.372
 8521WAT    HW225563  -0.032   0.570   5.425
 8522WAT     OW25564   1.093   3.929   5.669
 8522WAT    HW125565   1.153   3.975   5.729
 8522WAT    HW225566   1.086   3.841   5.705
 8523WAT     OW25567   0.240   1.585   3.010
 8523WAT    HW125568   0.207   1.576   2.921
 8523WAT    HW225569   0.320   1.636   3.001
 8524WAT     OW25570   0.794   2.132   4.058
 8524WAT    HW125571   0.840   2.164   3.980
 8524WAT    HW225572   0.850   2.159   4.131
 8525WAT     OW25573   0.795   3.199   0.237
 8525WAT    HW125574   0.853   3.148   0.294
 8525WAT    HW225575   0.851   3.228   0.166
 8526WAT     OW25576   1.257   6.612   4.972
 8526WAT    HW125577   1.333   6.578   5.019
 8526WAT    HW225578   1.184   6.557   5.000
 8527WAT     OW25579   3.789   0.945   0.143
 8527WAT    HW125580   3.847   1.014   0.110
 8527WAT    HW225581   3.702   0.985   0.144
 8528WAT     OW25582   3.304   6.576   3.098
 8528WAT    HW125583   3.270   6.529   3.022
 8528WAT    HW225584   3.295   6.669   3.075
 8529WAT     OW25585   5.855   3.184   3.745
 8529WAT    HW125586   5.838   3.134   3.824
 8529WAT    HW225587   5.942   3.220   3.757
 8530WAT     OW25588   1.840   5.561   5.919
 8530WAT    HW125589   1.750   5.594   5.919
 8530WAT    HW225590   1.837   5.485   5.860
 8531WAT     OW25591   1.955   0.848   4.156
 8531WAT    HW125592   1.897   0.798   4.215
 8531WAT    HW225593   1.943   0.807   4.071
 8532WAT     OW25594   2.010   2.655   3.126
 8532WAT    HW125595   2.090   2.632   3.175
 8532WAT    HW225596   2.024   2.617   3.039
 8533WAT     OW25597   6.169   1.069   4.988
 8533WAT    HW125598   6.261   1.051   4.966
 8533WAT    HW225599   6.173   1.138   5.053
 8534WAT     OW25600   0.043   1.017   3.947
 8534WAT    HW125601   0.044   0.933   3.901
 8534WAT    HW225602   0.110   1.070   3.904
 8535WAT     OW25603   2.437   6.465   2.884
 8535WAT    HW125604   2.365   6.435   2.828
 8535WAT    HW225605   2.417   6.428   2.970
 8536WAT     OW25606   3.642   4.074   5.511
 8536WAT    HW125607   3.681   4.157   5.482
 8536WAT    HW225608   3.557   4.071   5.467
 8537WAT     OW25609   1.427   1.461   0.767
 8537WAT    HW125610   1.375   1.508   0.833
 8537WAT    HW225611   1.449   1.528   0.703
 8538WAT     OW25612   5.250   4.305   4.887
 8538WAT    HW125613   5.260   4.322   4.981
 8538WAT    HW225614   5.311   4.366   4.846
 8539WAT     OW25615   2.055   6.109   6.519
 8539WAT    HW125616   2.101   6.179   6.565
 8539WAT    HW225617   1.992   6.075   6.583
 8540WAT     OW25618   1.229   2.731   0.604
 8540WAT    HW125619   1.223   2.805   0.664
 8540WAT    HW225620   1.264   2.768   0.523
 8541WAT     OW25621   2.909   3.772   2.122
 8541WAT    HW125622   2.916   3.691   2.174
 8541WAT    HW225623   2.889   3.840   2.187
 8542WAT     OW25624   0.720   0.538   4.707
 8542WAT    HW125625   0.748   0.476   4.640
 8542WAT    HW225626   0.796   0.547   4.765
 8543WAT     OW25627   3.582   1.185   6.058
 8543WAT    HW125628   3.651   1.132   6.019
 8543WAT    HW225629   3.507   1.173   6.000
 8544WAT     OW25630   4.199   2.906   4.369
 8544WAT    HW125631   4.208   2.898   4.464
 8544WAT    HW225632   4.290   2.904   4.337
 8545WAT     OW25633   1.443   1.020   3.752
 8545WAT    HW125634   1.467   1.109   3.727
 8545WAT    HW225635   1.509   0.965   3.709
 8546WAT     OW25636   1.050   5.600   0.095
 8546WAT    HW125637   1.109   5.576   0.023
 8546WAT    HW225638   0.991   5.665   0.058
 8547WAT     OW25639   5.501   0.989   0.432
 8547WAT    HW125640   5.528   0.926   0.365
 8547WAT    HW225641   5.583   1.032   0.457
 8548WAT     OW25642   6.507   5.663   1.656
 8548WAT    HW125643   6.600   5.641   1.649
 8548WAT    HW225644   6.471   5.641   1.570
 8549WAT     OW25645   3.718   5.562   1.846
 8549WAT    HW125646   3.748   5.593   1.761
 8549WAT    HW225647   3.796   5.527   1.888
 8550WAT     OW25648   3.895   6.482   1.008
 8550WAT    HW125649   3.880   6.572   1.038
 8550WAT    HW225650   3.913   6.491   0.914
 8551WAT     OW25651   5.465   6.017   1.088
 8551WAT    HW125652   5.511   6.049   1.166
 8551WAT    HW225653   5.526   5.956   1.048
 8552WAT     OW25654   3.213   2.311   0.084
 8552WAT    HW125655   3.139   2.275   0.034
 8552WAT    HW225656   3.184   2.307   0.175
 8553WAT     OW25657   6.162   5.262   5.804
 8553WAT    HW125658   6.212   5.288   5.726
 8553WAT    HW225659   6.160   5.167   5.801
 8554WAT     OW25660   6.385   1.794   6.493
 8554WAT    HW125661   6.428   1.880   6.496
 8554WAT    HW225662   6.406   1.760   6.406
 8555WAT     OW25663   5.829   6.193   0.823
 8555WAT    HW125664   5.834   6.124   0.889
 8555WAT    HW225665   5.736   6.198   0.800
 8556WAT     OW25666   5.662   1.805   6.528
 8556WAT    HW125667   5.729   1.857   6.572
 8556WAT    HW225668   5.706   1.724   6.502
 8557WAT     OW25669   5.907   0.515   4.580
 8557WAT    HW125670   5.973   0.500   4.514
 8557WAT    HW225671   5.948   0.574   4.643
 8558WAT     OW25672   3.806   0.413   1.034
 8558WAT    HW125673   3.775   0.328   1.003
 8558WAT    HW225674   3.817   0.465   0.955
 8559WAT     OW25675   4.730   6.638   5.152
 8559WAT    HW125676   4.688   6.678   5.229
 8559WAT    HW225677   4.758   6.713   5.099
 8560WAT     OW25678   1.691   2.676   6.350
 8560WAT    HW125679   1.662   2.706   6.436
 8560WAT    HW225680   1.626   2.710   6.289
 8561WAT     OW25681   0.924   3.896   3.863
 8561WAT    HW125682   0.862   3.964   3.889
 8561WAT    HW225683   0.940   3.846   3.943
 8562WAT     OW25684   1.162   3.601   2.508
 8562WAT    HW125685   1.113   3.535   2.556
 8562WAT    HW225686   1.121   3.603   2.421
 8563WAT     OW25687   5.822   1.164   0.184
 8563WAT    HW125688   5.773   1.173   0.102
 8563WAT    HW225689   5.851   1.253   0.204
 8564WAT     OW25690   5.873   0.498   5.986
 8564WAT    HW125691   5.952   0.503   6.041
 8564WAT    HW225692   5.847   0.406   5.991
 8565WAT     OW25693   2.758   4.013   0.622
 8565WAT    HW125694   2.811   3.979   0.550
 8565WAT    HW225695   2.706   4.083   0.582
 8566WAT     OW25696   6.424   0.738   2.695
 8566WAT    HW125697   6.362   0.686   2.748
 8566WAT    HW225698   6.475   0.787   2.760
 8567WAT     OW25699   5.907   5.009   1.293
 8567WAT    HW125700   5.835   5.013   1.231
 8567WAT    HW225701   5.884   5.073   1.361
 8568WAT     OW25702   5.709   6.223   3.496
 8568WAT    HW125703   5.718   6.311   3.460
 8568WAT    HW225704   5.750   6.166   3.431
 8569WAT     OW25705   0.535   2.098   3.334
 8569WAT    HW125706   0.461   2.060   3.380
 8569WAT    HW225707   0.612   2.054   3.372
 8570WAT     OW25708   6.074   0.024   3.988
 8570WAT    HW125709   6.053   0.054   3.899
 8570WAT    HW225710   6.012  -0.047   4.004
 8571WAT     OW25711   1.134   6.076   1.538
 8571WAT    HW125712   1.222   6.056   1.570
 8571WAT    HW225713   1.125   6.170   1.550
 8572WAT     OW25714   0.393   0.317   4.375
 8572WAT    HW125715   0.361   0.251   4.314
 8572WAT    HW225716   0.470   0.277   4.416
 8573WAT     OW25717   5.180   2.700   2.999
 8573WAT    HW125718   5.100   2.679   2.951
 8573WAT    HW225719   5.204   2.787   2.967
 8574WAT     OW25720   0.241   2.135   2.040
 8574WAT    HW125721   0.276   2.219   2.011
 8574WAT    HW225722   0.279   2.071   1.980
 8575WAT     OW25723   5.956   2.572   2.653
 8575WAT    HW125724   5.903   2.621   2.591
 8575WAT    HW225725   5.893   2.537   2.716
 8576WAT     OW25726   3.662   0.527   1.252
 8576WAT    HW125727   3.732   0.504   1.191
 8576WAT    HW225728   3.581   0.508   1.204
 8577WAT     OW25729   2.130   2.222   2.662
 8577WAT    HW125730   2.182   2.287   2.709
 8577WAT    HW225731   2.109   2.264   2.579
 8578WAT     OW25732   6.188   0.131   1.720
 8578WAT    HW125733   6.162   0.043   1.747
 8578WAT    HW225734   6.248   0.159   1.789
 8579WAT     OW25735   0.307   1.110   1.819
 8579WAT    HW125736   0.214   1.127   1.801
 8579WAT    HW225737   0.351   1.125   1.735
 8580WAT     OW25738   6.456   1.009   3.335
 8580WAT    HW125739   6.380   1.060   3.362
 8580WAT    HW225740   6.507   0.998   3.415
 8581WAT     OW25741   6.394   2.900   3.510
 8581WAT    HW125742   6.468   2.876   3.454
 8581WAT    HW225743   6.351   2.972   3.464
 8582WAT     OW25744   0.091   2.902   6.049
 8582WAT    HW125745   0.157   2.837   6.024
 8582WAT    HW225746   0.133   2.986   6.033
 8583WAT     OW25747   4.084   0.446   0.722
 8583WAT    HW125748   4.002   0.478   0.759
 8583WAT    HW225749   4.116   0.520   0.669
 8584WAT     OW25750   1.504   5.957   1.203
 8584WAT    HW125751   1.536   5.961   1.293
 8584WAT    HW225752   1.450   5.878   1.200
 8585WAT     OW25753   5.051   6.674   3.915
 8585WAT    HW125754   5.058   6.756   3.866
 8585WAT    HW225755   5.125   6.621   3.883
 8586WAT     OW25756   5.886   4.193   4.069
 8586WAT    HW125757   5.792   4.209   4.070
 8586WAT    HW225758   5.925   4.280   4.078
 8587WAT     OW25759   2.489   0.378   2.700
 8587WAT    HW125760   2.416   0.379   2.638
 8587WAT    HW225761   2.512   0.470   2.711
 8588WAT     OW25762   0.256   1.292   2.830
 8588WAT    HW125763   0.323   1.341   2.877
 8588WAT    HW225764   0.294   1.205   2.817
 8589WAT     OW25765   2.461   6.331   0.938
 8589WAT    HW125766   2.425   6.409   0.896
 8589WAT    HW225767   2.448   6.345   1.031
 8590WAT     OW25768   6.525   3.645   0.064
 8590WAT    HW125769   6.444   3.650   0.114
 8590WAT    HW225770   6.581   3.586   0.114
 8591WAT     OW25771   5.916   5.061   6.307
 8591WAT    HW125772   5.833   5.014   6.312
 8591WAT    HW225773   5.893   5.151   6.333
 8592WAT     OW25774   2.643   3.338   0.611
 8592WAT    HW125775   2.667   3.421   0.571
 8592WAT    HW225776   2.657   3.273   0.542
 8593WAT     OW25777   0.477   5.787   1.831
 8593WAT    HW125778   0.387   5.818   1.843
 8593WAT    HW225779   0.488   5.785   1.736
 8594WAT     OW25780   6.692   1.595   1.363
 8594WAT    HW125781   6.767   1.544   1.392
 8594WAT    HW225782   6.715   1.686   1.384
 8595WAT     OW25783   2.362   6.469   4.444
 8595WAT    HW125784   2.426   6.437   4.381
 8595WAT    HW225785   2.386   6.426   4.526
 8596WAT     OW25786   6.080   0.098   0.920
 8596WAT    HW125787   6.013   0.119   0.855
 8596WAT    HW225788   6.162   0.093   0.871
 8597WAT     OW25789   2.748   5.701   1.096
 8597WAT    HW125790   2.670   5.654   1.124
 8597WAT    HW225791   2.715   5.785   1.064
 8598WAT     OW25792   4.401   2.627   5.835
 8598WAT    HW125793   4.328   2.565   5.838
 8598WAT    HW225794   4.392   2.670   5.750
 8599WAT     OW25795   5.679   4.044   5.106
 8599WAT    HW125796   5.603   4.070   5.159
 8599WAT    HW225797   5.754   4.081   5.152
 8600WAT     OW25798   3.041   4.721   5.650
 8600WAT    HW125799   2.959   4.768   5.660
 8600WAT    HW225800   3.085   4.731   5.735
 8601WAT     OW25801   4.896   2.361   0.824
 8601WAT    HW125802   4.811   2.317   0.830
 8601WAT    HW225803   4.893   2.407   0.740
 8602WAT     OW25804   0.034   1.986   6.277
 8602WAT    HW125805   0.040   1.915   6.340
 8602WAT    HW225806  -0.059   1.990   6.255
 8603WAT     OW25807   0.753   4.574   6.185
 8603WAT    HW125808   0.695   4.643   6.218
 8603WAT    HW225809   0.834   4.586   6.235
 8604WAT     OW25810   1.841   4.237   3.255
 8604WAT    HW125811   1.785   4.223   3.179
 8604WAT    HW225812   1.891   4.156   3.264
 8605WAT     OW25813   0.804   2.759   5.306
 8605WAT    HW125814   0.763   2.690   5.254
 8605WAT    HW225815   0.766   2.749   5.394
 8606WAT     OW25816   6.241   0.295   4.803
 8606WAT    HW125817   6.193   0.345   4.870
 8606WAT    HW225818   6.187   0.218   4.788
 8607WAT     OW25819   5.303   6.100   5.060
 8607WAT    HW125820   5.238   6.120   4.992
 8607WAT    HW225821   5.252   6.093   5.140
 8608WAT     OW25822   2.807   5.850   5.979
 8608WAT    HW125823   2.834   5.759   5.973
 8608WAT    HW225824   2.889   5.900   5.971
 8609WAT     OW25825   6.435   6.305   2.105
 8609WAT    HW125826   6.451   6.354   2.025
 8609WAT    HW225827   6.520   6.298   2.148
 8610WAT     OW25828   4.298   0.762   2.946
 8610WAT    HW125829   4.259   0.682   2.910
 8610WAT    HW225830   4.390   0.739   2.957
 8611WAT     OW25831   3.776   4.388   1.301
 8611WAT    HW125832   3.851   4.349   1.256
 8611WAT    HW225833   3.787   4.482   1.291
 8612WAT     OW25834   3.178   6.313   1.839
 8612WAT    HW125835   3.270   6.298   1.863
 8612WAT    HW225836   3.151   6.231   1.797
 8613WAT     OW25837   5.590   4.069   1.750
 8613WAT    HW125838   5.573   3.975   1.747
 8613WAT    HW225839   5.626   4.089   1.663
 8614WAT     OW25840   3.479   2.475   0.453
 8614WAT    HW125841   3.421   2.539   0.495
 8614WAT    HW225842   3.423   2.399   0.437
 8615WAT     OW25843   0.694   4.063   3.389
 8615WAT    HW125844   0.730   4.112   3.315
 8615WAT    HW225845   0.629   4.005   3.350
 8616WAT     OW25846   5.264   4.662   5.639
 8616WAT    HW125847   5.326   4.734   5.632
 8616WAT    HW225848   5.192   4.686   5.581
 8617WAT     OW25849   2.962   1.081   1.893
 8617WAT    HW125850   2.936   1.035   1.813
 8617WAT    HW225851   3.041   1.129   1.868
 8618WAT     OW25852   5.290   2.165   1.338
 8618WAT    HW125853   5.305   2.081   1.295
 8618WAT    HW225854   5.242   2.143   1.418
 8619WAT     OW25855   3.829   6.092   3.496
 8619WAT    HW125856   3.875   6.112   3.414
 8619WAT    HW225857   3.754   6.151   3.496
 8620WAT     OW25858   1.543   2.640   5.933
 8620WAT    HW125859   1.476   2.574   5.951
 8620WAT    HW225860   1.520   2.675   5.847
 8621WAT     OW25861   0.090   0.694   2.363
 8621WAT    HW125862   0.100   0.682   2.457
 8621WAT    HW225863   0.133   0.618   2.324
 8622WAT     OW25864   3.852   6.193   4.495
 8622WAT    HW125865   3.845   6.130   4.567
 8622WAT    HW225866   3.802   6.268   4.525
 8623WAT     OW25867   2.790   1.754   3.558
 8623WAT    HW125868   2.713   1.811   3.557
 8623WAT    HW225869   2.755   1.666   3.570
 8624WAT     OW25870   4.675   3.019   6.321
 8624WAT    HW125871   4.662   2.999   6.229
 8624WAT    HW225872   4.733   2.950   6.353
 8625WAT     OW25873   5.441   4.201   2.314
 8625WAT    HW125874   5.376   4.140   2.282
 8625WAT    HW225875   5.495   4.150   2.374
 8626WAT     OW25876   6.481   4.226   2.487
 8626WAT    HW125877   6.454   4.300   2.541
 8626WAT    HW225878   6.528   4.168   2.547
 8627WAT     OW25879   1.561   3.044   6.252
 8627WAT    HW125880   1.603   3.035   6.338
 8627WAT    HW225881   1.554   2.954   6.219
 8628WAT     OW25882   6.369   2.093   5.520
 8628WAT    HW125883   6.279   2.076   5.492
 8628WAT    HW225884   6.361   2.164   5.583
 8629WAT     OW25885   3.805   6.185   2.926
 8629WAT    HW125886   3.786   6.100   2.966
 8629WAT    HW225887   3.724   6.211   2.884
 8630WAT     OW25888   6.630   4.249   3.076
 8630WAT    HW125889   6.656   4.185   3.142
 8630WAT    HW225890   6.710   4.265   3.026
 8631WAT     OW25891   5.756   5.963   3.930
 8631WAT    HW125892   5.768   6.041   3.985
 8631WAT    HW225893   5.669   5.930   3.954
 8632WAT     OW25894   4.568   0.225   2.049
 8632WAT    HW125895   4.472   0.219   2.047
 8632WAT    HW225896   4.593   0.240   1.958
 8633WAT     OW25897   6.429   5.939   1.143
 8633WAT    HW125898   6.371   5.992   1.088
 8633WAT    HW225899   6.489   5.897   1.082
 8634WAT     OW25900   0.109   4.374   0.417
 8634WAT    HW125901   0.042   4.315   0.383
 8634WAT    HW225902   0.070   4.461   0.413
 8635WAT     OW25903   0.344   6.006   2.465
 8635WAT    HW125904   0.419   5.999   2.405
 8635WAT    HW225905   0.341   5.921   2.509
 8636WAT     OW25906   4.769   5.684   6.256
 8636WAT    HW125907   4.776   5.609   6.315
 8636WAT    HW225908   4.725   5.650   6.179
 8637WAT     OW25909   5.903   4.612   3.604
 8637WAT    HW125910   5.994   4.586   3.623
 8637WAT    HW225911   5.852   4.534   3.624
 8638WAT     OW25912   1.967   0.986   0.578
 8638WAT    HW125913   1.933   0.948   0.497
 8638WAT    HW225914   1.945   1.079   0.572
 8639WAT     OW25915   0.819   6.332   5.345
 8639WAT    HW125916   0.890   6.282   5.384
 8639WAT    HW225917   0.789   6.279   5.271
 8640WAT     OW25918   5.763   1.415   0.949
 8640WAT    HW125919   5.821   1.358   0.998
 8640WAT    HW225920   5.814   1.495   0.934
 8641WAT     OW25921   0.682   3.646   0.071
 8641WAT    HW125922   0.709   3.579   0.133
 8641WAT    HW225923   0.653   3.597  -0.006
 8642WAT     OW25924   3.332   4.408   3.830
 8642WAT    HW125925   3.403   4.344   3.827
 8642WAT    HW225926   3.311   4.424   3.737
 8643WAT     OW25927   1.488   1.705   0.641
 8643WAT    HW125928   1.433   1.774   0.604
 8643WAT    HW225929   1.504   1.734   0.731
 8644WAT     OW25930   1.283   1.255   3.543
 8644WAT    HW125931   1.348   1.271   3.612
 8644WAT    HW225932   1.334   1.255   3.462
 8645WAT     OW25933   1.270   5.443   3.765
 8645WAT    HW125934   1.332   5.370   3.759
 8645WAT    HW225935   1.300   5.493   3.840
 8646WAT     OW25936   2.381   2.387   1.094
 8646WAT    HW125937   2.295   2.385   1.137
 8646WAT    HW225938   2.360   2.385   1.000
 8647WAT     OW25939   5.631   4.742   5.344
 8647WAT    HW125940   5.644   4.653   5.376
 8647WAT    HW225941   5.707   4.759   5.289
 8648WAT     OW25942   0.662   2.418   1.079
 8648WAT    HW125943   0.725   2.350   1.054
 8648WAT    HW225944   0.586   2.370   1.112
 8649WAT     OW25945   4.337   1.156   0.742
 8649WAT    HW125946   4.265   1.118   0.691
 8649WAT    HW225947   4.391   1.082   0.767
 8650WAT     OW25948   0.960   5.906   5.328
 8650WAT    HW125949   0.957   5.837   5.394
 8650WAT    HW225950   0.870   5.914   5.297
 8651WAT     OW25951   3.685   4.412   1.930
 8651WAT    HW125952   3.599   4.453   1.922
 8651WAT    HW225953   3.740   4.479   1.971
 8652WAT     OW25954   4.913   4.645   0.856
 8652WAT    HW125955   4.962   4.583   0.802
 8652WAT    HW225956   4.888   4.715   0.795
 8653WAT     OW25957   5.994   3.973   0.892
 8653WAT    HW125958   5.906   3.947   0.917
 8653WAT    HW225959   6.045   3.892   0.894
 8654WAT     OW25960   4.513   4.440   1.351
 8654WAT    HW125961   4.471   4.493   1.419
 8654WAT    HW225962   4.565   4.376   1.399
 8655WAT     OW25963   3.035   6.659   2.538
 8655WAT    HW125964   3.057   6.568   2.554
 8655WAT    HW225965   2.980   6.684   2.612
 8656WAT     OW25966   2.806   2.245   6.507
 8656WAT    HW125967   2.828   2.327   6.463
 8656WAT    HW225968   2.710   2.239   6.498
 8657WAT     OW25969   2.516   5.540   6.563
 8657WAT    HW125970   2.468   5.505   6.638
 8657WAT    HW225971   2.609   5.531   6.587
 8658WAT     OW25972   3.373   0.856   1.544
 8658WAT    HW125973   3.292   0.867   1.593
 8658WAT    HW225974   3.379   0.934   1.490
 8659WAT     OW25975   4.767   3.422   2.018
 8659WAT    HW125976   4.711   3.456   2.087
 8659WAT    HW225977   4.733   3.461   1.937
 8660WAT     OW25978   6.168   4.566   3.651
 8660WAT    HW125979   6.241   4.617   3.618
 8660WAT    HW225980   6.209   4.491   3.695
 8661WAT     OW25981   3.852   3.620   2.440
 8661WAT    HW125982   3.784   3.680   2.408
 8661WAT    HW225983   3.811   3.575   2.515
 8662WAT     OW25984   1.712   2.068   1.704
 8662WAT    HW125985   1.758   2.124   1.641
 8662WAT    HW225986   1.714   2.118   1.785
 8663WAT     OW25987   2.054   3.539   0.140
 8663WAT    HW125988   2.137   3.517   0.097
 8663WAT    HW225989   2.079   3.555   0.231
 8664WAT     OW25990   0.636   4.175   6.021
 8664WAT    HW125991   0.560   4.124   6.048
 8664WAT    HW225992   0.660   4.225   6.099
 8665WAT     OW25993   2.511   2.730   2.246
 8665WAT    HW125994   2.589   2.777   2.218
 8665WAT    HW225995   2.461   2.716   2.166
 8666WAT     OW25996   6.496   4.820   4.981
 8666WAT    HW125997   6.527   4.784   5.064
 8666WAT    HW225998   6.523   4.755   4.916
 8667WAT     OW25999   0.399   4.871   2.539
 8667WAT    HW126000   0.483   4.888   2.580
 8667WAT    HW226001   0.420   4.852   2.447
 8668WAT     OW26002   2.308   4.142   2.831
 8668WAT    HW126003   2.214   4.145   2.815
 8668WAT    HW226004   2.328   4.227   2.869
 8669WAT     OW26005   0.648   1.060   1.291
 8669WAT    HW126006   0.570   1.026   1.336
 8669WAT    HW226007   0.696   0.981   1.263
 8670WAT     OW26008   0.416   1.371   5.013
 8670WAT    HW126009   0.342   1.347   4.957
 8670WAT    HW226010   0.416   1.305   5.082
 8671WAT     OW26011   6.462   3.943   1.543
 8671WAT    HW126012   6.498   3.854   1.543
 8671WAT    HW226013   6.393   3.941   1.609
 8672WAT     OW26014   2.743   3.656   2.724
 8672WAT    HW126015   2.738   3.751   2.711
 8672WAT    HW226016   2.743   3.644   2.818
 8673WAT     OW26017   0.732   3.470   0.280
 8673WAT    HW126018   0.790   3.501   0.349
 8673WAT    HW226019   0.754   3.377   0.270
 8674WAT     OW26020   0.608   6.357   3.951
 8674WAT    HW126021   0.588   6.410   4.028
 8674WAT    HW226022   0.526   6.311   3.932
 8675WAT     OW26023   0.048   6.457   5.760
 8675WAT    HW126024   0.136   6.481   5.789
 8675WAT    HW226025   0.027   6.378   5.809
 8676WAT     OW26026   0.224   0.788   5.057
 8676WAT    HW126027   0.205   0.789   4.963
 8676WAT    HW226028   0.290   0.720   5.068
 8677WAT     OW26029   3.064   4.868   0.617
 8677WAT    HW126030   3.021   4.893   0.699
 8677WAT    HW226031   2.995   4.830   0.564
 8678WAT     OW26032   1.369   0.442   4.642
 8678WAT    HW126033   1.397   0.399   4.561
 8678WAT    HW226034   1.306   0.509   4.613
 8679WAT     OW26035   3.814   0.409   2.701
 8679WAT    HW126036   3.753   0.414   2.774
 8679WAT    HW226037   3.822   0.499   2.669
 8680WAT     OW26038   0.135   2.690   2.827
 8680WAT    HW126039   0.094   2.651   2.749
 8680WAT    HW226040   0.226   2.705   2.801
 8681WAT     OW26041   2.783   1.015   4.156
 8681WAT    HW126042   2.700   1.029   4.202
 8681WAT    HW226043   2.828   0.949   4.208
 8682WAT     OW26044   0.609   4.089   4.326
 8682WAT    HW126045   0.523   4.107   4.289
 8682WAT    HW226046   0.670   4.139   4.271
 8683WAT     OW26047   6.565   4.237   4.872
 8683WAT    HW126048   6.576   4.209   4.963
 8683WAT    HW226049   6.498   4.305   4.876
 8684WAT     OW26050   3.552   6.098   5.682
 8684WAT    HW126051   3.481   6.149   5.722
 8684WAT    HW226052   3.519   6.008   5.681
 8685WAT     OW26053   0.676   6.564   2.823
 8685WAT    HW126054   0.607   6.596   2.764
 8685WAT    HW226055   0.629   6.512   2.888
 8686WAT     OW26056   1.650   2.095   5.904
 8686WAT    HW126057   1.635   2.044   5.824
 8686WAT    HW226058   1.744   2.086   5.921
 8687WAT     OW26059   1.537   1.241   4.866
 8687WAT    HW126060   1.521   1.256   4.772
 8687WAT    HW226061   1.484   1.308   4.909
 8688WAT     OW26062   3.756   5.661   1.115
 8688WAT    HW126063   3.764   5.581   1.167
 8688WAT    HW226064   3.729   5.727   1.179
 8689WAT     OW26065   4.227   2.045   1.656
 8689WAT    HW126066   4.308   2.009   1.619
 8689WAT    HW226067   4.255   2.095   1.732
 8690WAT     OW26068   5.113   4.031   2.964
 8690WAT    HW126069   5.133   4.110   2.913
 8690WAT    HW226070   5.137   3.959   2.905
 8691WAT     OW26071   0.352   6.307   0.712
 8691WAT    HW126072   0.293   6.269   0.777
 8691WAT    HW226073   0.300   6.373   0.667
 8692WAT     OW26074   0.752   4.910   4.456
 8692WAT    HW126075   0.719   4.926   4.368
 8692WAT    HW226076   0.679   4.868   4.502
 8693WAT     OW26077   0.913   3.549   4.776
 8693WAT    HW126078   0.908   3.644   4.773
 8693WAT    HW226079   1.000   3.530   4.812
 8694WAT     OW26080   2.309   0.488   0.501
 8694WAT    HW126081   2.327   0.485   0.407
 8694WAT    HW226082   2.373   0.427   0.539
 8695WAT     OW26083   5.042   0.177   4.336
 8695WAT    HW126084   5.010   0.146   4.421
 8695WAT    HW226085   5.038   0.273   4.342
 8696WAT     OW26086   2.270   6.613   0.270
 8696WAT    HW126087   2.281   6.600   0.364
 8696WAT    HW226088   2.175   6.608   0.257
 8697WAT     OW26089   5.581   6.122   0.393
 8697WAT    HW126090   5.581   6.211   0.429
 8697WAT    HW226091   5.501   6.118   0.340
 8698WAT     OW26092   4.492   1.436   5.013
 8698WAT    HW126093   4.569   1.390   4.979
 8698WAT    HW226094   4.517   1.528   5.012
 8699WAT     OW26095   5.653   2.843   6.006
 8699WAT    HW126096   5.590   2.904   6.045
 8699WAT    HW226097   5.622   2.757   6.032
 8700WAT     OW26098   0.057   6.235   2.748
 8700WAT    HW126099   0.042   6.235   2.842
 8700WAT    HW226100   0.067   6.142   2.726
 8701WAT     OW26101   6.371   0.262   0.312
 8701WAT    HW126102   6.321   0.192   0.270
 8701WAT    HW226103   6.434   0.290   0.245
 8702WAT     OW26104   0.625   3.787   5.223
 8702WAT    HW126105   0.638   3.748   5.310
 8702WAT    HW226106   0.600   3.714   5.167
 8703WAT     OW26107   2.025   1.210   6.439
 8703WAT    HW126108   2.077   1.282   6.403
 8703WAT    HW226109   1.934   1.234   6.419
 8704WAT     OW26110   3.639   0.358   5.607
 8704WAT    HW126111   3.673   0.438   5.647
 8704WAT    HW226112   3.641   0.293   5.678
 8705WAT     OW26113   3.896   4.937   5.440
 8705WAT    HW126114   3.882   4.994   5.365
 8705WAT    HW226115   3.925   4.995   5.510
 8706WAT     OW26116   3.065   5.143   5.479
 8706WAT    HW126117   3.035   5.194   5.555
 8706WAT    HW226118   3.138   5.194   5.444
 8707WAT     OW26119   3.240   2.590   2.318
 8707WAT    HW126120   3.283   2.673   2.339
 8707WAT    HW226121   3.153   2.616   2.287
 8708WAT     OW26122   5.381   5.911   6.393
 8708WAT    HW126123   5.324   5.849   6.439
 8708WAT    HW226124   5.456   5.922   6.451
 8709WAT     OW26125   3.805   1.559   5.118
 8709WAT    HW126126   3.727   1.551   5.173
 8709WAT    HW226127   3.866   1.610   5.170
 8710WAT     OW26128   4.083   3.057   5.528
 8710WAT    HW126129   4.103   2.995   5.458
 8710WAT    HW226130   4.169   3.084   5.561
 8711WAT     OW26131   5.265   3.589   6.347
 8711WAT    HW126132   5.290   3.541   6.426
 8711WAT    HW226133   5.239   3.521   6.284
 8712WAT     OW26134   0.258   5.769   5.158
 8712WAT    HW126135   0.318   5.744   5.228
 8712WAT    HW226136   0.261   5.695   5.097
 8713WAT     OW26137   2.104   4.706   4.947
 8713WAT    HW126138   2.159   4.633   4.976
 8713WAT    HW226139   2.018   4.686   4.983
 8714WAT     OW26140   4.833   1.307   6.195
 8714WAT    HW126141   4.748   1.329   6.231
 8714WAT    HW226142   4.847   1.371   6.125
 8715WAT     OW26143   5.578   0.182   2.821
 8715WAT    HW126144   5.640   0.112   2.840
 8715WAT    HW226145   5.575   0.185   2.725
 8716WAT     OW26146   2.666   5.507   4.187
 8716WAT    HW126147   2.624   5.462   4.114
 8716WAT    HW226148   2.596   5.557   4.228
 8717WAT     OW26149   5.068   2.967   2.452
 8717WAT    HW126150   5.066   3.038   2.389
 8717WAT    HW226151   4.994   2.911   2.429
 8718WAT     OW26152   0.444   0.669   3.369
 8718WAT    HW126153   0.352   0.648   3.352
 8718WAT    HW226154   0.441   0.754   3.413
 8719WAT     OW26155   5.802   2.475   5.241
 8719WAT    HW126156   5.845   2.560   5.252
 8719WAT    HW226157   5.729   2.477   5.303
 8720WAT     OW26158   0.667   2.684   1.151
 8720WAT    HW126159   0.760   2.681   1.173
 8720WAT    HW226160   0.648   2.598   1.114
 8721WAT     OW26161   3.782   6.178   3.931
 8721WAT    HW126162   3.870   6.144   3.916
 8721WAT    HW226163   3.790   6.232   4.009
 8722WAT     OW26164   0.036   3.704   0.334
 8722WAT    HW126165   0.129   3.703   0.357
 8722WAT    HW226166   0.025   3.628   0.277
 8723WAT     OW26167   5.066   5.305   2.034
 8723WAT    HW126168   5.030   5.282   1.948
 8723WAT    HW226169   5.086   5.220   2.074
 8724WAT     OW26170   4.139   1.795   0.859
 8724WAT    HW126171   4.069   1.830   0.804
 8724WAT    HW226172   4.200   1.868   0.868
 8725WAT     OW26173   4.644   2.648   0.902
 8725WAT    HW126174   4.640   2.573   0.842
 8725WAT    HW226175   4.554   2.658   0.933
 8726WAT     OW26176   6.101   6.584   3.495
 8726WAT    HW126177   6.049   6.544   3.565
 8726WAT    HW226178   6.077   6.534   3.416
 8727WAT     OW26179   0.368   1.299   5.962
 8727WAT    HW126180   0.296   1.248   5.926
 8727WAT    HW226181   0.390   1.255   6.044
 8728WAT     OW26182   4.810   2.570   4.883
 8728WAT    HW126183   4.826   2.505   4.816
 8728WAT    HW226184   4.873   2.640   4.865
 8729WAT     OW26185   6.646   4.469   5.925
 8729WAT    HW126186   6.670   4.403   5.989
 8729WAT    HW226187   6.632   4.549   5.977
 8730WAT     OW26188   1.763   3.424   3.144
 8730WAT    HW126189   1.805   3.384   3.220
 8730WAT    HW226190   1.688   3.368   3.124
 8731WAT     OW26191   0.752   6.575   0.616
 8731WAT    HW126192   0.661   6.597   0.634
 8731WAT    HW226193   0.801   6.609   0.691
 8732WAT     OW26194   4.887   3.931   2.092
 8732WAT    HW126195   4.819   3.871   2.123
 8732WAT    HW226196   4.843   3.987   2.029
 8733WAT     OW26197   5.835   4.946   4.317
 8733WAT    HW126198   5.885   4.929   4.237
 8733WAT    HW226199   5.885   5.015   4.362
 8734WAT     OW26200   4.101   1.092   0.604
 8734WAT    HW126201   4.084   1.186   0.609
 8734WAT    HW226202   4.045   1.053   0.671
 8735WAT     OW26203   2.843   0.420   6.382
 8735WAT    HW126204   2.819   0.375   6.463
 8735WAT    HW226205   2.793   0.374   6.314
 8736WAT     OW26206   2.918   4.444   5.832
 8736WAT    HW126207   2.856   4.372   5.819
 8736WAT    HW226208   2.992   4.403   5.878
 8737WAT     OW26209   0.649   4.564   4.472
 8737WAT    HW126210   0.611   4.577   4.385
 8737WAT    HW226211   0.741   4.586   4.462
 8738WAT     OW26212   0.455   5.513   5.179
 8738WAT    HW126213   0.550   5.525   5.180
 8738WAT    HW226214   0.437   5.469   5.095
 8739WAT     OW26215   6.670   5.997   3.387
 8739WAT    HW126216   6.642   6.061   3.453
 8739WAT    HW226217   6.750   6.035   3.351
 8740WAT     OW26218   1.629   1.260   0.718
 8740WAT    HW126219   1.571   1.336   0.728
 8740WAT    HW226220   1.574   1.194   0.675
 8741WAT     OW26221   3.560   2.138   0.265
 8741WAT    HW126222   3.520   2.091   0.192
 8741WAT    HW226223   3.487   2.175   0.314
 8742WAT     OW26224   1.951   1.648   4.762
 8742WAT    HW126225   1.861   1.664   4.734
 8742WAT    HW226226   1.960   1.694   4.845
 8743WAT     OW26227   4.951   4.838   2.710
 8743WAT    HW126228   5.000   4.920   2.712
 8743WAT    HW226229   4.879   4.851   2.772
 8744WAT     OW26230   6.652   4.989   1.128
 8744WAT    HW126231   6.697   4.921   1.077
 8744WAT    HW226232   6.598   4.941   1.190
 8745WAT     OW26233   0.130   2.338   3.398
 8745WAT    HW126234   0.091   2.314   3.482
 8745WAT    HW226235   0.125   2.259   3.345
 8746WAT     OW26236   4.658   4.334   1.572
 8746WAT    HW126237   4.724   4.398   1.547
 8746WAT    HW226238   4.622   4.367   1.654
 8747WAT     OW26239   2.529   4.767   1.014
 8747WAT    HW126240   2.473   4.726   0.948
 8747WAT    HW226241   2.488   4.851   1.032
 8748WAT     OW26242   3.031   2.191   4.246
 8748WAT    HW126243   3.019   2.276   4.204
 8748WAT    HW226244   3.124   2.172   4.236
 8749WAT     OW26245   0.735   5.111   0.463
 8749WAT    HW126246   0.727   5.024   0.502
 8749WAT    HW226247   0.806   5.152   0.511
 8750WAT     OW26248   3.169   1.176   4.846
 8750WAT    HW126249   3.256   1.137   4.836
 8750WAT    HW226250   3.141   1.150   4.934
 8751WAT     OW26251   4.956   2.702   5.486
 8751WAT    HW126252   4.901   2.654   5.548
 8751WAT    HW226253   5.043   2.703   5.528
 8752WAT     OW26254   3.253   1.670   2.354
 8752WAT    HW126255   3.181   1.706   2.302
 8752WAT    HW226256   3.238   1.576   2.355
 8753WAT     OW26257   5.087   5.042   1.599
 8753WAT    HW126258   5.165   5.038   1.544
 8753WAT    HW226259   5.076   4.953   1.633
 8754WAT     OW26260   6.073   2.323   5.590
 8754WAT    HW126261   6.165   2.331   5.615
 8754WAT    HW226262   6.070   2.246   5.533
 8755WAT     OW26263   3.521   2.532   1.190
 8755WAT    HW126264   3.550   2.442   1.203
 8755WAT    HW226265   3.494   2.562   1.277
 8756WAT     OW26266   1.567   3.528   2.648
 8756WAT    HW126267   1.531   3.476   2.719
 8756WAT    HW226268   1.642   3.477   2.616
 8757WAT     OW26269   2.986   0.429   0.616
 8757WAT    HW126270   2.991   0.475   0.532
 8757WAT    HW226271   3.048   0.357   0.608
 8758WAT     OW26272   3.026   2.667   5.057
 8758WAT    HW126273   3.119   2.684   5.040
 8758WAT    HW226274   2.998   2.738   5.115
 8759WAT     OW26275   3.984   0.480   5.833
 8759WAT    HW126276   4.052   0.470   5.767
 8759WAT    HW226277   4.022   0.537   5.899
 8760WAT     OW26278   3.313   4.674   5.561
 8760WAT    HW126279   3.223   4.707   5.565
 8760WAT    HW226280   3.363   4.736   5.614
 8761WAT     OW26281   4.312   4.665   0.760
 8761WAT    HW126282   4.219   4.660   0.782
 8761WAT    HW226283   4.314   4.698   0.670
 8762WAT     OW26284   1.089   4.266   4.558
 8762WAT    HW126285   1.011   4.298   4.604
 8762WAT    HW226286   1.145   4.342   4.549
 8763WAT     OW26287   2.324   2.346   0.824
 8763WAT    HW126288   2.376   2.267   0.814
 8763WAT    HW226289   2.346   2.398   0.746
 8764WAT     OW26290   5.198   1.821   3.379
 8764WAT    HW126291   5.127   1.767   3.345
 8764WAT    HW226292   5.268   1.812   3.314
 8765WAT     OW26293   0.850   5.425   3.063
 8765WAT    HW126294   0.931   5.411   3.014
 8765WAT    HW226295   0.783   5.383   3.009
 8766WAT     OW26296   5.110   4.210   0.840
 8766WAT    HW126297   5.171   4.174   0.777
 8766WAT    HW226298   5.101   4.302   0.815
 8767WAT     OW26299   6.389   0.314   6.637
 8767WAT    HW126300   6.297   0.325   6.662
 8767WAT    HW226301   6.391   0.231   6.590
 8768WAT     OW26302   0.954   4.170   0.462
 8768WAT    HW126303   0.859   4.165   0.454
 8768WAT    HW226304   0.969   4.215   0.545
 8769WAT     OW26305   4.889   1.516   6.021
 8769WAT    HW126306   4.981   1.541   6.023
 8769WAT    HW226307   4.842   1.600   6.020
 8770WAT     OW26308   6.243   1.692   4.877
 8770WAT    HW126309   6.214   1.622   4.935
 8770WAT    HW226310   6.282   1.757   4.936
 8771WAT     OW26311   5.124   5.523   2.179
 8771WAT    HW126312   5.081   5.596   2.135
 8771WAT    HW226313   5.102   5.447   2.126
 8772WAT     OW26314   1.916   3.857   5.990
 8772WAT    HW126315   1.937   3.832   6.080
 8772WAT    HW226316   1.999   3.854   5.943
 8773WAT     OW26317   0.708   3.898   3.062
 8773WAT    HW126318   0.747   3.811   3.052
 8773WAT    HW226319   0.643   3.887   3.132
 8774WAT     OW26320   5.812   1.950   2.375
 8774WAT    HW126321   5.842   1.902   2.453
 8774WAT    HW226322   5.740   2.004   2.407
 8775WAT     OW26323   6.478   4.448   3.994
 8775WAT    HW126324   6.390   4.428   4.025
 8775WAT    HW226325   6.501   4.375   3.937
 8776WAT     OW26326   2.478   1.901   4.203
 8776WAT    HW126327   2.554   1.948   4.166
 8776WAT    HW226328   2.509   1.868   4.287
 8777WAT     OW26329   1.213   4.238   6.352
 8777WAT    HW126330   1.234   4.145   6.343
 8777WAT    HW226331   1.256   4.280   6.277
 8778WAT     OW26332   5.297   3.594   0.597
 8778WAT    HW126333   5.207   3.566   0.614
 8778WAT    HW226334   5.288   3.683   0.563
 8779WAT     OW26335   2.717   5.192   3.862
 8779WAT    HW126336   2.771   5.120   3.894
 8779WAT    HW226337   2.639   5.149   3.827
 8780WAT     OW26338   3.529   5.456   5.976
 8780WAT    HW126339   3.464   5.523   5.955
 8780WAT    HW226340   3.566   5.484   6.059
 8781WAT     OW26341   3.089   3.298   0.727
 8781WAT    HW126342   3.004   3.306   0.769
 8781WAT    HW226343   3.133   3.382   0.745
 8782WAT     OW26344   1.296   0.560   1.959
 8782WAT    HW126345   1.260   0.649   1.967
 8782WAT    HW226346   1.316   0.550   1.866
 8783WAT     OW26347   1.496   5.966   2.222
 8783WAT    HW126348   1.563   6.011   2.172
 8783WAT    HW226349   1.432   5.938   2.157
 8784WAT     OW26350   1.906   2.018   6.020
 8784WAT    HW126351   1.885   2.065   6.101
 8784WAT    HW226352   1.910   1.926   6.046
 8785WAT     OW26353   0.173   6.702   4.583
 8785WAT    HW126354   0.213   6.615   4.597
 8785WAT    HW226355   0.080   6.689   4.603
 8786WAT     OW26356   5.101   5.507   4.724
 8786WAT    HW126357   5.140   5.594   4.722
 8786WAT    HW226358   5.105   5.481   4.816
 8787WAT     OW26359   5.261   1.407   6.212
 8787WAT    HW126360   5.180   1.395   6.261
 8787WAT    HW226361   5.293   1.494   6.239
 8788WAT     OW26362   2.302   0.105   0.598
 8788WAT    HW126363   2.362   0.180   0.594
 8788WAT    HW226364   2.215   0.144   0.594
 8789WAT     OW26365   1.678   4.620   1.730
 8789WAT    HW126366   1.708   4.710   1.714
 8789WAT    HW226367   1.666   4.583   1.642
 8790WAT     OW26368   3.730   0.913   3.314
 8790WAT    HW126369   3.773   0.992   3.349
 8790WAT    HW226370   3.688   0.942   3.234
 8791WAT     OW26371   0.008   3.249   1.951
 8791WAT    HW126372  -0.071   3.228   1.902
 8791WAT    HW226373   0.029   3.339   1.928
 8792WAT     OW26374   4.802   1.763   3.110
 8792WAT    HW126375   4.777   1.736   3.022
 8792WAT    HW226376   4.820   1.857   3.103
 8793WAT     OW26377   5.819   0.839   5.421
 8793WAT    HW126378   5.730   0.804   5.421
 8793WAT    HW226379   5.872   0.769   5.458
 8794WAT     OW26380   2.076   0.226   2.150
 8794WAT    HW126381   2.170   0.245   2.159
 8794WAT    HW226382   2.038   0.308   2.119
 8795WAT     OW26383   4.038   1.868   0.276
 8795WAT    HW126384   3.960   1.841   0.323
 8795WAT    HW226385   4.108   1.811   0.309
 8796WAT     OW26386   5.259   0.594   0.012
 8796WAT    HW126387   5.321   0.614   0.083
 8796WAT    HW226388   5.313   0.564  -0.060
 8797WAT     OW26389   5.444   1.000   0.820
 8797WAT    HW126390   5.431   1.088   0.785
 8797WAT    HW226391   5.461   1.014   0.914
 8798WAT     OW26392   6.106   3.316   5.967
 8798WAT    HW126393   6.127   3.352   5.881
 8798WAT    HW226394   6.036   3.372   6.000
 8799WAT     OW26395   2.054   5.664   6.064
 8799WAT    HW126396   1.989   5.640   5.997
 8799WAT    HW226397   2.133   5.615   6.039
 8800WAT     OW26398   3.112   3.001   3.855
 8800WAT    HW126399   3.159   2.973   3.776
 8800WAT    HW226400   3.027   3.032   3.822
 8801WAT     OW26401   1.667   6.353   1.727
 8801WAT    HW126402   1.623   6.437   1.716
 8801WAT    HW226403   1.600   6.295   1.762
 8802WAT     OW26404   5.726   0.020   3.420
 8802WAT    HW126405   5.697   0.108   3.445
 8802WAT    HW226406   5.732   0.023   3.325
 8803WAT     OW26407   0.754   1.202   2.816
 8803WAT    HW126408   0.719   1.271   2.760
 8803WAT    HW226409   0.793   1.139   2.755
 8804WAT     OW26410   0.852   1.641   0.606
 8804WAT    HW126411   0.907   1.654   0.529
 8804WAT    HW226412   0.831   1.548   0.605
 8805WAT     OW26413   1.233   0.356   1.233
 8805WAT    HW126414   1.284   0.344   1.153
 8805WAT    HW226415   1.278   0.303   1.298
 8806WAT     OW26416   5.175   0.718   3.071
 8806WAT    HW126417   5.250   0.771   3.044
 8806WAT    HW226418   5.186   0.708   3.166
 8807WAT     OW26419   5.232   2.339   0.555
 8807WAT    HW126420   5.319   2.354   0.519
 8807WAT    HW226421   5.239   2.364   0.647
 8808WAT     OW26422   2.903   4.761   4.348
 8808WAT    HW126423   2.813   4.762   4.317
 8808WAT    HW226424   2.915   4.673   4.384
 8809WAT     OW26425   6.700   6.100   1.401
 8809WAT    HW126426   6.681   6.007   1.401
 8809WAT    HW226427   6.793   6.106   1.422
 8810WAT     OW26428   5.611   2.559   6.034
 8810WAT    HW126429   5.695   2.559   6.080
 8810WAT    HW226430   5.634   2.569   5.942
 8811WAT     OW26431   1.874   6.711   0.680
 8811WAT    HW126432   1.895   6.665   0.761
 8811WAT    HW226433   1.802   6.769   0.704
 8812WAT     OW26434   4.598   3.726   5.133
 8812WAT    HW126435   4.526   3.787   5.152
 8812WAT    HW226436   4.662   3.778   5.085
 8813WAT     OW26437   5.265   3.572   4.743
 8813WAT    HW126438   5.298   3.566   4.832
 8813WAT    HW226439   5.183   3.621   4.752
 8814WAT     OW26440   6.132   3.912   3.671
 8814WAT    HW126441   6.086   3.962   3.738
 8814WAT    HW226442   6.063   3.882   3.612
 8815WAT     OW26443   2.254   3.305   1.058
 8815WAT    HW126444   2.173   3.258   1.077
 8815WAT    HW226445   2.316   3.275   1.124
 8816WAT     OW26446   0.285   6.717   2.171
 8816WAT    HW126447   0.366   6.667   2.162
 8816WAT    HW226448   0.289   6.782   2.101
 8817WAT     OW26449   3.026   1.726   2.206
 8817WAT    HW126450   2.969   1.719   2.282
 8817WAT    HW226451   3.008   1.648   2.155
 8818WAT     OW26452   0.529   4.314   5.291
 8818WAT    HW126453   0.465   4.337   5.358
 8818WAT    HW226454   0.499   4.361   5.213
 8819WAT     OW26455   6.524   2.151   2.958
 8819WAT    HW126456   6.588   2.102   3.010
 8819WAT    HW226457   6.487   2.215   3.019
 8820WAT     OW26458   2.206   3.578   1.076
 8820WAT    HW126459   2.224   3.484   1.077
 8820WAT    HW226460   2.136   3.589   1.013
 8821WAT     OW26461   1.563   6.594   6.457
 8821WAT    HW126462   1.603   6.546   6.384
 8821WAT    HW226463   1.546   6.527   6.523
 8822WAT     OW26464   4.162   5.773   1.127
 8822WAT    HW126465   4.203   5.835   1.067
 8822WAT    HW226466   4.152   5.822   1.209
 8823WAT     OW26467   0.164   6.467   2.260
 8823WAT    HW126468   0.230   6.404   2.291
 8823WAT    HW226469   0.216   6.542   2.231
 8824WAT     OW26470   1.810   3.192   0.300
 8824WAT    HW126471   1.789   3.277   0.338
 8824WAT    HW226472   1.905   3.187   0.305
 8825WAT     OW26473   6.192   0.836   3.265
 8825WAT    HW126474   6.127   0.899   3.235
 8825WAT    HW226475   6.249   0.822   3.189
 8826WAT     OW26476   3.762   5.616   1.575
 8826WAT    HW126477   3.676   5.577   1.562
 8826WAT    HW226478   3.755   5.703   1.537
 8827WAT     OW26479   2.989   1.436   6.094
 8827WAT    HW126480   2.935   1.471   6.165
 8827WAT    HW226481   2.969   1.490   6.019
 8828WAT     OW26482   2.194   3.316   6.520
 8828WAT    HW126483   2.245   3.278   6.448
 8828WAT    HW226484   2.152   3.241   6.561
 8829WAT     OW26485   2.140   4.373   0.721
 8829WAT    HW126486   2.134   4.429   0.799
 8829WAT    HW226487   2.131   4.284   0.755
 8830WAT     OW26488   1.228   6.470   0.048
 8830WAT    HW126489   1.221   6.398   0.110
 8830WAT    HW226490   1.185   6.544   0.092
 8831WAT     OW26491   2.728   6.259   0.985
 8831WAT    HW126492   2.641   6.275   0.948
 8831WAT    HW226493   2.720   6.289   1.076
 8832WAT     OW26494   2.810   6.487   1.798
 8832WAT    HW126495   2.870   6.472   1.871
 8832WAT    HW226496   2.726   6.507   1.840
 8833WAT     OW26497   4.794   2.644   0.093
 8833WAT    HW126498   4.762   2.590   0.021
 8833WAT    HW226499   4.873   2.686   0.059
 8834WAT     OW26500   4.619   2.246   3.288
 8834WAT    HW126501   4.713   2.232   3.300
 8834WAT    HW226502   4.612   2.337   3.258
 8835WAT     OW26503   0.216   5.933   2.144
 8835WAT    HW126504   0.135   5.964   2.185
 8835WAT    HW226505   0.226   5.843   2.178
 8836WAT     OW26506   2.106   2.890   1.542
 8836WAT    HW126507   2.102   2.817   1.604
 8836WAT    HW226508   2.080   2.967   1.594
 8837WAT     OW26509   2.021   0.255   1.730
 8837WAT    HW126510   2.071   0.181   1.764
 8837WAT    HW226511   1.931   0.225   1.730
 8838WAT     OW26512   0.649   0.523   3.491
 8838WAT    HW126513   0.580   0.574   3.448
 8838WAT    HW226514   0.666   0.451   3.430
 8839WAT     OW26515   6.143   4.982   1.642
 8839WAT    HW126516   6.168   5.073   1.657
 8839WAT    HW226517   6.220   4.931   1.665
 8840WAT     OW26518   3.188   3.551   0.764
 8840WAT    HW126519   3.266   3.566   0.711
 8840WAT    HW226520   3.212   3.582   0.852
 8841WAT     OW26521   0.810   3.631   3.026
 8841WAT    HW126522   0.905   3.645   3.021
 8841WAT    HW226523   0.801   3.543   3.062
 8842WAT     OW26524   2.077   1.557   0.265
 8842WAT    HW126525   2.016   1.488   0.238
 8842WAT    HW226526   2.130   1.573   0.187
 8843WAT     OW26527   0.965   0.954   4.156
 8843WAT    HW126528   0.906   1.026   4.178
 8843WAT    HW226529   0.960   0.947   4.060
 8844WAT     OW26530   5.671   0.936   2.601
 8844WAT    HW126531   5.738   0.894   2.547
 8844WAT    HW226532   5.692   0.910   2.690
 8845WAT     OW26533   1.039   5.421   6.492
 8845WAT    HW126534   1.060   5.360   6.421
 8845WAT    HW226535   0.944   5.427   6.492
 8846WAT     OW26536   1.527   3.022   1.746
 8846WAT    HW126537   1.558   3.091   1.804
 8846WAT    HW226538   1.607   2.981   1.712
 8847WAT     OW26539   0.988   4.057   0.790
 8847WAT    HW126540   1.057   4.007   0.747
 8847WAT    HW226541   1.007   4.148   0.767
 8848WAT     OW26542   1.785   6.021   6.063
 8848WAT    HW126543   1.862   6.036   6.118
 8848WAT    HW226544   1.711   6.027   6.123
 8849WAT     OW26545   0.380   5.919   0.759
 8849WAT    HW126546   0.406   5.961   0.841
 8849WAT    HW226547   0.339   5.837   0.787
 8850WAT     OW26548   4.997   6.043   2.490
 8850WAT    HW126549   4.972   6.023   2.580
 8850WAT    HW226550   4.921   6.019   2.438
 8851WAT     OW26551   4.176   2.973   3.751
 8851WAT    HW126552   4.182   2.879   3.766
 8851WAT    HW226553   4.094   2.985   3.704
 8852WAT     OW26554   5.255   3.030   1.949
 8852WAT    HW126555   5.284   3.078   2.027
 8852WAT    HW226556   5.335   3.020   1.897
 8853WAT     OW26557   5.604   6.295   5.701
 8853WAT    HW126558   5.512   6.277   5.682
 8853WAT    HW226559   5.611   6.280   5.796
 8854WAT     OW26560   1.362   3.535   6.605
 8854WAT    HW126561   1.355   3.452   6.559
 8854WAT    HW226562   1.360   3.601   6.536
 8855WAT     OW26563   1.126   3.069   0.117
 8855WAT    HW126564   1.075   3.147   0.093
 8855WAT    HW226565   1.210   3.080   0.074
 8856WAT     OW26566   3.361   0.495   5.175
 8856WAT    HW126567   3.393   0.418   5.128
 8856WAT    HW226568   3.390   0.481   5.265
 8857WAT     OW26569   1.439   0.934   2.645
 8857WAT    HW126570   1.357   0.983   2.656
 8857WAT    HW226571   1.489   0.985   2.581
 8858WAT     OW26572   2.563   5.985   0.723
 8858WAT    HW126573   2.547   5.958   0.633
 8858WAT    HW226574   2.489   6.042   0.744
 8859WAT     OW26575   5.611   4.250   6.717
 8859WAT    HW126576   5.575   4.164   6.699
 8859WAT    HW226577   5.690   4.256   6.662
 8860WAT     OW26578   2.935   5.928   2.852
 8860WAT    HW126579   2.922   5.999   2.915
 8860WAT    HW226580   2.905   5.849   2.898
 8861WAT     OW26581   1.331   1.716   5.202
 8861WAT    HW126582   1.260   1.669   5.246
 8861WAT    HW226583   1.327   1.805   5.237
 8862WAT     OW26584   0.582   5.023   3.537
 8862WAT    HW126585   0.612   4.945   3.489
 8862WAT    HW226586   0.486   5.018   3.533
 8863WAT     OW26587   3.350   3.210   5.590
 8863WAT    HW126588   3.386   3.298   5.603
 8863WAT    HW226589   3.285   3.200   5.659
 8864WAT     OW26590   6.587   1.379   3.957
 8864WAT    HW126591   6.553   1.290   3.959
 8864WAT    HW226592   6.555   1.415   3.874
 8865WAT     OW26593   1.567   5.626   5.971
 8865WAT    HW126594   1.496   5.615   5.909
 8865WAT    HW226595   1.557   5.553   6.032
 8866WAT     OW26596   0.275   4.209   6.437
 8866WAT    HW126597   0.315   4.123   6.420
 8866WAT    HW226598   0.340   4.272   6.406
 8867WAT     OW26599   4.957   4.733   3.672
 8867WAT    HW126600   4.968   4.676   3.596
 8867WAT    HW226601   4.978   4.821   3.641
 8868WAT     OW26602   4.635   2.965   0.449
 8868WAT    HW126603   4.671   3.052   0.467
 8868WAT    HW226604   4.655   2.949   0.356
 8869WAT     OW26605   1.207   6.174   2.726
 8869WAT    HW126606   1.234   6.265   2.733
 8869WAT    HW226607   1.111   6.178   2.724
 8870WAT     OW26608   0.369   6.404   3.621
 8870WAT    HW126609   0.358   6.358   3.704
 8870WAT    HW226610   0.456   6.379   3.590
 8871WAT     OW26611   4.508   4.466   4.953
 8871WAT    HW126612   4.599   4.492   4.958
 8871WAT    HW226613   4.497   4.433   4.864
 8872WAT     OW26614   3.062   5.800   3.479
 8872WAT    HW126615   2.974   5.803   3.517
 8872WAT    HW226616   3.118   5.841   3.544
 8873WAT     OW26617   0.331   2.434   1.699
 8873WAT    HW126618   0.252   2.456   1.650
 8873WAT    HW226619   0.401   2.434   1.633
 8874WAT     OW26620   3.105   5.893   3.900
 8874WAT    HW126621   3.144   5.902   3.813
 8874WAT    HW226622   3.154   5.823   3.942
 8875WAT     OW26623   1.326   0.686   2.689
 8875WAT    HW126624   1.343   0.674   2.783
 8875WAT    HW226625   1.366   0.771   2.668
 8876WAT     OW26626   4.684   4.546   0.553
 8876WAT    HW126627   4.688   4.455   0.521
 8876WAT    HW226628   4.640   4.540   0.637
 8877WAT     OW26629   4.302   3.518   1.211
 8877WAT    HW126630   4.306   3.558   1.124
 8877WAT    HW226631   4.343   3.432   1.199
 8878WAT     OW26632   6.304   0.317   2.912
 8878WAT    HW126633   6.223   0.285   2.871
 8878WAT    HW226634   6.357   0.239   2.926
 8879WAT     OW26635   1.299   0.050   0.942
 8879WAT    HW126636   1.369   0.006   0.894
 8879WAT    HW226637   1.234   0.070   0.875
 8880WAT     OW26638   0.661   6.042   4.682
 8880WAT    HW126639   0.701   6.076   4.762
 8880WAT    HW226640   0.715   5.967   4.657
 8881WAT     OW26641   4.146   5.262   2.385
 8881WAT    HW126642   4.178   5.275   2.296
 8881WAT    HW226643   4.059   5.300   2.386
 8882WAT     OW26644   0.210   0.134   1.707
 8882WAT    HW126645   0.285   0.080   1.683
 8882WAT    HW226646   0.224   0.217   1.661
 8883WAT     OW26647   0.368   5.311   0.719
 8883WAT    HW126648   0.402   5.306   0.629
 8883WAT    HW226649   0.445   5.331   0.772
 8884WAT     OW26650   4.345   5.462   1.395
 8884WAT    HW126651   4.283   5.463   1.322
 8884WAT    HW226652   4.333   5.548   1.436
 8885WAT     OW26653   2.955   5.208   1.463
 8885WAT    HW126654   2.998   5.136   1.509
 8885WAT    HW226655   3.025   5.271   1.447
 8886WAT     OW26656   6.109   2.914   2.193
 8886WAT    HW126657   6.167   2.855   2.145
 8886WAT    HW226658   6.097   2.989   2.134
 8887WAT     OW26659   3.923   6.476   0.732
 8887WAT    HW126660   3.905   6.562   0.695
 8887WAT    HW226661   3.842   6.426   0.721
 8888WAT     OW26662   2.580   5.849   5.252
 8888WAT    HW126663   2.648   5.797   5.208
 8888WAT    HW226664   2.548   5.793   5.322
 8889WAT     OW26665   0.450   1.596   3.448
 8889WAT    HW126666   0.534   1.627   3.415
 8889WAT    HW226667   0.411   1.550   3.374
 8890WAT     OW26668   5.299   2.949   3.933
 8890WAT    HW126669   5.231   2.897   3.977
 8890WAT    HW226670   5.251   3.001   3.869
 8891WAT     OW26671   1.399   6.480   5.904
 8891WAT    HW126672   1.465   6.411   5.896
 8891WAT    HW226673   1.341   6.449   5.973
 8892WAT     OW26674   3.516   2.689   0.806
 8892WAT    HW126675   3.463   2.690   0.885
 8892WAT    HW226676   3.567   2.770   0.810
 8893WAT     OW26677   5.417   3.610   1.507
 8893WAT    HW126678   5.351   3.659   1.458
 8893WAT    HW226679   5.382   3.521   1.514
 8894WAT     OW26680   4.538   6.718   5.637
 8894WAT    HW126681   4.517   6.625   5.637
 8894WAT    HW226682   4.620   6.724   5.688
 8895WAT     OW26683   2.204   2.608   0.125
 8895WAT    HW126684   2.193   2.525   0.079
 8895WAT    HW226685   2.290   2.601   0.167
 8896WAT     OW26686   3.013   1.196   2.141
 8896WAT    HW126687   2.988   1.153   2.059
 8896WAT    HW226688   3.081   1.139   2.178
 8897WAT     OW26689   3.803   3.972   1.529
 8897WAT    HW126690   3.839   4.015   1.607
 8897WAT    HW226691   3.879   3.946   1.479
 8898WAT     OW26692   1.054   5.993   3.848
 8898WAT    HW126693   0.978   5.936   3.854
 8898WAT    HW226694   1.049   6.047   3.927
 8899WAT     OW26695   2.126   5.392   4.695
 8899WAT    HW126696   2.216   5.380   4.666
 8899WAT    HW226697   2.134   5.437   4.779
 8900WAT     OW26698   3.982   6.172   3.283
 8900WAT    HW126699   3.972   6.231   3.209
 8900WAT    HW226700   4.037   6.219   3.345
 8901WAT     OW26701   4.956   5.238   1.457
 8901WAT    HW126702   4.974   5.211   1.367
 8901WAT    HW226703   4.995   5.169   1.511
 8902WAT     OW26704   0.882   5.504   1.542
 8902WAT    HW126705   0.818   5.466   1.603
 8902WAT    HW226706   0.914   5.583   1.587
 8903WAT     OW26707   4.165   1.826   2.980
 8903WAT    HW126708   4.203   1.833   2.893
 8903WAT    HW226709   4.073   1.847   2.968
 8904WAT     OW26710   0.958   5.111   1.981
 8904WAT    HW126711   0.933   5.074   2.065
 8904WAT    HW226712   1.033   5.166   2.000
 8905WAT     OW26713   2.012   4.096   4.606
 8905WAT    HW126714   2.015   4.184   4.645
 8905WAT    HW226715   1.925   4.063   4.631
 8906WAT     OW26716   6.559   3.914   0.022
 8906WAT    HW126717   6.494   3.947  -0.040
 8906WAT    HW226718   6.543   3.820   0.027
 8907WAT     OW26719   0.734   5.865   0.912
 8907WAT    HW126720   0.661   5.824   0.959
 8907WAT    HW226721   0.705   5.955   0.896
 8908WAT     OW26722   2.903   0.008   0.830
 8908WAT    HW126723   2.856   0.066   0.891
 8908WAT    HW226724   2.942  -0.059   0.885
 8909WAT     OW26725   2.573   2.082   5.656
 8909WAT    HW126726   2.605   2.055   5.570
 8909WAT    HW226727   2.478   2.075   5.651
 8910WAT     OW26728   5.987   4.113   1.923
 8910WAT    HW126729   5.928   4.188   1.918
 8910WAT    HW226730   5.956   4.052   1.856
 8911WAT     OW26731   1.047   1.931   5.366
 8911WAT    HW126732   1.068   1.903   5.455
 8911WAT    HW226733   1.132   1.948   5.325
 8912WAT     OW26734   6.481   2.873   1.644
 8912WAT    HW126735   6.577   2.874   1.636
 8912WAT    HW226736   6.461   2.783   1.669
 8913WAT     OW26737   0.251   3.383   2.295
 8913WAT    HW126738   0.241   3.291   2.272
 8913WAT    HW226739   0.346   3.397   2.296
 8914WAT     OW26740   5.109   0.578   4.789
 8914WAT    HW126741   5.166   0.511   4.749
 8914WAT    HW226742   5.062   0.616   4.715
 8915WAT     OW26743   5.036   1.703   5.022
 8915WAT    HW126744   5.126   1.700   5.054
 8915WAT    HW226745   5.033   1.639   4.951
 8916WAT     OW26746   2.774   6.582   1.412
 8916WAT    HW126747   2.820   6.625   1.484
 8916WAT    HW226748   2.761   6.492   1.441
 8917WAT     OW26749   5.492   4.000   6.716
 8917WAT    HW126750   5.456   3.965   6.634
 8917WAT    HW226751   5.537   3.926   6.756
 8918WAT     OW26752   6.297   3.903   2.912
 8918WAT    HW126753   6.360   3.971   2.890
 8918WAT    HW226754   6.314   3.834   2.848
 8919WAT     OW26755   3.053   6.155   2.225
 8919WAT    HW126756   3.096   6.165   2.310
 8919WAT    HW226757   3.119   6.114   2.169
 8920WAT     OW26758   2.451   2.342   0.385
 8920WAT    HW126759   2.460   2.253   0.418
 8920WAT    HW226760   2.488   2.339   0.297
 8921WAT     OW26761   3.096   5.778   2.053
 8921WAT    HW126762   3.006   5.770   2.021
 8921WAT    HW226763   3.148   5.728   1.990
 8922WAT     OW26764   4.753   3.802   2.934
 8922WAT    HW126765   4.707   3.731   2.890
 8922WAT    HW226766   4.812   3.837   2.867
 8923WAT     OW26767   0.030   5.381   6.575
 8923WAT    HW126768   0.037   5.476   6.568
 8923WAT    HW226769   0.008   5.365   6.666
 8924WAT     OW26770   4.612   0.361   6.610
 8924WAT    HW126771   4.543   0.387   6.671
 8924WAT    HW226772   4.579   0.281   6.569
 8925WAT     OW26773   1.914   4.700   0.842
 8925WAT    HW126774   1.845   4.688   0.907
 8925WAT    HW226775   1.984   4.641   0.870
 8926WAT     OW26776   0.157   4.141   6.086
 8926WAT    HW126777   0.217   4.216   6.074
 8926WAT    HW226778   0.099   4.168   6.157
 8927WAT     OW26779   4.101   4.247   4.123
 8927WAT    HW126780   4.025   4.297   4.094
 8927WAT    HW226781   4.162   4.251   4.050
 8928WAT     OW26782   0.026   3.111   4.917
 8928WAT    HW126783   0.043   3.205   4.917
 8928WAT    HW226784  -0.000   3.092   4.827
 8929WAT     OW26785   5.939   3.945   4.668
 8929WAT    HW126786   5.846   3.965   4.655
 8929WAT    HW226787   5.959   3.979   4.754
 8930WAT     OW26788   4.214   1.092   3.476
 8930WAT    HW126789   4.288   1.146   3.449
 8930WAT    HW226790   4.191   1.042   3.398
 8931WAT     OW26791   6.562   4.677   4.545
 8931WAT    HW126792   6.492   4.732   4.509
 8931WAT    HW226793   6.540   4.589   4.515
 8932WAT     OW26794   0.713   1.346   3.960
 8932WAT    HW126795   0.647   1.349   3.891
 8932WAT    HW226796   0.783   1.404   3.931
 8933WAT     OW26797   2.127   1.213   5.608
 8933WAT    HW126798   2.060   1.222   5.540
 8933WAT    HW226799   2.209   1.205   5.559
 8934WAT     OW26800   5.038   4.068   6.159
 8934WAT    HW126801   5.019   4.035   6.071
 8934WAT    HW226802   5.129   4.043   6.175
 8935WAT     OW26803   3.297   0.742   3.713
 8935WAT    HW126804   3.385   0.782   3.712
 8935WAT    HW226805   3.240   0.812   3.746
 8936WAT     OW26806   0.874   0.611   3.627
 8936WAT    HW126807   0.833   0.625   3.713
 8936WAT    HW226808   0.801   0.589   3.569
 8937WAT     OW26809   2.165   2.030   5.404
 8937WAT    HW126810   2.107   2.017   5.329
 8937WAT    HW226811   2.182   2.125   5.405
 8938WAT     OW26812   5.772   5.123   5.039
 8938WAT    HW126813   5.811   5.121   4.951
 8938WAT    HW226814   5.846   5.115   5.098
 8939WAT     OW26815   0.465   1.381   0.897
 8939WAT    HW126816   0.503   1.338   0.974
 8939WAT    HW226817   0.376   1.404   0.925
 8940WAT     OW26818   2.157   4.771   6.488
 8940WAT    HW126819   2.216   4.707   6.448
 8940WAT    HW226820   2.163   4.849   6.433
 8941WAT     OW26821   2.649   1.844   2.411
 8941WAT    HW126822   2.588   1.815   2.342
 8941WAT    HW226823   2.664   1.936   2.392
 8942WAT     OW26824   0.598   0.005   5.151
 8942WAT    HW126825   0.559   0.015   5.064
 8942WAT    HW226826   0.559   0.074   5.203
 8943WAT     OW26827   3.884   6.170   1.158
 8943WAT    HW126828   3.860   6.161   1.065
 8943WAT    HW226829   3.956   6.234   1.157
 8944WAT     OW26830   0.284   1.333   4.586
 8944WAT    HW126831   0.369   1.292   4.569
 8944WAT    HW226832   0.229   1.307   4.512
 8945WAT     OW26833   0.058   1.844   0.913
 8945WAT    HW126834   0.093   1.932   0.901
 8945WAT    HW226835   0.134   1.790   0.932
 8946WAT     OW26836   3.138   0.957   1.139
 8946WAT    HW126837   3.064   0.985   1.085
 8946WAT    HW226838   3.125   1.003   1.223
 8947WAT     OW26839   3.197   0.986   2.172
 8947WAT    HW126840   3.227   0.957   2.086
 8947WAT    HW226841   3.150   0.911   2.208
 8948WAT     OW26842   1.081   6.155   4.067
 8948WAT    HW126843   1.160   6.208   4.070
 8948WAT    HW226844   1.010   6.218   4.056
 8949WAT     OW26845   4.852   2.888   2.147
 8949WAT    HW126846   4.832   2.979   2.123
 8949WAT    HW226847   4.934   2.869   2.101
 8950WAT     OW26848   0.300   1.155   0.631
 8950WAT    HW126849   0.263   1.170   0.543
 8950WAT    HW226850   0.232   1.186   0.691
 8951WAT     OW26851   5.951   3.240   1.015
 8951WAT    HW126852   5.862   3.268   1.038
 8951WAT    HW226853   6.002   3.320   1.013
 8952WAT     OW26854   2.532   6.317   4.277
 8952WAT    HW126855   2.478   6.240   4.262
 8952WAT    HW226856   2.579   6.330   4.195
 8953WAT     OW26857   2.070   5.409   0.345
 8953WAT    HW126858   2.078   5.371   0.432
 8953WAT    HW226859   1.996   5.362   0.306
 8954WAT     OW26860   0.424   6.067   4.952
 8954WAT    HW126861   0.370   6.061   5.031
 8954WAT    HW226862   0.492   6.000   4.965
 8955WAT     OW26863   4.433   0.803   2.381
 8955WAT    HW126864   4.386   0.838   2.456
 8955WAT    HW226865   4.513   0.766   2.417
 8956WAT     OW26866   5.056   2.399   6.491
 8956WAT    HW126867   5.129   2.360   6.444
 8956WAT    HW226868   5.027   2.331   6.552
 8957WAT     OW26869   1.313   1.602   1.411
 8957WAT    HW126870   1.250   1.578   1.343
 8957WAT    HW226871   1.300   1.536   1.479
 8958WAT     OW26872   3.219   6.641   6.618
 8958WAT    HW126873   3.279   6.575   6.652
 8958WAT    HW226874   3.186   6.603   6.536
 8959WAT     OW26875   3.041   6.540   0.971
 8959WAT    HW126876   3.053   6.566   1.063
 8959WAT    HW226877   3.124   6.500   0.946
 8960WAT     OW26878   2.277   3.503   6.709
 8960WAT    HW126879   2.334   3.557   6.654
 8960WAT    HW226880   2.252   3.430   6.653
 8961WAT     OW26881   2.593   3.718   3.948
 8961WAT    HW126882   2.681   3.708   3.986
 8961WAT    HW226883   2.609   3.726   3.854
 8962WAT     OW26884   0.482   4.112   2.277
 8962WAT    HW126885   0.492   4.207   2.266
 8962WAT    HW226886   0.487   4.077   2.188
 8963WAT     OW26887   3.677   1.262   4.974
 8963WAT    HW126888   3.762   1.305   4.988
 8963WAT    HW226889   3.686   1.218   4.890
 8964WAT     OW26890   6.307   0.081   0.774
 8964WAT    HW126891   6.326  -0.008   0.805
 8964WAT    HW226892   6.345   0.084   0.686
 8965WAT     OW26893   6.696   2.512   0.178
 8965WAT    HW126894   6.668   2.603   0.189
 8965WAT    HW226895   6.683   2.473   0.265
 8966WAT     OW26896   1.704   3.872   2.647
 8966WAT    HW126897   1.659   3.868   2.562
 8966WAT    HW226898   1.759   3.950   2.640
 8967WAT     OW26899   5.965   1.314   2.015
 8967WAT    HW126900   6.035   1.249   2.014
 8967WAT    HW226901   5.886   1.265   1.992
 8968WAT     OW26902   2.098   3.239   2.114
 8968WAT    HW126903   2.006   3.246   2.088
 8968WAT    HW226904   2.138   3.321   2.084
 8969WAT     OW26905   2.071   4.066   3.777
 8969WAT    HW126906   2.083   3.985   3.729
 8969WAT    HW226907   1.978   4.086   3.769
 8970WAT     OW26908   2.346   4.757   3.462
 8970WAT    HW126909   2.288   4.809   3.406
 8970WAT    HW226910   2.352   4.672   3.418
 8971WAT     OW26911   1.638   0.040   1.918
 8971WAT    HW126912   1.682   0.095   1.853
 8971WAT    HW226913   1.709  -0.009   1.960
 8972WAT     OW26914   3.743   0.352   0.477
 8972WAT    HW126915   3.688   0.389   0.547
 8972WAT    HW226916   3.823   0.324   0.523
 8973WAT     OW26917   6.408   0.334   0.825
 8973WAT    HW126918   6.365   0.249   0.818
 8973WAT    HW226919   6.381   0.367   0.911
 8974WAT     OW26920   6.204   0.902   3.539
 8974WAT    HW126921   6.122   0.951   3.537
 8974WAT    HW226922   6.216   0.870   3.450
 8975WAT     OW26923   2.039   0.190   0.578
 8975WAT    HW126924   1.986   0.116   0.609
 8975WAT    HW226925   2.028   0.189   0.483
 8976WAT     OW26926   0.066   3.679   1.418
 8976WAT    HW126927   0.105   3.610   1.471
 8976WAT    HW226928   0.082   3.653   1.327
 8977WAT     OW26929   3.832   6.220   2.235
 8977WAT    HW126930   3.874   6.195   2.318
 8977WAT    HW226931   3.769   6.150   2.218
 8978WAT     OW26932   1.900   6.347   1.303
 8978WAT    HW126933   1.852   6.355   1.220
 8978WAT    HW226934   1.869   6.265   1.341
 8979WAT     OW26935   0.502   5.744   1.008
 8979WAT    HW126936   0.532   5.659   1.041
 8979WAT    HW226937   0.419   5.724   0.965
 8980WAT     OW26938   6.083   1.889   1.062
 8980WAT    HW126939   6.155   1.826   1.066
 8980WAT    HW226940   6.125   1.974   1.076
 8981WAT     OW26941   6.297   5.770   0.158
 8981WAT    HW126942   6.329   5.834   0.094
 8981WAT    HW226943   6.204   5.789   0.167
 8982WAT     OW26944   4.376   1.744   1.234
 8982WAT    HW126945   4.286   1.762   1.205
 8982WAT    HW226946   4.368   1.669   1.293
 8983WAT     OW26947   5.391   6.406   3.569
 8983WAT    HW126948   5.377   6.328   3.516
 8983WAT    HW226949   5.482   6.398   3.598
 8984WAT     OW26950   2.311   0.535   1.478
 8984WAT    HW126951   2.257   0.455   1.475
 8984WAT    HW226952   2.398   0.504   1.501
 8985WAT     OW26953   1.072   3.676   5.799
 8985WAT    HW126954   0.991   3.628   5.783
 8985WAT    HW226955   1.140   3.622   5.757
 8986WAT     OW26956   3.720   0.122   0.333
 8986WAT    HW126957   3.646   0.133   0.274
 8986WAT    HW226958   3.727   0.207   0.378
 8987WAT     OW26959   0.938   2.462   6.705
 8987WAT    HW126960   0.886   2.381   6.702
 8987WAT    HW226961   0.875   2.532   6.691
 8988WAT     OW26962   6.695   6.642   6.082
 8988WAT    HW126963   6.774   6.591   6.066
 8988WAT    HW226964   6.693   6.653   6.177
 8989WAT     OW26965   0.156   6.020   5.440
 8989WAT    HW126966   0.151   5.926   5.458
 8989WAT    HW226967   0.157   6.060   5.527
 8990WAT     OW26968   3.444   6.355   5.508
 8990WAT    HW126969   3.527   6.379   5.549
 8990WAT    HW226970   3.454   6.382   5.416
 8991WAT     OW26971   1.254   6.494   4.564
 8991WAT    HW126972   1.169   6.466   4.529
 8991WAT    HW226973   1.235   6.573   4.614
 8992WAT     OW26974   6.560   3.243   3.763
 8992WAT    HW126975   6.648   3.208   3.753
 8992WAT    HW226976   6.563   3.296   3.843
 8993WAT     OW26977   4.213   4.239   6.403
 8993WAT    HW126978   4.274   4.279   6.341
 8993WAT    HW226979   4.141   4.301   6.409
 8994WAT     OW26980   5.460   3.022   6.110
 8994WAT    HW126981   5.439   3.079   6.184
 8994WAT    HW226982   5.389   2.959   6.107
 8995WAT     OW26983   4.939   4.136   1.727
 8995WAT    HW126984   4.974   4.204   1.784
 8995WAT    HW226985   4.866   4.098   1.775
 8996WAT     OW26986   6.489   3.270   1.803
 8996WAT    HW126987   6.492   3.364   1.783
 8996WAT    HW226988   6.406   3.257   1.848
 8997WAT     OW26989   4.925   0.821   0.625
 8997WAT    HW126990   4.986   0.892   0.644
 8997WAT    HW226991   4.838   0.860   0.633
 8998WAT     OW26992   5.218   2.301   1.088
 8998WAT    HW126993   5.207   2.396   1.099
 8998WAT    HW226994   5.252   2.270   1.172
 8999WAT     OW26995   3.067   4.760   1.463
 8999WAT    HW126996   3.143   4.735   1.410
 8999WAT    HW226997   3.056   4.687   1.524
 9000WAT     OW26998   2.968   1.828   0.777
 9000WAT    HW126999   3.004   1.773   0.707
 9000WAT    HW227000   2.873   1.822   0.765
 9001WAT     OW27001   3.442   5.846   5.681
 9001WAT    HW127002   3.507   5.784   5.648
 9001WAT    HW227003   3.359   5.799   5.675
 9002WAT     OW27004   5.453   5.697   5.618
 9002WAT    HW127005   5.440   5.791   5.607
 9002WAT    HW227006   5.387   5.671   5.682
 9003WAT     OW27007   3.251   6.537   2.101
 9003WAT    HW127008   3.302   6.609   2.138
 9003WAT    HW227009   3.295   6.458   2.133
 9004WAT     OW27010   6.054   2.525   3.079
 9004WAT    HW127011   6.121   2.581   3.042
 9004WAT    HW227012   5.984   2.585   3.106
 9005WAT     OW27013   0.814   5.512   5.942
 9005WAT    HW127014   0.808   5.524   6.037
 9005WAT    HW227015   0.725   5.489   5.916
 9006WAT     OW27016   3.890   1.515   3.211
 9006WAT    HW127017   3.967   1.496   3.158
 9006WAT    HW227018   3.867   1.431   3.251
 9007WAT     OW27019   2.568   6.471   5.279
 9007WAT    HW127020   2.525   6.556   5.273
 9007WAT    HW227021   2.641   6.485   5.339
 9008WAT     OW27022   5.098   6.418   1.313
 9008WAT    HW127023   5.140   6.500   1.290
 9008WAT    HW227024   5.008   6.427   1.283
 9009WAT     OW27025   4.718   5.905   2.924
 9009WAT    HW127026   4.680   5.962   2.991
 9009WAT    HW227027   4.647   5.892   2.861
 9010WAT     OW27028   3.655   2.396   4.842
 9010WAT    HW127029   3.746   2.423   4.828
 9010WAT    HW227030   3.616   2.395   4.755
 9011WAT     OW27031   1.605   4.931   4.276
 9011WAT    HW127032   1.529   4.937   4.218
 9011WAT    HW227033   1.667   4.995   4.242
 9012WAT     OW27034   4.338   0.441   5.219
 9012WAT    HW127035   4.391   0.471   5.293
 9012WAT    HW227036   4.250   0.471   5.239
 9013WAT     OW27037   1.557   2.563   4.879
 9013WAT    HW127038   1.558   2.490   4.941
 9013WAT    HW227039   1.618   2.537   4.810
 9014WAT     OW27040   3.748   3.373   4.204
 9014WAT    HW127041   3.731   3.279   4.213
 9014WAT    HW227042   3.836   3.385   4.239
 9015WAT     OW27043   3.860   5.822   5.663
 9015WAT    HW127044   3.890   5.790   5.748
 9015WAT    HW227045   3.913   5.900   5.647
 9016WAT     OW27046   3.495   2.895   5.306
 9016WAT    HW127047   3.523   2.868   5.219
 9016WAT    HW227048   3.518   2.987   5.312
 9017WAT     OW27049   2.318   4.969   0.412
 9017WAT    HW127050   2.380   4.935   0.478
 9017WAT    HW227051   2.367   4.965   0.330
 9018WAT     OW27052   2.950   1.067   4.490
 9018WAT    HW127053   2.982   1.007   4.558
 9018WAT    HW227054   2.939   1.012   4.413
 9019WAT     OW27055   1.059   1.282   3.859
 9019WAT    HW127056   1.046   1.233   3.778
 9019WAT    HW227057   1.009   1.362   3.847
 9020WAT     OW27058   4.549   3.279   4.932
 9020WAT    HW127059   4.456   3.292   4.912
 9020WAT    HW227060   4.589   3.364   4.915
 9021WAT     OW27061   6.660   1.437   3.508
 9021WAT    HW127062   6.724   1.366   3.510
 9021WAT    HW227063   6.593   1.407   3.446
 9022WAT     OW27064   2.448   3.654   6.558
 9022WAT    HW127065   2.494   3.708   6.623
 9022WAT    HW227066   2.517   3.606   6.514
 9023WAT     OW27067   2.063   2.347   3.996
 9023WAT    HW127068   2.054   2.252   3.990
 9023WAT    HW227069   1.987   2.375   4.048
 9024WAT     OW27070   0.281   0.381   4.765
 9024WAT    HW127071   0.219   0.348   4.829
 9024WAT    HW227072   0.323   0.303   4.729
 9025WAT     OW27073   0.882   5.994   1.598
 9025WAT    HW127074   0.838   6.007   1.514
 9025WAT    HW227075   0.973   6.021   1.582
 9026WAT     OW27076   1.435   2.168   6.361
 9026WAT    HW127077   1.472   2.089   6.399
 9026WAT    HW227078   1.467   2.239   6.417
 9027WAT     OW27079   2.843   5.208   0.407
 9027WAT    HW127080   2.875   5.128   0.366
 9027WAT    HW227081   2.872   5.202   0.498
 9028WAT     OW27082   5.708   4.766   3.258
 9028WAT    HW127083   5.660   4.687   3.283
 9028WAT    HW227084   5.656   4.838   3.294
 9029WAT     OW27085   3.220   2.567   4.058
 9029WAT    HW127086   3.199   2.660   4.067
 9029WAT    HW227087   3.290   2.551   4.121
 9030WAT     OW27088   4.958   0.687   2.913
 9030WAT    HW127089   5.034   0.702   2.970
 9030WAT    HW227090   4.888   0.663   2.973
 9031WAT     OW27091   0.527   1.399   1.580
 9031WAT    HW127092   0.506   1.464   1.512
 9031WAT    HW227093   0.622   1.388   1.573
 9032WAT     OW27094   3.492   3.333   3.094
 9032WAT    HW127095   3.574   3.377   3.118
 9032WAT    HW227096   3.428   3.404   3.090
 9033WAT     OW27097   3.801   6.148   1.892
 9033WAT    HW127098   3.888   6.162   1.929
 9033WAT    HW227099   3.758   6.233   1.900
 9034WAT     OW27100   3.255   6.268   3.315
 9034WAT    HW127101   3.249   6.356   3.352
 9034WAT    HW227102   3.301   6.216   3.381
 9035WAT     OW27103   3.658   1.656   6.448
 9035WAT    HW127104   3.575   1.622   6.480
 9035WAT    HW227105   3.724   1.618   6.506
 9036WAT     OW27106   4.837   6.644   1.953
 9036WAT    HW127107   4.792   6.679   2.030
 9036WAT    HW227108   4.766   6.606   1.900
 9037WAT     OW27109   0.067   6.284   4.475
 9037WAT    HW127110   0.120   6.319   4.547
 9037WAT    HW227111   0.034   6.361   4.429
 9038WAT     OW27112   6.500   5.595   4.254
 9038WAT    HW127113   6.412   5.598   4.217
 9038WAT    HW227114   6.538   5.515   4.219
 9039WAT     OW27115   1.920   6.493   5.223
 9039WAT    HW127116   1.844   6.452   5.265
 9039WAT    HW227117   1.920   6.457   5.135
 9040WAT     OW27118   6.494   1.854   1.846
 9040WAT    HW127119   6.523   1.939   1.811
 9040WAT    HW227120   6.568   1.824   1.898
 9041WAT     OW27121   3.603   0.769   2.685
 9041WAT    HW127122   3.516   0.734   2.665
 9041WAT    HW227123   3.588   0.862   2.703
 9042WAT     OW27124   1.828   4.951   1.338
 9042WAT    HW127125   1.810   5.044   1.345
 9042WAT    HW227126   1.749   4.908   1.370
 9043WAT     OW27127   5.339   0.326   0.658
 9043WAT    HW127128   5.377   0.246   0.694
 9043WAT    HW227129   5.274   0.296   0.595
 9044WAT     OW27130   1.864   2.462   0.857
 9044WAT    HW127131   1.835   2.497   0.773
 9044WAT    HW227132   1.854   2.535   0.918
 9045WAT     OW27133   6.425   4.523   5.764
 9045WAT    HW127134   6.504   4.510   5.818
 9045WAT    HW227135   6.417   4.443   5.713
 9046WAT     OW27136   6.136   5.364   6.683
 9046WAT    HW127137   6.088   5.433   6.730
 9046WAT    HW227138   6.155   5.403   6.597
 9047WAT     OW27139   4.935   4.912   6.277
 9047WAT    HW127140   4.914   4.891   6.368
 9047WAT    HW227141   4.886   4.847   6.226
 9048WAT     OW27142   4.724   3.920   4.985
 9048WAT    HW127143   4.723   3.987   5.053
 9048WAT    HW227144   4.809   3.931   4.942
 9049WAT     OW27145   5.502   2.818   3.805
 9049WAT    HW127146   5.536   2.888   3.749
 9049WAT    HW227147   5.433   2.860   3.856
 9050WAT     OW27148   5.948   0.835   1.796
 9050WAT    HW127149   5.946   0.784   1.877
 9050WAT    HW227150   6.038   0.827   1.765
 9051WAT     OW27151   0.012   0.739   5.774
 9051WAT    HW127152  -0.017   0.652   5.747
 9051WAT    HW227153   0.104   0.727   5.797
 9052WAT     OW27154   5.620   3.234   3.328
 9052WAT    HW127155   5.678   3.201   3.260
 9052WAT    HW227156   5.562   3.160   3.349
 9053WAT     OW27157   4.582   5.098   4.549
 9053WAT    HW127158   4.523   5.174   4.540
 9053WAT    HW227159   4.560   5.042   4.475
 9054WAT     OW27160   1.127   1.327   4.396
 9054WAT    HW127161   1.100   1.332   4.304
 9054WAT    HW227162   1.212   1.283   4.393
 9055WAT     OW27163   4.262   6.306   3.136
 9055WAT    HW127164   4.175   6.322   3.102
 9055WAT    HW227165   4.260   6.215   3.166
 9056WAT     OW27166   1.274   6.193   6.311
 9056WAT    HW127167   1.257   6.194   6.405
 9056WAT    HW227168   1.275   6.100   6.288
 9057WAT     OW27169   6.336   2.931   4.909
 9057WAT    HW127170   6.412   2.882   4.877
 9057WAT    HW227171   6.352   3.021   4.882
 9058WAT     OW27172   4.110   6.124   4.755
 9058WAT    HW127173   4.154   6.170   4.683
 9058WAT    HW227174   4.123   6.180   4.831
 9059WAT     OW27175   4.465   2.853   3.548
 9059WAT    HW127176   4.485   2.777   3.494
 9059WAT    HW227177   4.461   2.819   3.638
 9060WAT     OW27178   0.641   1.970   1.759
 9060WAT    HW127179   0.591   2.050   1.773
 9060WAT    HW227180   0.677   1.949   1.845
 9061WAT     OW27181   4.522   1.694   1.007
 9061WAT    HW127182   4.462   1.643   0.952
 9061WAT    HW227183   4.473   1.709   1.088
 9062WAT     OW27184   1.136   6.584   5.294
 9062WAT    HW127185   1.108   6.534   5.217
 9062WAT    HW227186   1.208   6.534   5.331
 9063WAT     OW27187   2.468   3.609   3.179
 9063WAT    HW127188   2.477   3.552   3.103
 9063WAT    HW227189   2.552   3.600   3.225
 9064WAT     OW27190   1.208   2.666   3.781
 9064WAT    HW127191   1.139   2.606   3.810
 9064WAT    HW227192   1.266   2.611   3.728
 9065WAT     OW27193   2.137   3.231   2.390
 9065WAT    HW127194   2.116   3.226   2.296
 9065WAT    HW227195   2.056   3.205   2.433
 9066WAT     OW27196   3.768   4.033   0.107
 9066WAT    HW127197   3.698   3.984   0.064
 9066WAT    HW227198   3.770   4.118   0.062
 9067WAT     OW27199   2.047   2.799   0.251
 9067WAT    HW127200   2.114   2.857   0.287
 9067WAT    HW227201   2.096   2.729   0.207
 9068WAT     OW27202   6.263   0.244   2.183
 9068WAT    HW127203   6.277   0.303   2.257
 9068WAT    HW227204   6.286   0.157   2.216
 9069WAT     OW27205   5.295   6.194   0.965
 9069WAT    HW127206   5.358   6.139   1.012
 9069WAT    HW227207   5.331   6.282   0.970
 9070WAT     OW27208   6.324   1.573   3.958
 9070WAT    HW127209   6.254   1.510   3.941
 9070WAT    HW227210   6.387   1.560   3.887
 9071WAT     OW27211   1.836   6.313   0.653
 9071WAT    HW127212   1.769   6.248   0.675
 9071WAT    HW227213   1.888   6.322   0.733
 9072WAT     OW27214   6.391   1.380   5.746
 9072WAT    HW127215   6.407   1.328   5.667
 9072WAT    HW227216   6.398   1.318   5.818
 9073WAT     OW27217   6.315   5.288   3.191
 9073WAT    HW127218   6.367   5.209   3.177
 9073WAT    HW227219   6.372   5.346   3.240
 9074WAT     OW27220   3.401   1.532   4.781
 9074WAT    HW127221   3.486   1.545   4.739
 9074WAT    HW227222   3.422   1.502   4.870
 9075WAT     OW27223   6.262   6.341   2.503
 9075WAT    HW127224   6.313   6.303   2.576
 9075WAT    HW227225   6.172   6.339   2.534
 9076WAT     OW27226   4.584   1.789   1.847
 9076WAT    HW127227   4.545   1.756   1.766
 9076WAT    HW227228   4.656   1.728   1.865
 9077WAT     OW27229   0.019   5.312   3.928
 9077WAT    HW127230  -0.043   5.342   3.862
 9077WAT    HW227231   0.095   5.369   3.917
 9078WAT     OW27232   0.382   2.832   2.421
 9078WAT    HW127233   0.406   2.798   2.334
 9078WAT    HW227234   0.465   2.859   2.460
 9079WAT     OW27235   0.311   3.961   3.429
 9079WAT    HW127236   0.237   3.907   3.404
 9079WAT    HW227237   0.289   4.049   3.397
 9080WAT     OW27238   1.600   3.242   3.630
 9080WAT    HW127239   1.658   3.316   3.646
 9080WAT    HW227240   1.513   3.274   3.653
 9081WAT     OW27241   3.368   4.350   0.569
 9081WAT    HW127242   3.283   4.320   0.599
 9081WAT    HW227243   3.431   4.308   0.628
 9082WAT     OW27244   3.454   1.698   5.774
 9082WAT    HW127245   3.452   1.750   5.854
 9082WAT    HW227246   3.530   1.730   5.726
 9083WAT     OW27247   3.381   2.703   3.004
 9083WAT    HW127248   3.409   2.785   2.962
 9083WAT    HW227249   3.426   2.635   2.955
 9084WAT     OW27250   0.385   6.116   3.171
 9084WAT    HW127251   0.472   6.123   3.211
 9084WAT    HW227252   0.400   6.135   3.078
 9085WAT     OW27253   6.715   3.300   6.082
 9085WAT    HW127254   6.663   3.380   6.092
 9085WAT    HW227255   6.687   3.265   5.997
 9086WAT     OW27256   3.999   1.585   0.509
 9086WAT    HW127257   4.081   1.631   0.492
 9086WAT    HW227258   3.971   1.553   0.423
 9087WAT     OW27259   4.959   5.736   2.070
 9087WAT    HW127260   4.911   5.790   2.008
 9087WAT    HW227261   4.892   5.699   2.127
 9088WAT     OW27262   4.999   2.756   0.670
 9088WAT    HW127263   5.042   2.794   0.593
 9088WAT    HW227264   4.973   2.669   0.642
 9089WAT     OW27265   3.946   0.298   1.444
 9089WAT    HW127266   3.885   0.367   1.467
 9089WAT    HW227267   3.983   0.325   1.360
 9090WAT     OW27268   2.881   2.807   5.259
 9090WAT    HW127269   2.830   2.729   5.281
 9090WAT    HW227270   2.815   2.875   5.244
 9091WAT     OW27271   4.421   4.410   5.241
 9091WAT    HW127272   4.424   4.433   5.148
 9091WAT    HW227273   4.369   4.480   5.280
 9092WAT     OW27274   1.991   0.926   5.868
 9092WAT    HW127275   2.061   0.991   5.873
 9092WAT    HW227276   1.913   0.977   5.843
 9093WAT     OW27277   1.027   2.331   2.518
 9093WAT    HW127278   0.932   2.338   2.532
 9093WAT    HW227279   1.060   2.418   2.539
 9094WAT     OW27280   1.699   6.376   5.349
 9094WAT    HW127281   1.662   6.430   5.419
 9094WAT    HW227282   1.718   6.292   5.390
 9095WAT     OW27283   6.048   2.928   1.374
 9095WAT    HW127284   6.113   2.946   1.441
 9095WAT    HW227285   6.029   2.834   1.384
 9096WAT     OW27286   0.494   5.906   2.773
 9096WAT    HW127287   0.579   5.936   2.742
 9096WAT    HW227288   0.462   5.849   2.704
 9097WAT     OW27289   2.900   4.175   0.962
 9097WAT    HW127290   2.826   4.149   1.016
 9097WAT    HW227291   2.972   4.119   0.991
 9098WAT     OW27292   6.072   2.484   0.511
 9098WAT    HW127293   6.122   2.516   0.436
 9098WAT    HW227294   6.026   2.407   0.478
 9099WAT     OW27295   5.825   6.393   5.318
 9099WAT    HW127296   5.731   6.406   5.322
 9099WAT    HW227297   5.847   6.348   5.400
 9100WAT     OW27298   6.512   4.207   3.859
 9100WAT    HW127299   6.461   4.129   3.839
 9100WAT    HW227300   6.536   4.242   3.773
 9101WAT     OW27301   3.521   4.220   3.731
 9101WAT    HW127302   3.608   4.183   3.747
 9101WAT    HW227303   3.522   4.245   3.638
 9102WAT     OW27304   0.444   6.013   1.011
 9102WAT    HW127305   0.482   6.057   1.087
 9102WAT    HW227306   0.461   5.920   1.026
 9103WAT     OW27307   5.727   2.882   0.681
 9103WAT    HW127308   5.804   2.879   0.739
 9103WAT    HW227309   5.714   2.792   0.653
 9104WAT     OW27310   3.240   2.131   2.823
 9104WAT    HW127311   3.235   2.036   2.816
 9104WAT    HW227312   3.333   2.152   2.814
 9105WAT     OW27313   5.693   4.520   2.302
 9105WAT    HW127314   5.716   4.610   2.279
 9105WAT    HW227315   5.657   4.526   2.391
 9106WAT     OW27316   0.797   6.014   0.069
 9106WAT    HW127317   0.711   5.972   0.075
 9106WAT    HW227318   0.778   6.103   0.042
 9107WAT     OW27319   6.152   6.174   6.367
 9107WAT    HW127320   6.057   6.170   6.350
 9107WAT    HW227321   6.169   6.099   6.424
 9108WAT     OW27322   5.407   3.780   3.918
 9108WAT    HW127323   5.354   3.812   3.991
 9108WAT    HW227324   5.355   3.708   3.881
 9109WAT     OW27325   0.989   4.503   0.907
 9109WAT    HW127326   0.994   4.597   0.924
 9109WAT    HW227327   0.974   4.464   0.993
 9110WAT     OW27328   0.600   2.849   0.008
 9110WAT    HW127329   0.524   2.794  -0.012
 9110WAT    HW227330   0.675   2.792  -0.010
 9111WAT     OW27331   3.105   2.078   5.128
 9111WAT    HW127332   3.150   1.998   5.155
 9111WAT    HW227333   3.085   2.064   5.035
 9112WAT     OW27334   6.018   6.591   5.360
 9112WAT    HW127335   5.935   6.545   5.352
 9112WAT    HW227336   6.084   6.526   5.333
 9113WAT     OW27337   5.822   3.012   4.525
 9113WAT    HW127338   5.795   2.920   4.518
 9113WAT    HW227339   5.917   3.010   4.510
 9114WAT     OW27340   6.527   5.432   3.305
 9114WAT    HW127341   6.547   5.465   3.392
 9114WAT    HW227342   6.607   5.389   3.276
 9115WAT     OW27343   0.657   2.627   0.800
 9115WAT    HW127344   0.736   2.628   0.853
 9115WAT    HW227345   0.626   2.537   0.804
 9116WAT     OW27346   5.351   3.734   2.320
 9116WAT    HW127347   5.438   3.701   2.297
 9116WAT    HW227348   5.290   3.667   2.288
 9117WAT     OW27349   1.845   1.390   2.433
 9117WAT    HW127350   1.928   1.344   2.421
 9117WAT    HW227351   1.785   1.346   2.373
 9118WAT     OW27352   5.958   3.524   2.195
 9118WAT    HW127353   6.005   3.543   2.277
 9118WAT    HW227354   5.900   3.599   2.184
 9119WAT     OW27355   1.481   5.184   1.885
 9119WAT    HW127356   1.422   5.171   1.811
 9119WAT    HW227357   1.449   5.124   1.952
 9120WAT     OW27358   2.178   0.906   1.498
 9120WAT    HW127359   2.183   0.891   1.403
 9120WAT    HW227360   2.136   0.828   1.533
 9121WAT     OW27361   4.009   4.707   2.796
 9121WAT    HW127362   4.039   4.789   2.757
 9121WAT    HW227363   3.918   4.699   2.768
 9122WAT     OW27364   3.985   3.654   6.175
 9122WAT    HW127365   4.038   3.678   6.099
 9122WAT    HW227366   4.043   3.667   6.250
 9123WAT     OW27367   3.978   1.900   4.189
 9123WAT    HW127368   3.935   1.905   4.104
 9123WAT    HW227369   3.914   1.858   4.246
 9124WAT     OW27370   0.670   5.654   6.601
 9124WAT    HW127371   0.628   5.641   6.686
 9124WAT    HW227372   0.625   5.729   6.563
 9125WAT     OW27373   4.642   0.948   1.625
 9125WAT    HW127374   4.675   1.030   1.587
 9125WAT    HW227375   4.547   0.955   1.617
 9126WAT     OW27376   4.621   3.549   4.900
 9126WAT    HW127377   4.631   3.585   4.988
 9126WAT    HW227378   4.553   3.603   4.860
 9127WAT     OW27379   2.736   6.378   4.953
 9127WAT    HW127380   2.644   6.350   4.949
 9127WAT    HW227381   2.784   6.307   4.910
 9128WAT     OW27382   5.235   2.492   4.575
 9128WAT    HW127383   5.176   2.418   4.587
 9128WAT    HW227384   5.322   2.455   4.588
 9129WAT     OW27385   3.306   0.083   1.142
 9129WAT    HW127386   3.239   0.151   1.150
 9129WAT    HW227387   3.385   0.123   1.178
 9130WAT     OW27388   4.161   0.894   3.945
 9130WAT    HW127389   4.192   0.952   3.875
 9130WAT    HW227390   4.082   0.853   3.909
 9131WAT     OW27391   0.341   2.715   5.025
 9131WAT    HW127392   0.309   2.801   4.998
 9131WAT    HW227393   0.267   2.656   5.007
 9132WAT     OW27394   5.526   6.297   6.417
 9132WAT    HW127395   5.510   6.237   6.344
 9132WAT    HW227396   5.439   6.316   6.452
 9133WAT     OW27397   3.814   2.885   2.366
 9133WAT    HW127398   3.738   2.835   2.396
 9133WAT    HW227399   3.885   2.860   2.425
 9134WAT     OW27400   1.640   0.256   6.219
 9134WAT    HW127401   1.673   0.174   6.183
 9134WAT    HW227402   1.670   0.256   6.310
 9135WAT     OW27403   5.099   2.531   2.652
 9135WAT    HW127404   5.108   2.449   2.701
 9135WAT    HW227405   5.055   2.590   2.713
 9136WAT     OW27406   1.159   5.782   5.930
 9136WAT    HW127407   1.127   5.742   6.011
 9136WAT    HW227408   1.139   5.875   5.939
 9137WAT     OW27409   5.225   5.403   2.606
 9137WAT    HW127410   5.191   5.477   2.556
 9137WAT    HW227411   5.211   5.327   2.549
 9138WAT     OW27412   3.815   5.421   4.462
 9138WAT    HW127413   3.752   5.352   4.445
 9138WAT    HW227414   3.768   5.502   4.443
 9139WAT     OW27415   0.912   0.396   2.888
 9139WAT    HW127416   0.984   0.436   2.839
 9139WAT    HW227417   0.955   0.350   2.961
 9140WAT     OW27418   4.996   4.382   4.799
 9140WAT    HW127419   4.960   4.347   4.718
 9140WAT    HW227420   5.083   4.342   4.806
 9141WAT     OW27421   4.553   0.131   4.866
 9141WAT    HW127422   4.541   0.206   4.924
 9141WAT    HW227423   4.467   0.089   4.863
 9142WAT     OW27424   0.083   2.885   4.528
 9142WAT    HW127425  -0.008   2.855   4.537
 9142WAT    HW227426   0.100   2.880   4.434
 9143WAT     OW27427   4.936   2.837   5.968
 9143WAT    HW127428   4.994   2.780   6.019
 9143WAT    HW227429   4.992   2.874   5.901
 9144WAT     OW27430   4.535   3.598   6.077
 9144WAT    HW127431   4.625   3.598   6.043
 9144WAT    HW227432   4.536   3.663   6.147
 9145WAT     OW27433   3.593   0.276   3.421
 9145WAT    HW127434   3.661   0.343   3.420
 9145WAT    HW227435   3.625   0.211   3.483
 9146WAT     OW27436   6.583   2.598   1.120
 9146WAT    HW127437   6.642   2.672   1.135
 9146WAT    HW227438   6.512   2.610   1.183
 9147WAT     OW27439   3.082   3.435   3.864
 9147WAT    HW127440   3.109   3.357   3.914
 9147WAT    HW227441   3.161   3.489   3.860
 9148WAT     OW27442   1.413   5.069   0.420
 9148WAT    HW127443   1.495   5.118   0.424
 9148WAT    HW227444   1.400   5.037   0.509
 9149WAT     OW27445   0.131   5.361   5.895
 9149WAT    HW127446   0.192   5.301   5.852
 9149WAT    HW227447   0.068   5.383   5.826
 9150WAT     OW27448   1.450   4.554   0.084
 9150WAT    HW127449   1.530   4.501   0.090
 9150WAT    HW227450   1.478   4.634   0.039
 9151WAT     OW27451   5.625   6.340   4.460
 9151WAT    HW127452   5.545   6.345   4.512
 9151WAT    HW227453   5.695   6.347   4.525
 9152WAT     OW27454   3.815   6.132   6.138
 9152WAT    HW127455   3.833   6.093   6.052
 9152WAT    HW227456   3.720   6.137   6.142
 9153WAT     OW27457   0.548   5.266   6.542
 9153WAT    HW127458   0.552   5.296   6.633
 9153WAT    HW227459   0.456   5.276   6.518
 9154WAT     OW27460   3.902   4.898   5.098
 9154WAT    HW127461   3.878   4.975   5.150
 9154WAT    HW227462   3.963   4.932   5.033
 9155WAT     OW27463   5.392   2.416   4.866
 9155WAT    HW127464   5.462   2.479   4.848
 9155WAT    HW227465   5.396   2.353   4.794
 9156WAT     OW27466   2.649   6.697   3.474
 9156WAT    HW127467   2.673   6.778   3.519
 9156WAT    HW227468   2.689   6.705   3.388
 9157WAT     OW27469   1.821   4.377   5.855
 9157WAT    HW127470   1.728   4.400   5.844
 9157WAT    HW227471   1.819   4.291   5.898
 9158WAT     OW27472   6.273   1.778   2.858
 9158WAT    HW127473   6.303   1.862   2.822
 9158WAT    HW227474   6.345   1.717   2.841
 9159WAT     OW27475   0.511   5.294   0.475
 9159WAT    HW127476   0.569   5.366   0.450
 9159WAT    HW227477   0.567   5.216   0.471
 9160WAT     OW27478   0.287   5.200   5.737
 9160WAT    HW127479   0.242   5.158   5.664
 9160WAT    HW227480   0.362   5.244   5.697
 9161WAT     OW27481   4.284   3.740   2.483
 9161WAT    HW127482   4.302   3.666   2.426
 9161WAT    HW227483   4.354   3.738   2.548
 9162WAT     OW27484   1.031   2.635   4.123
 9162WAT    HW127485   0.969   2.575   4.166
 9162WAT    HW227486   1.031   2.608   4.032
 9163WAT     OW27487   3.093   1.852   1.687
 9163WAT    HW127488   3.053   1.781   1.738
 9163WAT    HW227489   3.109   1.813   1.601
 9164WAT     OW27490   6.370   6.284   0.895
 9164WAT    HW127491   6.438   6.274   0.962
 9164WAT    HW227492   6.314   6.208   0.906
 9165WAT     OW27493   1.619   5.404   5.101
 9165WAT    HW127494   1.690   5.347   5.072
 9165WAT    HW227495   1.654   5.493   5.092
 9166WAT     OW27496   2.842   0.446   3.206
 9166WAT    HW127497   2.754   0.471   3.236
 9166WAT    HW227498   2.825   0.381   3.138
 9167WAT     OW27499   0.604   4.067   5.461
 9167WAT    HW127500   0.680   4.024   5.500
 9167WAT    HW227501   0.609   4.157   5.493
 9168WAT     OW27502   0.557   3.056   0.189
 9168WAT    HW127503   0.582   2.986   0.128
 9168WAT    HW227504   0.637   3.108   0.199
 9169WAT     OW27505   3.812   0.727   6.709
 9169WAT    HW127506   3.800   0.802   6.768
 9169WAT    HW227507   3.730   0.722   6.659
 9170WAT     OW27508   0.861   3.022   2.866
 9170WAT    HW127509   0.783   3.040   2.919
 9170WAT    HW227510   0.861   2.926   2.856
 9171WAT     OW27511   2.350   1.681   4.090
 9171WAT    HW127512   2.394   1.763   4.113
 9171WAT    HW227513   2.339   1.636   4.173
 9172WAT     OW27514   6.139   5.850   0.820
 9172WAT    HW127515   6.063   5.877   0.769
 9172WAT    HW227516   6.156   5.759   0.793
 9173WAT     OW27517   0.647   5.206   1.589
 9173WAT    HW127518   0.663   5.297   1.612
 9173WAT    HW227519   0.666   5.156   1.668
 9174WAT     OW27520   0.560   3.333   1.299
 9174WAT    HW127521   0.646   3.321   1.259
 9174WAT    HW227522   0.505   3.266   1.257
 9175WAT     OW27523   6.537   5.367   3.740
 9175WAT    HW127524   6.559   5.428   3.669
 9175WAT    HW227525   6.444   5.382   3.756
 9176WAT     OW27526   1.475   1.506   6.441
 9176WAT    HW127527   1.414   1.450   6.393
 9176WAT    HW227528   1.476   1.470   6.530
 9177WAT     OW27529   4.187   1.651   2.334
 9177WAT    HW127530   4.092   1.658   2.332
 9177WAT    HW227531   4.219   1.741   2.321
 9178WAT     OW27532   4.270   4.498   4.667
 9178WAT    HW127533   4.256   4.422   4.724
 9178WAT    HW227534   4.363   4.492   4.642
 9179WAT     OW27535   5.707   1.236   6.390
 9179WAT    HW127536   5.616   1.234   6.360
 9179WAT    HW227537   5.701   1.228   6.485
 9180WAT     OW27538   0.186   5.042   6.547
 9180WAT    HW127539   0.155   5.063   6.635
 9180WAT    HW227540   0.233   5.120   6.518
 9181WAT     OW27541   0.812   3.740   0.706
 9181WAT    HW127542   0.772   3.826   0.697
 9181WAT    HW227543   0.781   3.707   0.790
 9182WAT     OW27544   1.332   6.358   2.292
 9182WAT    HW127545   1.416   6.324   2.324
 9182WAT    HW227546   1.298   6.411   2.364
 9183WAT     OW27547   1.766   4.853   0.325
 9183WAT    HW127548   1.805   4.767   0.341
 9183WAT    HW227549   1.792   4.905   0.401
 9184WAT     OW27550   3.920   2.170   5.139
 9184WAT    HW127551   3.894   2.257   5.109
 9184WAT    HW227552   3.945   2.182   5.230
 9185WAT     OW27553   0.732   0.303   1.975
 9185WAT    HW127554   0.812   0.253   1.989
 9185WAT    HW227555   0.725   0.359   2.052
 9186WAT     OW27556   1.505   5.281   3.095
 9186WAT    HW127557   1.536   5.286   3.005
 9186WAT    HW227558   1.582   5.297   3.148
 9187WAT     OW27559   2.656   2.342   4.834
 9187WAT    HW127560   2.727   2.396   4.868
 9187WAT    HW227561   2.699   2.264   4.800
 9188WAT     OW27562   1.992   4.458   3.625
 9188WAT    HW127563   2.067   4.398   3.619
 9188WAT    HW227564   1.919   4.407   3.590
 9189WAT     OW27565   6.539   1.980   3.810
 9189WAT    HW127566   6.558   1.924   3.886
 9189WAT    HW227567   6.458   2.025   3.833
 9190WAT     OW27568   2.437   5.007   5.865
 9190WAT    HW127569   2.385   4.935   5.829
 9190WAT    HW227570   2.373   5.075   5.884
 9191WAT     OW27571   2.684   1.053   3.904
 9191WAT    HW127572   2.723   1.042   3.991
 9191WAT    HW227573   2.646   0.967   3.884
 9192WAT     OW27574   5.090   4.779   1.686
 9192WAT    HW127575   5.053   4.691   1.689
 9192WAT    HW227576   5.158   4.779   1.753
 9193WAT     OW27577   0.948   1.864   3.622
 9193WAT    HW127578   0.892   1.836   3.695
 9193WAT    HW227579   1.024   1.806   3.627
 9194WAT     OW27580   1.910   0.146   2.357
 9194WAT    HW127581   1.964   0.169   2.281
 9194WAT    HW227582   1.821   0.169   2.330
 9195WAT     OW27583   6.706   3.183   2.969
 9195WAT    HW127584   6.639   3.115   2.957
 9195WAT    HW227585   6.788   3.140   2.948
 9196WAT     OW27586   0.605   4.760   6.344
 9196WAT    HW127587   0.527   4.712   6.373
 9196WAT    HW227588   0.593   4.848   6.379
 9197WAT     OW27589   4.417   3.097   3.676
 9197WAT    HW127590   4.331   3.066   3.706
 9197WAT    HW227591   4.456   3.022   3.631
 9198WAT     OW27592   3.937   4.544   3.528
 9198WAT    HW127593   3.946   4.516   3.620
 9198WAT    HW227594   4.014   4.508   3.485
 9199WAT     OW27595   5.518   4.320   2.928
 9199WAT    HW127596   5.430   4.359   2.922
 9199WAT    HW227597   5.507   4.244   2.986
 9200WAT     OW27598   6.237   0.728   1.505
 9200WAT    HW127599   6.233   0.809   1.454
 9200WAT    HW227600   6.236   0.758   1.596
 9201WAT     OW27601   4.578   3.555   1.856
 9201WAT    HW127602   4.519   3.502   1.911
 9201WAT    HW227603   4.528   3.571   1.776
 9202WAT     OW27604   6.280   2.727   2.073
 9202WAT    HW127605   6.212   2.670   2.038
 9202WAT    HW227606   6.360   2.699   2.030
 9203WAT     OW27607   2.249   0.994   2.255
 9203WAT    HW127608   2.296   1.059   2.308
 9203WAT    HW227609   2.204   1.045   2.188
 9204WAT     OW27610   0.283   2.930   0.112
 9204WAT    HW127611   0.362   2.979   0.133
 9204WAT    HW227612   0.313   2.858   0.056
 9205WAT     OW27613   2.814   0.814   5.753
 9205WAT    HW127614   2.778   0.776   5.834
 9205WAT    HW227615   2.808   0.743   5.689
 9206WAT     OW27616   0.473   0.587   2.459
 9206WAT    HW127617   0.436   0.502   2.484
 9206WAT    HW227618   0.458   0.593   2.364
 9207WAT     OW27619   4.932   4.767   5.894
 9207WAT    HW127620   4.894   4.768   5.982
 9207WAT    HW227621   5.007   4.707   5.902
 9208WAT     OW27622   3.731   5.876   1.483
 9208WAT    HW127623   3.760   5.898   1.571
 9208WAT    HW227624   3.647   5.920   1.474
 9209WAT     OW27625   4.132   5.713   4.359
 9209WAT    HW127626   4.057   5.750   4.312
 9209WAT    HW227627   4.098   5.632   4.397
 9210WAT     OW27628   0.650   3.509   4.828
 9210WAT    HW127629   0.742   3.530   4.814
 9210WAT    HW227630   0.642   3.417   4.804
 9211WAT     OW27631   4.716   2.981   3.268
 9211WAT    HW127632   4.620   2.982   3.274
 9211WAT    HW227633   4.735   3.030   3.188
 9212WAT     OW27634   2.282   3.347   0.377
 9212WAT    HW127635   2.316   3.316   0.462
 9212WAT    HW227636   2.355   3.334   0.317
 9213WAT     OW27637   4.468   4.805   1.476
 9213WAT    HW127638   4.438   4.721   1.511
 9213WAT    HW227639   4.499   4.785   1.388
 9214WAT     OW27640   1.858   3.610   3.882
 9214WAT    HW127641   1.943   3.618   3.840
 9214WAT    HW227642   1.877   3.582   3.971
 9215WAT     OW27643   5.661   1.385   0.703
 9215WAT    HW127644   5.734   1.346   0.655
 9215WAT    HW227645   5.693   1.395   0.792
 9216WAT     OW27646   5.795   5.999   3.659
 9216WAT    HW127647   5.773   5.994   3.751
 9216WAT    HW227648   5.758   6.083   3.630
 9217WAT     OW27649   1.059   1.793   2.416
 9217WAT    HW127650   1.141   1.811   2.370
 9217WAT    HW227651   1.049   1.698   2.410
 9218WAT     OW27652   1.813   3.472   1.301
 9218WAT    HW127653   1.802   3.523   1.221
 9218WAT    HW227654   1.733   3.490   1.351
 9219WAT     OW27655   1.950   3.115   4.946
 9219WAT    HW127656   1.882   3.065   4.901
 9219WAT    HW227657   1.949   3.201   4.902
 9220WAT     OW27658   6.513   5.229   6.548
 9220WAT    HW127659   6.472   5.251   6.464
 9220WAT    HW227660   6.601   5.267   6.542
 9221WAT     OW27661   4.051   3.898   5.104
 9221WAT    HW127662   4.119   3.832   5.117
 9221WAT    HW227663   3.995   3.889   5.181
 9222WAT     OW27664   4.229   3.142   6.397
 9222WAT    HW127665   4.249   3.225   6.355
 9222WAT    HW227666   4.313   3.109   6.428
 9223WAT     OW27667   5.241   0.498   5.789
 9223WAT    HW127668   5.331   0.466   5.798
 9223WAT    HW227669   5.227   0.505   5.694
 9224WAT     OW27670   0.283   1.686   0.962
 9224WAT    HW127671   0.246   1.598   0.956
 9224WAT    HW227672   0.347   1.681   1.033
 9225WAT     OW27673   1.460   5.098   2.322
 9225WAT    HW127674   1.439   5.085   2.230
 9225WAT    HW227675   1.396   5.044   2.369
 9226WAT     OW27676   4.275   3.839   1.463
 9226WAT    HW127677   4.320   3.918   1.493
 9226WAT    HW227678   4.345   3.778   1.440
 9227WAT     OW27679   0.510   1.730   4.641
 9227WAT    HW127680   0.545   1.756   4.556
 9227WAT    HW227681   0.587   1.702   4.691
 9228WAT     OW27682   6.301   3.310   4.093
 9228WAT    HW127683   6.324   3.223   4.127
 9228WAT    HW227684   6.248   3.350   4.162
 9229WAT     OW27685   5.223   4.419   1.509
 9229WAT    HW127686   5.175   4.337   1.497
 9229WAT    HW227687   5.204   4.469   1.429
 9230WAT     OW27688   2.480   5.705   6.135
 9230WAT    HW127689   2.483   5.785   6.188
 9230WAT    HW227690   2.509   5.636   6.195
 9231WAT     OW27691   3.855   2.010   6.186
 9231WAT    HW127692   3.871   2.104   6.172
 9231WAT    HW227693   3.802   2.006   6.266
 9232WAT     OW27694   0.025   3.004   0.151
 9232WAT    HW127695   0.114   2.974   0.132
 9232WAT    HW227696   0.037   3.088   0.196
 9233WAT     OW27697   4.954   1.929   2.457
 9233WAT    HW127698   4.894   1.991   2.416
 9233WAT    HW227699   4.979   1.870   2.386
 9234WAT     OW27700   1.175   4.838   3.677
 9234WAT    HW127701   1.235   4.791   3.735
 9234WAT    HW227702   1.161   4.922   3.722
 9235WAT     OW27703   0.780   1.361   0.043
 9235WAT    HW127704   0.841   1.408  -0.014
 9235WAT    HW227705   0.836   1.306   0.098
 9236WAT     OW27706   3.345   3.784   1.415
 9236WAT    HW127707   3.295   3.855   1.455
 9236WAT    HW227708   3.431   3.787   1.458
 9237WAT     OW27709   4.385   1.178   4.502
 9237WAT    HW127710   4.376   1.113   4.572
 9237WAT    HW227711   4.365   1.129   4.422
 9238WAT     OW27712   2.956   1.572   5.856
 9238WAT    HW127713   2.911   1.517   5.791
 9238WAT    HW227714   3.044   1.585   5.819
 9239WAT     OW27715   3.081   5.080   1.031
 9239WAT    HW127716   3.135   5.050   1.104
 9239WAT    HW227717   3.063   5.172   1.051
 9240WAT     OW27718   0.428   4.736   1.294
 9240WAT    HW127719   0.375   4.780   1.361
 9240WAT    HW227720   0.364   4.687   1.242
 9241WAT     OW27721   3.329   3.922   3.539
 9241WAT    HW127722   3.275   3.961   3.470
 9241WAT    HW227723   3.416   3.914   3.499
 9242WAT     OW27724   2.145   5.978   2.135
 9242WAT    HW127725   2.140   6.072   2.154
 9242WAT    HW227726   2.142   5.937   2.222
 9243WAT     OW27727   2.129   2.350   2.413
 9243WAT    HW127728   2.133   2.438   2.375
 9243WAT    HW227729   2.221   2.324   2.423
 9244WAT     OW27730   4.501   0.491   0.311
 9244WAT    HW127731   4.473   0.455   0.227
 9244WAT    HW227732   4.506   0.585   0.297
 9245WAT     OW27733   0.470   2.362   6.273
 9245WAT    HW127734   0.440   2.327   6.356
 9245WAT    HW227735   0.464   2.288   6.212
 9246WAT     OW27736   1.365   5.013   2.069
 9246WAT    HW127737   1.395   4.935   2.115
 9246WAT    HW227738   1.298   4.981   2.009
 9247WAT     OW27739   5.390   1.223   4.973
 9247WAT    HW127740   5.440   1.246   4.894
 9247WAT    HW227741   5.395   1.127   4.978
 9248WAT     OW27742   0.843   4.879   6.023
 9248WAT    HW127743   0.865   4.947   5.959
 9248WAT    HW227744   0.759   4.845   5.994
 9249WAT     OW27745   2.139   4.102   0.792
 9249WAT    HW127746   2.199   4.047   0.843
 9249WAT    HW227747   2.145   4.068   0.703
 9250WAT     OW27748   5.195   5.542   5.332
 9250WAT    HW127749   5.176   5.588   5.251
 9250WAT    HW227750   5.289   5.554   5.345
 9251WAT     OW27751   2.670   0.440   5.955
 9251WAT    HW127752   2.579   0.415   5.941
 9251WAT    HW227753   2.716   0.411   5.876
 9252WAT     OW27754   3.699   5.461   2.890
 9252WAT    HW127755   3.638   5.448   2.962
 9252WAT    HW227756   3.752   5.381   2.888
 9253WAT     OW27757   2.429   3.519   4.060
 9253WAT    HW127758   2.476   3.590   4.016
 9253WAT    HW227759   2.390   3.560   4.137
 9254WAT     OW27760   1.978   4.475   3.190
 9254WAT    HW127761   1.918   4.405   3.215
 9254WAT    HW227762   1.929   4.556   3.209
 9255WAT     OW27763   2.395   0.010   2.891
 9255WAT    HW127764   2.422  -0.082   2.886
 9255WAT    HW227765   2.300   0.006   2.904
 9256WAT     OW27766   1.067   4.181   1.886
 9256WAT    HW127767   1.006   4.189   1.959
 9256WAT    HW227768   1.118   4.261   1.887
 9257WAT     OW27769   6.576   4.957   1.672
 9257WAT    HW127770   6.551   5.041   1.634
 9257WAT    HW227771   6.493   4.911   1.687
 9258WAT     OW27772   2.549   0.703   1.059
 9258WAT    HW127773   2.520   0.621   1.019
 9258WAT    HW227774   2.503   0.706   1.143
 9259WAT     OW27775   4.762   0.571   3.072
 9259WAT    HW127776   4.738   0.480   3.055
 9259WAT    HW227777   4.691   0.622   3.035
 9260WAT     OW27778   3.540   1.059   0.143
 9260WAT    HW127779   3.514   1.054   0.051
 9260WAT    HW227780   3.499   0.983   0.185
 9261WAT     OW27781   2.007   3.446   5.326
 9261WAT    HW127782   1.946   3.441   5.400
 9261WAT    HW227783   2.093   3.454   5.367
 9262WAT     OW27784   4.024   3.237   4.979
 9262WAT    HW127785   3.952   3.184   4.947
 9262WAT    HW227786   4.075   3.177   5.033
 9263WAT     OW27787   1.893   0.483   6.497
 9263WAT    HW127788   1.862   0.535   6.423
 9263WAT    HW227789   1.923   0.548   6.561
 9264WAT     OW27790   6.723   3.958   0.232
 9264WAT    HW127791   6.665   3.945   0.157
 9264WAT    HW227792   6.730   3.871   0.271
 9265WAT     OW27793   2.129   4.983   4.969
 9265WAT    HW127794   2.155   5.020   5.053
 9265WAT    HW227795   2.140   4.889   4.979
 9266WAT     OW27796   4.801   3.381   0.036
 9266WAT    HW127797   4.729   3.368  -0.026
 9266WAT    HW227798   4.803   3.476   0.051
 9267WAT     OW27799   5.572   0.844   0.207
 9267WAT    HW127800   5.555   0.751   0.192
 9267WAT    HW227801   5.508   0.889   0.152
 9268WAT     OW27802   1.028   6.625   2.324
 9268WAT    HW127803   0.978   6.569   2.264
 9268WAT    HW227804   0.961   6.669   2.377
 9269WAT     OW27805   4.665   6.533   2.986
 9269WAT    HW127806   4.640   6.440   2.979
 9269WAT    HW227807   4.760   6.533   2.970
 9270WAT     OW27808   0.221   2.501   0.054
 9270WAT    HW127809   0.221   2.414   0.013
 9270WAT    HW227810   0.134   2.510   0.091
 9271WAT     OW27811   2.362   1.835   6.182
 9271WAT    HW127812   2.448   1.794   6.179
 9271WAT    HW227813   2.317   1.804   6.104
 9272WAT     OW27814   4.678   5.577   1.162
 9272WAT    HW127815   4.658   5.500   1.108
 9272WAT    HW227816   4.637   5.650   1.116
 9273WAT     OW27817   5.312   1.398   0.950
 9273WAT    HW127818   5.388   1.450   0.975
 9273WAT    HW227819   5.344   1.339   0.882
 9274WAT     OW27820   0.150   6.684   4.037
 9274WAT    HW127821   0.057   6.704   4.049
 9274WAT    HW227822   0.161   6.598   4.078
 9275WAT     OW27823   2.626   2.926   4.088
 9275WAT    HW127824   2.600   2.872   4.013
 9275WAT    HW227825   2.547   2.973   4.112
 9276WAT     OW27826   3.895   3.250   5.936
 9276WAT    HW127827   3.954   3.176   5.922
 9276WAT    HW227828   3.940   3.304   6.002
 9277WAT     OW27829   3.981   5.749   5.900
 9277WAT    HW127830   4.045   5.798   5.953
 9277WAT    HW227831   3.946   5.684   5.960
 9278WAT     OW27832   4.654   6.061   0.925
 9278WAT    HW127833   4.703   5.981   0.940
 9278WAT    HW227834   4.587   6.037   0.861
 9279WAT     OW27835   2.765   4.681   6.302
 9279WAT    HW127836   2.816   4.745   6.253
 9279WAT    HW227837   2.723   4.627   6.235
 9280WAT     OW27838   1.293   3.100   1.625
 9280WAT    HW127839   1.372   3.073   1.671
 9280WAT    HW227840   1.232   3.027   1.637
 9281WAT     OW27841   0.783   1.970   2.672
 9281WAT    HW127842   0.692   1.977   2.703
 9281WAT    HW227843   0.775   1.964   2.577
 9282WAT     OW27844   0.178   4.959   2.657
 9282WAT    HW127845   0.206   4.972   2.747
 9282WAT    HW227846   0.257   4.932   2.611
 9283WAT     OW27847   5.039   3.450   2.855
 9283WAT    HW127848   5.088   3.384   2.807
 9283WAT    HW227849   4.980   3.488   2.790
 9284WAT     OW27850   2.361   5.232   0.509
 9284WAT    HW127851   2.332   5.151   0.467
 9284WAT    HW227852   2.440   5.256   0.461
 9285WAT     OW27853   6.563   4.078   5.534
 9285WAT    HW127854   6.618   4.145   5.493
 9285WAT    HW227855   6.621   4.003   5.544
 9286WAT     OW27856   5.622   0.967   4.046
 9286WAT    HW127857   5.592   0.960   4.137
 9286WAT    HW227858   5.581   0.893   4.002
 9287WAT     OW27859   1.061   0.866   0.692
 9287WAT    HW127860   1.099   0.779   0.703
 9287WAT    HW227861   0.968   0.850   0.676
 9288WAT     OW27862   5.901   6.055   1.354
 9288WAT    HW127863   5.911   6.049   1.449
 9288WAT    HW227864   5.962   6.123   1.327
 9289WAT     OW27865   5.270   1.601   2.727
 9289WAT    HW127866   5.277   1.623   2.820
 9289WAT    HW227867   5.198   1.656   2.694
 9290WAT     OW27868   5.411   5.348   3.695
 9290WAT    HW127869   5.439   5.339   3.786
 9290WAT    HW227870   5.493   5.356   3.646
 9291WAT     OW27871   5.435   0.583   1.884
 9291WAT    HW127872   5.471   0.496   1.865
 9291WAT    HW227873   5.388   0.608   1.805
 9292WAT     OW27874   5.975   1.230   6.633
 9292WAT    HW127875   5.945   1.139   6.630
 9292WAT    HW227876   6.038   1.233   6.705
 9293WAT     OW27877   0.092   3.374   4.865
 9293WAT    HW127878   0.115   3.440   4.799
 9293WAT    HW227879   0.175   3.352   4.908
 9294WAT     OW27880   6.663   3.342   6.483
 9294WAT    HW127881   6.668   3.429   6.524
 9294WAT    HW227882   6.656   3.282   6.557
 9295WAT     OW27883   1.659   4.364   1.834
 9295WAT    HW127884   1.744   4.330   1.808
 9295WAT    HW227885   1.654   4.452   1.796
 9296WAT     OW27886   4.792   1.772   5.981
 9296WAT    HW127887   4.768   1.855   6.022
 9296WAT    HW227888   4.868   1.794   5.928
 9297WAT     OW27889   5.332   1.046   5.484
 9297WAT    HW127890   5.278   1.123   5.502
 9297WAT    HW227891   5.327   1.035   5.389
 9298WAT     OW27892   0.057   4.727   2.558
 9298WAT    HW127893   0.067   4.731   2.463
 9298WAT    HW227894   0.097   4.808   2.590
 9299WAT     OW27895   6.051   5.665   2.613
 9299WAT    HW127896   5.968   5.651   2.658
 9299WAT    HW227897   6.094   5.736   2.663
 9300WAT     OW27898   5.082   0.450   5.038
 9300WAT    HW127899   5.089   0.496   4.955
 9300WAT    HW227900   5.119   0.512   5.102
 9301WAT     OW27901   0.999   6.149   5.450
 9301WAT    HW127902   0.983   6.069   5.399
 9301WAT    HW227903   1.081   6.132   5.497
 9302WAT     OW27904   1.667   5.165   3.810
 9302WAT    HW127905   1.720   5.221   3.753
 9302WAT    HW227906   1.699   5.076   3.794
 9303WAT     OW27907   5.583   5.117   4.551
 9303WAT    HW127908   5.573   5.097   4.458
 9303WAT    HW227909   5.493   5.123   4.584
 9304WAT     OW27910   1.122   1.927   3.151
 9304WAT    HW127911   1.209   1.961   3.166
 9304WAT    HW227912   1.136   1.842   3.107
 9305WAT     OW27913   1.416   3.962   3.230
 9305WAT    HW127914   1.367   3.945   3.310
 9305WAT    HW227915   1.506   3.939   3.251
 9306WAT     OW27916   3.784   4.109   4.308
 9306WAT    HW127917   3.773   4.120   4.214
 9306WAT    HW227918   3.729   4.177   4.347
 9307WAT     OW27919   0.941   4.250   6.392
 9307WAT    HW127920   1.035   4.260   6.378
 9307WAT    HW227921   0.933   4.200   6.473
 9308WAT     OW27922   5.515   0.206   2.544
 9308WAT    HW127923   5.451   0.267   2.582
 9308WAT    HW227924   5.493   0.203   2.451
 9309WAT     OW27925   1.513   5.147   0.883
 9309WAT    HW127926   1.471   5.229   0.857
 9309WAT    HW227927   1.577   5.173   0.950
 9310WAT     OW27928   2.961   4.481   0.619
 9310WAT    HW127929   2.936   4.543   0.687
 9310WAT    HW227930   3.028   4.526   0.569
 9311WAT     OW27931   3.676   3.265   6.098
 9311WAT    HW127932   3.725   3.263   6.180
 9311WAT    HW227933   3.743   3.257   6.030
 9312WAT     OW27934   1.019   4.318   0.690
 9312WAT    HW127935   1.001   4.381   0.759
 9312WAT    HW227936   1.073   4.366   0.627
 9313WAT     OW27937   6.589   3.913   6.303
 9313WAT    HW127938   6.596   3.981   6.370
 9313WAT    HW227939   6.536   3.844   6.344
 9314WAT     OW27940   5.903   0.269   3.079
 9314WAT    HW127941   5.955   0.329   3.132
 9314WAT    HW227942   5.885   0.317   2.998
 9315WAT     OW27943   6.284   5.542   2.205
 9315WAT    HW127944   6.363   5.580   2.165
 9315WAT    HW227945   6.260   5.604   2.274
 9316WAT     OW27946   4.881   1.358   1.449
 9316WAT    HW127947   4.865   1.364   1.355
 9316WAT    HW227948   4.977   1.357   1.456
 9317WAT     OW27949   4.691   1.874   1.496
 9317WAT    HW127950   4.649   1.899   1.413
 9317WAT    HW227951   4.779   1.912   1.489
 9318WAT     OW27952   1.324   2.752   2.591
 9318WAT    HW127953   1.325   2.805   2.512
 9318WAT    HW227954   1.378   2.801   2.653
 9319WAT     OW27955   1.468   5.969   3.235
 9319WAT    HW127956   1.480   6.037   3.301
 9319WAT    HW227957   1.402   5.911   3.272
 9320WAT     OW27958   2.501   3.702   1.417
 9320WAT    HW127959   2.583   3.750   1.410
 9320WAT    HW227960   2.480   3.675   1.327
 9321WAT     OW27961   3.119   4.776   4.178
 9321WAT    HW127962   3.181   4.715   4.217
 9321WAT    HW227963   3.046   4.779   4.240
 9322WAT     OW27964   0.798   6.531   5.140
 9322WAT    HW127965   0.798   6.485   5.224
 9322WAT    HW227966   0.740   6.606   5.154
 9323WAT     OW27967   2.745   0.317   0.528
 9323WAT    HW127968   2.786   0.259   0.464
 9323WAT    HW227969   2.819   0.359   0.573
 9324WAT     OW27970   0.153   4.382   2.323
 9324WAT    HW127971   0.068   4.342   2.307
 9324WAT    HW227972   0.202   4.315   2.371
 9325WAT     OW27973   3.632   5.950   3.965
 9325WAT    HW127974   3.666   5.891   3.897
 9325WAT    HW227975   3.682   6.031   3.954
 9326WAT     OW27976   6.024   4.618   5.047
 9326WAT    HW127977   6.097   4.676   5.023
 9326WAT    HW227978   5.991   4.654   5.129
 9327WAT     OW27979   1.590   5.611   3.178
 9327WAT    HW127980   1.584   5.588   3.085
 9327WAT    HW227981   1.681   5.596   3.201
 9328WAT     OW27982   1.382   5.343   1.123
 9328WAT    HW127983   1.363   5.249   1.126
 9328WAT    HW227984   1.298   5.384   1.103
 9329WAT     OW27985   0.474   3.092   5.056
 9329WAT    HW127986   0.541   3.055   4.998
 9329WAT    HW227987   0.476   3.036   5.134
 9330WAT     OW27988   6.497   3.977   2.004
 9330WAT    HW127989   6.444   3.908   2.044
 9330WAT    HW227990   6.433   4.036   1.965
 9331WAT     OW27991   1.496   5.454   1.935
 9331WAT    HW127992   1.498   5.362   1.909
 9331WAT    HW227993   1.441   5.455   2.013
 9332WAT     OW27994   1.350   2.250   1.627
 9332WAT    HW127995   1.392   2.327   1.665
 9332WAT    HW227996   1.269   2.239   1.678
 9333WAT     OW27997   1.344   0.425   0.770
 9333WAT    HW127998   1.407   0.495   0.755
 9333WAT    HW227999   1.367   0.390   0.856
 9334WAT     OW28000   4.073   5.556   4.906
 9334WAT    HW128001   4.019   5.549   4.984
 9334WAT    HW228002   4.058   5.646   4.875
 9335WAT     OW28003   3.983   4.283   1.152
 9335WAT    HW128004   3.948   4.227   1.083
 9335WAT    HW228005   4.037   4.347   1.106
 9336WAT     OW28006   1.940   0.979   1.955
 9336WAT    HW128007   2.010   1.041   1.975
 9336WAT    HW228008   1.865   1.011   2.006
 9337WAT     OW28009   4.948   3.281   5.633
 9337WAT    HW128010   4.909   3.346   5.574
 9337WAT    HW228011   5.014   3.237   5.580
 9338WAT     OW28012   0.335   3.575   0.807
 9338WAT    HW128013   0.396   3.648   0.821
 9338WAT    HW228014   0.381   3.498   0.842
 9339WAT     OW28015   6.074   5.388   2.590
 9339WAT    HW128016   6.069   5.484   2.596
 9339WAT    HW228017   6.069   5.371   2.496
 9340WAT     OW28018   3.475   3.727   5.495
 9340WAT    HW128019   3.394   3.777   5.483
 9340WAT    HW228020   3.499   3.699   5.406
 9341WAT     OW28021   1.504   4.135   2.843
 9341WAT    HW128022   1.416   4.157   2.814
 9341WAT    HW228023   1.561   4.196   2.795
 9342WAT     OW28024   4.131   5.795   2.499
 9342WAT    HW128025   4.058   5.765   2.553
 9342WAT    HW228026   4.111   5.761   2.412
 9343WAT     OW28027   3.146   3.021   6.605
 9343WAT    HW128028   3.197   3.019   6.686
 9343WAT    HW228029   3.172   2.942   6.558
 9344WAT     OW28030   5.036   0.443   4.404
 9344WAT    HW128031   5.014   0.527   4.362
 9344WAT    HW228032   4.984   0.442   4.484
 9345WAT     OW28033   6.489   1.235   5.055
 9345WAT    HW128034   6.549   1.210   5.125
 9345WAT    HW228035   6.469   1.153   5.010
 9346WAT     OW28036   5.405   4.237   5.392
 9346WAT    HW128037   5.403   4.294   5.469
 9346WAT    HW228038   5.491   4.196   5.394
 9347WAT     OW28039   3.471   0.229   0.827
 9347WAT    HW128040   3.395   0.266   0.872
 9347WAT    HW228041   3.439   0.146   0.791
 9348WAT     OW28042   2.270   0.923   4.921
 9348WAT    HW128043   2.274   0.939   5.015
 9348WAT    HW228044   2.360   0.930   4.891
 9349WAT     OW28045   0.448   6.125   6.089
 9349WAT    HW128046   0.389   6.196   6.115
 9349WAT    HW228047   0.396   6.046   6.100
 9350WAT     OW28048   1.897   5.225   2.650
 9350WAT    HW128049   1.879   5.171   2.728
 9350WAT    HW228050   1.956   5.171   2.598
 9351WAT     OW28051   5.406   2.814   2.708
 9351WAT    HW128052   5.483   2.780   2.753
 9351WAT    HW228053   5.357   2.861   2.775
 9352WAT     OW28054   5.753   5.186   0.877
 9352WAT    HW128055   5.678   5.203   0.820
 9352WAT    HW228056   5.797   5.111   0.837
 9353WAT     OW28057   5.209   3.725   1.358
 9353WAT    HW128058   5.203   3.820   1.351
 9353WAT    HW228059   5.118   3.695   1.360
 9354WAT     OW28060   5.594   2.536   5.418
 9354WAT    HW128061   5.532   2.579   5.360
 9354WAT    HW228062   5.641   2.608   5.460
 9355WAT     OW28063   2.403   0.845   1.652
 9355WAT    HW128064   2.366   0.777   1.709
 9355WAT    HW228065   2.328   0.875   1.600
 9356WAT     OW28066   1.167   2.108   2.476
 9356WAT    HW128067   1.126   2.051   2.541
 9356WAT    HW228068   1.124   2.192   2.488
 9357WAT     OW28069   2.136   4.557   0.927
 9357WAT    HW128070   2.202   4.621   0.901
 9357WAT    HW228071   2.146   4.549   1.022
 9358WAT     OW28072   5.475   0.227   1.525
 9358WAT    HW128073   5.481   0.251   1.618
 9358WAT    HW228074   5.381   0.212   1.511
 9359WAT     OW28075   6.352   1.732   4.630
 9359WAT    HW128076   6.313   1.711   4.715
 9359WAT    HW228077   6.374   1.647   4.592
 9360WAT     OW28078   4.543   0.491   2.362
 9360WAT    HW128079   4.611   0.454   2.307
 9360WAT    HW228080   4.586   0.563   2.408
 9361WAT     OW28081   2.244   6.326   3.372
 9361WAT    HW128082   2.195   6.249   3.402
 9361WAT    HW228083   2.195   6.400   3.406
 9362WAT     OW28084   0.808   1.918   2.395
 9362WAT    HW128085   0.901   1.895   2.397
 9362WAT    HW228086   0.762   1.835   2.383
 9363WAT     OW28087   5.159   2.031   5.989
 9363WAT    HW128088   5.207   1.970   6.046
 9363WAT    HW228089   5.166   2.115   6.034
 9364WAT     OW28090   2.973   3.117   5.522
 9364WAT    HW128091   2.894   3.116   5.576
 9364WAT    HW228092   2.958   3.188   5.460
 9365WAT     OW28093   3.261   4.933   1.178
 9365WAT    HW128094   3.248   4.857   1.234
 9365WAT    HW228095   3.343   4.914   1.131
 9366WAT     OW28096   5.376   1.734   0.407
 9366WAT    HW128097   5.286   1.704   0.392
 9366WAT    HW228098   5.408   1.681   0.480
 9367WAT     OW28099   1.409   3.499   5.916
 9367WAT    HW128100   1.475   3.433   5.937
 9367WAT    HW228101   1.326   3.454   5.929
 9368WAT     OW28102   0.791   6.436   4.636
 9368WAT    HW128103   0.716   6.384   4.608
 9368WAT    HW228104   0.786   6.438   4.731
 9369WAT     OW28105   6.390   3.184   4.827
 9369WAT    HW128106   6.454   3.246   4.862
 9369WAT    HW228107   6.404   3.185   4.732
 9370WAT     OW28108   5.474   4.793   4.475
 9370WAT    HW128109   5.533   4.813   4.548
 9370WAT    HW228110   5.387   4.794   4.514
 9371WAT     OW28111   1.261   5.416   6.170
 9371WAT    HW128112   1.356   5.417   6.167
 9371WAT    HW228113   1.234   5.408   6.079
 9372WAT     OW28114   4.931   0.499   2.704
 9372WAT    HW128115   4.978   0.540   2.631
 9372WAT    HW228116   4.957   0.551   2.781
 9373WAT     OW28117   4.747   4.887   2.887
 9373WAT    HW128118   4.727   4.980   2.903
 9373WAT    HW228119   4.663   4.843   2.899
 9374WAT     OW28120   2.055   2.076   3.984
 9374WAT    HW128121   2.146   2.047   3.983
 9374WAT    HW228122   2.012   2.017   4.046
 9375WAT     OW28123   0.305   2.022   3.462
 9375WAT    HW128124   0.295   2.081   3.537
 9375WAT    HW228125   0.277   1.937   3.495
 9376WAT     OW28126   2.015   2.377   6.437
 9376WAT    HW128127   1.922   2.386   6.419
 9376WAT    HW228128   2.030   2.283   6.438
 9377WAT     OW28129   1.525   0.468   2.086
 9377WAT    HW128130   1.446   0.510   2.052
 9377WAT    HW228131   1.514   0.469   2.181
 9378WAT     OW28132   0.616   6.231   0.250
 9378WAT    HW128133   0.676   6.282   0.305
 9378WAT    HW228134   0.648   6.246   0.161
 9379WAT     OW28135   5.119   3.261   1.859
 9379WAT    HW128136   5.195   3.319   1.855
 9379WAT    HW228137   5.156   3.175   1.879
 9380WAT     OW28138   4.992   3.963   5.912
 9380WAT    HW128139   4.902   3.972   5.881
 9380WAT    HW228140   5.046   3.978   5.834
 9381WAT     OW28141   1.762   6.231   5.734
 9381WAT    HW128142   1.680   6.228   5.783
 9381WAT    HW228143   1.828   6.256   5.798
 9382WAT     OW28144   4.063   2.023   4.952
 9382WAT    HW128145   4.105   1.965   5.016
 9382WAT    HW228146   4.016   2.087   5.006
 9383WAT     OW28147   5.160   1.372   5.010
 9383WAT    HW128148   5.162   1.413   5.097
 9383WAT    HW228149   5.245   1.329   5.001
 9384WAT     OW28150   3.836   0.551   3.171
 9384WAT    HW128151   3.885   0.503   3.104
 9384WAT    HW228152   3.754   0.574   3.129
 9385WAT     OW28153   2.661   2.495   3.848
 9385WAT    HW128154   2.578   2.482   3.803
 9385WAT    HW228155   2.637   2.515   3.938
 9386WAT     OW28156   1.127   0.596   0.761
 9386WAT    HW128157   1.206   0.540   0.760
 9386WAT    HW228158   1.123   0.628   0.851
 9387WAT     OW28159   2.713   5.357   2.703
 9387WAT    HW128160   2.665   5.348   2.621
 9387WAT    HW228161   2.771   5.282   2.707
 9388WAT     OW28162   6.246   5.259   6.066
 9388WAT    HW128163   6.279   5.169   6.071
 9388WAT    HW228164   6.209   5.266   5.978
 9389WAT     OW28165   0.843   2.882   3.799
 9389WAT    HW128166   0.783   2.849   3.732
 9389WAT    HW228167   0.927   2.889   3.753
 9390WAT     OW28168   6.397   5.283   6.306
 9390WAT    HW128169   6.473   5.237   6.270
 9390WAT    HW228170   6.330   5.276   6.238
 9391WAT     OW28171   4.900   1.383   1.823
 9391WAT    HW128172   4.967   1.398   1.756
 9391WAT    HW228173   4.879   1.290   1.815
 9392WAT     OW28174   4.920   3.885   2.734
 9392WAT    HW128175   5.012   3.882   2.760
 9392WAT    HW228176   4.918   3.837   2.651
 9393WAT     OW28177   5.492   5.334   1.654
 9393WAT    HW128178   5.429   5.394   1.694
 9393WAT    HW228179   5.469   5.248   1.688
 9394WAT     OW28180   5.457   3.442   3.635
 9394WAT    HW128181   5.426   3.360   3.675
 9394WAT    HW228182   5.549   3.427   3.617
 9395WAT     OW28183   0.577   2.655   4.898
 9395WAT    HW128184   0.494   2.675   4.943
 9395WAT    HW228185   0.581   2.717   4.825
 9396WAT     OW28186   4.428   0.371   1.407
 9396WAT    HW128187   4.365   0.366   1.335
 9396WAT    HW228188   4.511   0.343   1.369
 9397WAT     OW28189   4.669   2.659   1.528
 9397WAT    HW128190   4.709   2.661   1.442
 9397WAT    HW228191   4.615   2.579   1.528
 9398WAT     OW28192   6.558   1.102   5.677
 9398WAT    HW128193   6.602   1.128   5.758
 9398WAT    HW228194   6.533   1.010   5.692
 9399WAT     OW28195   3.935   4.245   2.754
 9399WAT    HW128196   4.011   4.304   2.760
 9399WAT    HW228197   3.864   4.300   2.721
 9400WAT     OW28198   3.944   3.360   6.656
 9400WAT    HW128199   3.903   3.282   6.617
 9400WAT    HW228200   4.031   3.332   6.681
 9401WAT     OW28201   2.822   0.364   5.734
 9401WAT    HW128202   2.802   0.270   5.730
 9401WAT    HW228203   2.916   0.367   5.748
 9402WAT     OW28204   3.179   6.219   2.906
 9402WAT    HW128205   3.088   6.206   2.935
 9402WAT    HW228206   3.183   6.311   2.879
 9403WAT     OW28207   2.818   1.776   5.973
 9403WAT    HW128208   2.857   1.699   5.931
 9403WAT    HW228209   2.826   1.846   5.908
 9404WAT     OW28210   0.667   4.856   4.819
 9404WAT    HW128211   0.621   4.845   4.735
 9404WAT    HW228212   0.598   4.874   4.882
 9405WAT     OW28213   3.566   2.109   6.544
 9405WAT    HW128214   3.619   2.044   6.498
 9405WAT    HW228215   3.613   2.191   6.531
 9406WAT     OW28216   3.042   4.051   3.100
 9406WAT    HW128217   2.979   4.117   3.127
 9406WAT    HW228218   2.999   4.005   3.028
 9407WAT     OW28219   2.686   0.164   2.376
 9407WAT    HW128220   2.598   0.137   2.351
 9407WAT    HW228221   2.741   0.087   2.361
 9408WAT     OW28222   2.631   3.509   2.334
 9408WAT    HW128223   2.623   3.417   2.358
 9408WAT    HW228224   2.596   3.557   2.409
 9409WAT     OW28225   6.493   0.308   1.734
 9409WAT    HW128226   6.455   0.264   1.811
 9409WAT    HW228227   6.559   0.246   1.701
 9410WAT     OW28228   3.614   1.030   3.087
 9410WAT    HW128229   3.676   1.055   3.019
 9410WAT    HW228230   3.559   1.107   3.099
 9411WAT     OW28231   5.886   0.182   2.355
 9411WAT    HW128232   5.963   0.127   2.364
 9411WAT    HW228233   5.919   0.272   2.365
 9412WAT     OW28234   2.528   5.589   5.706
 9412WAT    HW128235   2.546   5.668   5.758
 9412WAT    HW228236   2.441   5.561   5.733
 9413WAT     OW28237   1.489   6.532   4.424
 9413WAT    HW128238   1.411   6.516   4.478
 9413WAT    HW228239   1.529   6.445   4.415
 9414WAT     OW28240   5.452   5.708   2.140
 9414WAT    HW128241   5.366   5.749   2.151
 9414WAT    HW228242   5.474   5.674   2.227
 9415WAT     OW28243   3.083   3.923   4.243
 9415WAT    HW128244   3.151   3.988   4.230
 9415WAT    HW228245   3.055   3.934   4.334
 9416WAT     OW28246   2.734   5.068   6.388
 9416WAT    HW128247   2.674   5.001   6.421
 9416WAT    HW228248   2.821   5.036   6.410
 9417WAT     OW28249   4.037   0.112   3.029
 9417WAT    HW128250   4.017   0.146   2.942
 9417WAT    HW228251   4.131   0.126   3.040
 9418WAT     OW28252   3.972   1.038   6.329
 9418WAT    HW128253   3.931   1.123   6.310
 9418WAT    HW228254   4.012   1.049   6.415
 9419WAT     OW28255   4.532   6.364   2.700
 9419WAT    HW128256   4.440   6.340   2.693
 9419WAT    HW228257   4.559   6.336   2.787
 9420WAT     OW28258   1.111   6.037   2.080
 9420WAT    HW128259   1.100   6.114   2.136
 9420WAT    HW228260   1.022   6.005   2.065
 9421WAT     OW28261   4.315   0.427   4.316
 9421WAT    HW128262   4.348   0.345   4.279
 9421WAT    HW228263   4.226   0.435   4.281
 9422WAT     OW28264   1.945   0.269   3.013
 9422WAT    HW128265   1.956   0.241   2.922
 9422WAT    HW228266   2.035   0.284   3.044
 9423WAT     OW28267   2.030   1.425   0.932
 9423WAT    HW128268   2.006   1.338   0.965
 9423WAT    HW228269   2.074   1.408   0.849
 9424WAT     OW28270   2.777   2.810   2.974
 9424WAT    HW128271   2.857   2.824   2.924
 9424WAT    HW228272   2.726   2.890   2.959
 9425WAT     OW28273   4.958   5.736   6.533
 9425WAT    HW128274   4.932   5.752   6.624
 9425WAT    HW228275   4.900   5.793   6.482
 9426WAT     OW28276   3.689   5.173   2.426
 9426WAT    HW128277   3.606   5.207   2.460
 9426WAT    HW228278   3.664   5.123   2.348
 9427WAT     OW28279   2.612   4.333   1.657
 9427WAT    HW128280   2.606   4.237   1.661
 9427WAT    HW228281   2.522   4.361   1.641
 9428WAT     OW28282   2.066   4.145   5.778
 9428WAT    HW128283   2.065   4.235   5.745
 9428WAT    HW228284   2.006   4.146   5.852
 9429WAT     OW28285   3.293   2.881   6.061
 9429WAT    HW128286   3.312   2.820   5.990
 9429WAT    HW228287   3.348   2.958   6.043
 9430WAT     OW28288   3.128   0.375   4.675
 9430WAT    HW128289   3.040   0.343   4.656
 9430WAT    HW228290   3.149   0.337   4.760
 9431WAT     OW28291   2.826   6.318   2.686
 9431WAT    HW128292   2.794   6.386   2.745
 9431WAT    HW228293   2.777   6.239   2.710
 9432WAT     OW28294   0.746   2.184   0.792
 9432WAT    HW128295   0.681   2.254   0.785
 9432WAT    HW228296   0.780   2.192   0.881
 9433WAT     OW28297   4.314   2.894   0.886
 9433WAT    HW128298   4.357   2.960   0.941
 9433WAT    HW228299   4.351   2.909   0.799
 9434WAT     OW28300   6.145   1.380   3.878
 9434WAT    HW128301   6.147   1.286   3.897
 9434WAT    HW228302   6.173   1.387   3.787
 9435WAT     OW28303   5.153   5.203   2.434
 9435WAT    HW128304   5.059   5.221   2.435
 9435WAT    HW228305   5.160   5.111   2.409
 9436WAT     OW28306   4.137   3.702   6.392
 9436WAT    HW128307   4.223   3.675   6.423
 9436WAT    HW228308   4.138   3.797   6.401
 9437WAT     OW28309   4.517   2.547   2.145
 9437WAT    HW128310   4.563   2.611   2.091
 9437WAT    HW228311   4.489   2.596   2.222
 9438WAT     OW28312   0.041   3.581   5.487
 9438WAT    HW128313   0.126   3.579   5.443
 9438WAT    HW228314   0.045   3.510   5.551
 9439WAT     OW28315   0.624   6.589   3.206
 9439WAT    HW128316   0.660   6.665   3.160
 9439WAT    HW228317   0.587   6.535   3.137
 9440WAT     OW28318   3.531   3.516   6.555
 9440WAT    HW128319   3.455   3.548   6.604
 9440WAT    HW228320   3.587   3.593   6.544
 9441WAT     OW28321   4.603   2.086   4.660
 9441WAT    HW128322   4.680   2.029   4.665
 9441WAT    HW228323   4.533   2.030   4.625
 9442WAT     OW28324   4.641   0.112   0.429
 9442WAT    HW128325   4.569   0.113   0.365
 9442WAT    HW228326   4.699   0.042   0.399
 9443WAT     OW28327   5.359   2.056   0.074
 9443WAT    HW128328   5.386   2.113   0.002
 9443WAT    HW228329   5.378   1.968   0.043
 9444WAT     OW28330   5.681   3.086   6.446
 9444WAT    HW128331   5.593   3.050   6.435
 9444WAT    HW228332   5.723   3.029   6.510
 9445WAT     OW28333   3.173   5.124   0.586
 9445WAT    HW128334   3.092   5.169   0.608
 9445WAT    HW228335   3.152   5.031   0.591
 9446WAT     OW28336   1.519   3.920   2.415
 9446WAT    HW128337   1.479   3.836   2.437
 9446WAT    HW228338   1.467   3.985   2.462
 9447WAT     OW28339   2.249   5.190   5.923
 9447WAT    HW128340   2.188   5.149   5.984
 9447WAT    HW228341   2.194   5.222   5.851
 9448WAT     OW28342   3.942   3.871   4.292
 9448WAT    HW128343   3.868   3.924   4.320
 9448WAT    HW228344   3.939   3.794   4.350
 9449WAT     OW28345   2.258   4.002   4.693
 9449WAT    HW128346   2.179   4.042   4.655
 9449WAT    HW228347   2.226   3.923   4.737
 9450WAT     OW28348   6.042   5.266   3.246
 9450WAT    HW128349   6.137   5.271   3.231
 9450WAT    HW228350   6.021   5.174   3.235
 9451WAT     OW28351   1.006   5.792   0.889
 9451WAT    HW128352   1.046   5.833   0.966
 9451WAT    HW228353   0.915   5.822   0.892
 9452WAT     OW28354   0.842   3.440   5.398
 9452WAT    HW128355   0.929   3.475   5.378
 9452WAT    HW228356   0.852   3.345   5.389
 9453WAT     OW28357   5.297   5.508   1.749
 9453WAT    HW128358   5.242   5.570   1.797
 9453WAT    HW228359   5.243   5.480   1.675
 9454WAT     OW28360   4.654   4.066   1.504
 9454WAT    HW128361   4.672   4.156   1.531
 9454WAT    HW228362   4.559   4.058   1.506
 9455WAT     OW28363   0.960   1.945   6.717
 9455WAT    HW128364   0.983   1.907   6.633
 9455WAT    HW228365   1.033   1.923   6.775
 9456WAT     OW28366   4.008   2.843   2.791
 9456WAT    HW128367   4.017   2.821   2.699
 9456WAT    HW228368   3.931   2.901   2.794
 9457WAT     OW28369   5.812   0.855   0.601
 9457WAT    HW128370   5.782   0.931   0.551
 9457WAT    HW228371   5.764   0.860   0.684
 9458WAT     OW28372   5.288   4.814   0.143
 9458WAT    HW128373   5.209   4.855   0.177
 9458WAT    HW228374   5.306   4.862   0.062
 9459WAT     OW28375   2.703   5.551   1.476
 9459WAT    HW128376   2.733   5.484   1.538
 9459WAT    HW228377   2.608   5.538   1.471
 9460WAT     OW28378   0.194   2.508   5.343
 9460WAT    HW128379   0.199   2.512   5.438
 9460WAT    HW228380   0.276   2.547   5.312
 9461WAT     OW28381   1.515   3.527   4.682
 9461WAT    HW128382   1.562   3.443   4.684
 9461WAT    HW228383   1.455   3.523   4.757
 9462WAT     OW28384   1.824   5.618   3.627
 9462WAT    HW128385   1.918   5.635   3.619
 9462WAT    HW228386   1.784   5.673   3.561
 9463WAT     OW28387   6.523   1.778   5.807
 9463WAT    HW128388   6.515   1.715   5.736
 9463WAT    HW228389   6.558   1.857   5.766
 9464WAT     OW28390   6.514   0.726   3.305
 9464WAT    HW128391   6.537   0.710   3.396
 9464WAT    HW228392   6.489   0.819   3.302
 9465WAT     OW28393   6.181   2.763   0.101
 9465WAT    HW128394   6.216   2.736   0.016
 9465WAT    HW228395   6.106   2.819   0.079
 9466WAT     OW28396   2.616   0.467   5.132
 9466WAT    HW128397   2.628   0.477   5.038
 9466WAT    HW228398   2.526   0.497   5.148
 9467WAT     OW28399   0.746   6.109   2.267
 9467WAT    HW128400   0.667   6.058   2.285
 9467WAT    HW228401   0.810   6.078   2.331
 9468WAT     OW28402   2.006   3.814   0.392
 9468WAT    HW128403   2.027   3.724   0.417
 9468WAT    HW228404   1.934   3.839   0.450
 9469WAT     OW28405   2.345   4.460   5.275
 9469WAT    HW128406   2.357   4.367   5.292
 9469WAT    HW228407   2.433   4.497   5.276
 9470WAT     OW28408   5.143   3.240   2.704
 9470WAT    HW128409   5.237   3.224   2.698
 9470WAT    HW228410   5.105   3.154   2.723
 9471WAT     OW28411   4.583   6.005   2.471
 9471WAT    HW128412   4.512   6.020   2.409
 9471WAT    HW228413   4.650   5.959   2.421
 9472WAT     OW28414   4.543   4.470   4.659
 9472WAT    HW128415   4.608   4.540   4.670
 9472WAT    HW228416   4.574   4.421   4.583
 9473WAT     OW28417   2.707   3.567   4.582
 9473WAT    HW128418   2.783   3.603   4.537
 9473WAT    HW228419   2.728   3.575   4.675
 9474WAT     OW28420   1.977   6.402   2.353
 9474WAT    HW128421   1.890   6.432   2.381
 9474WAT    HW228422   2.036   6.430   2.423
 9475WAT     OW28423   3.953   5.888   3.620
 9475WAT    HW128424   3.907   5.958   3.574
 9475WAT    HW228425   4.036   5.928   3.647
 9476WAT     OW28426   2.448   0.828   5.952
 9476WAT    HW128427   2.426   0.876   6.031
 9476WAT    HW228428   2.538   0.796   5.967
 9477WAT     OW28429   1.879   5.455   4.591
 9477WAT    HW128430   1.861   5.384   4.529
 9477WAT    HW228431   1.966   5.435   4.625
 9478WAT     OW28432   1.695   1.682   4.693
 9478WAT    HW128433   1.618   1.635   4.662
 9478WAT    HW228434   1.660   1.762   4.732
 9479WAT     OW28435   4.598   2.210   0.180
 9479WAT    HW128436   4.553   2.125   0.182
 9479WAT    HW228437   4.648   2.208   0.098
 9480WAT     OW28438   2.545   5.805   5.886
 9480WAT    HW128439   2.634   5.837   5.902
 9480WAT    HW228440   2.516   5.770   5.970
 9481WAT     OW28441   3.194   1.357   3.465
 9481WAT    HW128442   3.252   1.283   3.452
 9481WAT    HW228443   3.189   1.367   3.560
 9482WAT     OW28444   4.466   0.617   6.242
 9482WAT    HW128445   4.430   0.599   6.155
 9482WAT    HW228446   4.560   0.630   6.227
 9483WAT     OW28447   6.652   3.441   3.590
 9483WAT    HW128448   6.610   3.522   3.621
 9483WAT    HW228449   6.604   3.371   3.633
 9484WAT     OW28450   1.194   2.161   6.253
 9484WAT    HW128451   1.141   2.156   6.333
 9484WAT    HW228452   1.284   2.160   6.284
 9485WAT     OW28453   2.205   3.487   2.024
 9485WAT    HW128454   2.265   3.499   1.950
 9485WAT    HW228455   2.259   3.500   2.102
 9486WAT     OW28456   2.623   3.242   5.276
 9486WAT    HW128457   2.557   3.278   5.217
 9486WAT    HW228458   2.576   3.225   5.358
 9487WAT     OW28459   0.714   5.863   3.370
 9487WAT    HW128460   0.628   5.825   3.385
 9487WAT    HW228461   0.754   5.807   3.303
 9488WAT     OW28462   4.919   5.965   2.747
 9488WAT    HW128463   4.848   5.945   2.807
 9488WAT    HW228464   4.977   6.023   2.796
 9489WAT     OW28465   5.688   0.470   3.253
 9489WAT    HW128466   5.681   0.450   3.159
 9489WAT    HW228467   5.740   0.549   3.256
 9490WAT     OW28468   6.701   1.431   0.308
 9490WAT    HW128469   6.639   1.385   0.365
 9490WAT    HW228470   6.695   1.384   0.224
 9491WAT     OW28471   1.377   4.125   1.821
 9491WAT    HW128472   1.462   4.082   1.808
 9491WAT    HW228473   1.379   4.200   1.762
 9492WAT     OW28474   2.156   2.451   6.203
 9492WAT    HW128475   2.106   2.430   6.281
 9492WAT    HW228476   2.173   2.545   6.208
 9493WAT     OW28477   6.143   4.906   6.412
 9493WAT    HW128478   6.195   4.956   6.475
 9493WAT    HW228479   6.072   4.965   6.388
 9494WAT     OW28480   1.789   5.289   0.702
 9494WAT    HW128481   1.868   5.239   0.720
 9494WAT    HW228482   1.731   5.227   0.658
 9495WAT     OW28483   3.649   6.094   5.418
 9495WAT    HW128484   3.628   6.106   5.510
 9495WAT    HW228485   3.713   6.023   5.416
 9496WAT     OW28486   4.737   2.347   5.689
 9496WAT    HW128487   4.736   2.439   5.662
 9496WAT    HW228488   4.727   2.298   5.608
 9497WAT     OW28489   1.841   3.807   0.850
 9497WAT    HW128490   1.864   3.897   0.871
 9497WAT    HW228491   1.758   3.814   0.802
 9498WAT     OW28492   2.089   2.424   0.594
 9498WAT    HW128493   2.065   2.345   0.642
 9498WAT    HW228494   2.043   2.417   0.511
 9499WAT     OW28495   5.254   3.926   5.040
 9499WAT    HW128496   5.195   3.968   5.103
 9499WAT    HW228497   5.294   3.854   5.089
 9500WAT     OW28498   3.301   1.335   0.153
 9500WAT    HW128499   3.256   1.268   0.102
 9500WAT    HW228500   3.313   1.295   0.239
 9501WAT     OW28501   1.649   3.542   5.351
 9501WAT    HW128502   1.645   3.568   5.259
 9501WAT    HW228503   1.609   3.616   5.399
 9502WAT     OW28504   6.040   4.119   2.353
 9502WAT    HW128505   6.125   4.087   2.383
 9502WAT    HW228506   6.044   4.214   2.366
 9503WAT     OW28507   2.852   6.024   1.607
 9503WAT    HW128508   2.800   6.035   1.687
 9503WAT    HW228509   2.788   6.014   1.537
 9504WAT     OW28510   5.133   5.424   4.980
 9504WAT    HW128511   5.199   5.354   4.974
 9504WAT    HW228512   5.068   5.391   5.042
 9505WAT     OW28513   1.850   1.917   3.122
 9505WAT    HW128514   1.905   1.915   3.200
 9505WAT    HW228515   1.760   1.916   3.156
 9506WAT     OW28516   3.889   0.923   4.675
 9506WAT    HW128517   3.935   0.882   4.602
 9506WAT    HW228518   3.837   0.852   4.713
 9507WAT     OW28519   0.209   3.486   2.799
 9507WAT    HW128520   0.122   3.449   2.809
 9507WAT    HW228521   0.194   3.576   2.769
 9508WAT     OW28522   1.016   2.398   0.827
 9508WAT    HW128523   0.965   2.388   0.746
 9508WAT    HW228524   1.096   2.348   0.811
 9509WAT     OW28525   2.167   4.840   1.561
 9509WAT    HW128526   2.137   4.875   1.645
 9509WAT    HW228527   2.226   4.768   1.585
 9510WAT     OW28528   5.938   5.002   2.842
 9510WAT    HW128529   6.032   5.001   2.856
 9510WAT    HW228530   5.903   4.943   2.909
 9511WAT     OW28531   5.050   4.455   0.706
 9511WAT    HW128532   5.122   4.452   0.644
 9511WAT    HW228533   4.982   4.400   0.667
 9512WAT     OW28534   6.339   3.608   3.317
 9512WAT    HW128535   6.348   3.670   3.389
 9512WAT    HW228536   6.295   3.658   3.248
 9513WAT     OW28537   0.356   3.715   5.913
 9513WAT    HW128538   0.435   3.735   5.963
 9513WAT    HW228539   0.290   3.774   5.948
 9514WAT     OW28540   2.530   4.180   6.224
 9514WAT    HW128541   2.601   4.231   6.263
 9514WAT    HW228542   2.476   4.152   6.299
 9515WAT     OW28543   1.980   3.359   4.834
 9515WAT    HW128544   2.065   3.397   4.858
 9515WAT    HW228545   1.967   3.385   4.743
 9516WAT     OW28546   1.889   5.839   4.943
 9516WAT    HW128547   1.825   5.898   4.903
 9516WAT    HW228548   1.836   5.776   4.992
 9517WAT     OW28549   3.196   4.783   1.952
 9517WAT    HW128550   3.227   4.748   1.868
 9517WAT    HW228551   3.180   4.705   2.005
 9518WAT     OW28552   6.412   5.957   4.148
 9518WAT    HW128553   6.500   5.937   4.182
 9518WAT    HW228554   6.401   6.051   4.164
 9519WAT     OW28555   1.536   5.774   6.210
 9519WAT    HW128556   1.559   5.723   6.132
 9519WAT    HW228557   1.470   5.721   6.254
 9520WAT     OW28558   1.535   5.431   6.168
 9520WAT    HW128559   1.562   5.435   6.260
 9520WAT    HW228560   1.579   5.354   6.133
 9521WAT     OW28561   3.488   1.591   1.290
 9521WAT    HW128562   3.406   1.630   1.262
 9521WAT    HW228563   3.548   1.665   1.301
 9522WAT     OW28564   5.894   2.297   1.740
 9522WAT    HW128565   5.875   2.291   1.834
 9522WAT    HW228566   5.961   2.231   1.725
 9523WAT     OW28567   2.985   1.316   3.292
 9523WAT    HW128568   3.061   1.336   3.347
 9523WAT    HW228569   2.911   1.311   3.352
 9524WAT     OW28570   4.532   1.161   2.935
 9524WAT    HW128571   4.515   1.249   2.969
 9524WAT    HW228572   4.595   1.124   2.996
 9525WAT     OW28573   4.692   0.876   5.059
 9525WAT    HW128574   4.732   0.935   5.123
 9525WAT    HW228575   4.651   0.807   5.112
 9526WAT     OW28576   2.111   0.232   3.587
 9526WAT    HW128577   2.156   0.289   3.524
 9526WAT    HW228578   2.032   0.203   3.541
 9527WAT     OW28579   5.935   2.946   0.862
 9527WAT    HW128580   6.009   2.946   0.802
 9527WAT    HW228581   5.975   2.953   0.949
 9528WAT     OW28582   1.892   6.147   3.280
 9528WAT    HW128583   1.830   6.105   3.339
 9528WAT    HW228584   1.860   6.237   3.271
 9529WAT     OW28585   1.254   5.611   3.036
 9529WAT    HW128586   1.247   5.533   3.092
 9529WAT    HW228587   1.187   5.670   3.069
 9530WAT     OW28588   1.066   4.075   3.124
 9530WAT    HW128589   1.129   4.024   3.175
 9530WAT    HW228590   1.071   4.039   3.036
 9531WAT     OW28591   1.302   5.141   1.686
 9531WAT    HW128592   1.301   5.167   1.594
 9531WAT    HW228593   1.209   5.137   1.711
 9532WAT     OW28594   4.770   3.140   2.050
 9532WAT    HW128595   4.757   3.095   1.967
 9532WAT    HW228596   4.781   3.233   2.026
 9533WAT     OW28597   0.268   3.139   1.934
 9533WAT    HW128598   0.183   3.182   1.946
 9533WAT    HW228599   0.266   3.105   1.845
 9534WAT     OW28600   3.346   2.070   4.564
 9534WAT    HW128601   3.355   2.148   4.509
 9534WAT    HW228602   3.371   1.998   4.507
 9535WAT     OW28603   3.887   1.305   6.285
 9535WAT    HW128604   3.838   1.385   6.266
 9535WAT    HW228605   3.973   1.318   6.245
 9536WAT     OW28606   4.267   3.092   3.987
 9536WAT    HW128607   4.352   3.046   3.986
 9536WAT    HW228608   4.222   3.059   3.909
 9537WAT     OW28609   1.462   3.047   5.008
 9537WAT    HW128610   1.510   2.964   5.007
 9537WAT    HW228611   1.373   3.024   4.983
 9538WAT     OW28612   2.529   0.619   5.497
 9538WAT    HW128613   2.504   0.664   5.416
 9538WAT    HW228614   2.504   0.680   5.567
 9539WAT     OW28615   4.933   4.184   2.463
 9539WAT    HW128616   5.009   4.234   2.493
 9539WAT    HW228617   4.969   4.108   2.418
 9540WAT     OW28618   1.198   6.001   5.597
 9540WAT    HW128619   1.253   5.935   5.556
 9540WAT    HW228620   1.249   6.033   5.671
 9541WAT     OW28621   2.365   5.443   0.043
 9541WAT    HW128622   2.288   5.398   0.008
 9541WAT    HW228623   2.329   5.502   0.110
 9542WAT     OW28624   6.128   1.255   6.408
 9542WAT    HW128625   6.162   1.166   6.394
 9542WAT    HW228626   6.062   1.244   6.476
 9543WAT     OW28627   5.880   0.678   0.007
 9543WAT    HW128628   5.848   0.602   0.055
 9543WAT    HW228629   5.878   0.749   0.071
 9544WAT     OW28630   3.905   2.726   3.850
 9544WAT    HW128631   3.832   2.755   3.794
 9544WAT    HW228632   3.903   2.631   3.844
 9545WAT     OW28633   1.605   6.027   6.272
 9545WAT    HW128634   1.589   5.933   6.265
 9545WAT    HW228635   1.631   6.040   6.363
 9546WAT     OW28636   5.594   1.787   0.940
 9546WAT    HW128637   5.520   1.801   0.881
 9546WAT    HW228638   5.635   1.872   0.949
 9547WAT     OW28639   2.797   5.014   3.046
 9547WAT    HW128640   2.817   4.977   2.960
 9547WAT    HW228641   2.841   5.099   3.046
 9548WAT     OW28642   5.137   1.096   5.967
 9548WAT    HW128643   5.216   1.044   5.983
 9548WAT    HW228644   5.169   1.185   5.951
 9549WAT     OW28645   3.682   5.103   1.681
 9549WAT    HW128646   3.653   5.179   1.731
 9549WAT    HW228647   3.776   5.097   1.697
 9550WAT     OW28648   2.847   6.243   5.995
 9550WAT    HW128649   2.801   6.182   6.053
 9550WAT    HW228650   2.854   6.196   5.912
 9551WAT     OW28651   4.753   0.943   2.644
 9551WAT    HW128652   4.784   1.034   2.646
 9551WAT    HW228653   4.668   0.946   2.688
 9552WAT     OW28654   0.452   4.918   4.971
 9552WAT    HW128655   0.458   5.005   5.011
 9552WAT    HW228656   0.366   4.916   4.931
 9553WAT     OW28657   1.174   2.916   6.373
 9553WAT    HW128658   1.166   3.011   6.367
 9553WAT    HW228659   1.199   2.889   6.284
 9554WAT     OW28660   0.920   5.022   2.242
 9554WAT    HW128661   0.962   5.066   2.316
 9554WAT    HW228662   0.929   4.929   2.261
 9555WAT     OW28663   5.290   4.777   2.514
 9555WAT    HW128664   5.376   4.815   2.534
 9555WAT    HW228665   5.304   4.726   2.435
 9556WAT     OW28666   4.610   2.541   3.868
 9556WAT    HW128667   4.590   2.456   3.829
 9556WAT    HW228668   4.676   2.521   3.935
 9557WAT     OW28669   2.887   1.279   0.023
 9557WAT    HW128670   2.912   1.371   0.038
 9557WAT    HW228671   2.848   1.280  -0.065
 9558WAT     OW28672   1.439   4.476   4.946
 9558WAT    HW128673   1.483   4.551   4.906
 9558WAT    HW228674   1.425   4.415   4.874
 9559WAT     OW28675   4.077   2.747   0.871
 9559WAT    HW128676   4.002   2.788   0.915
 9559WAT    HW228677   4.147   2.812   0.877
 9560WAT     OW28678   4.911   3.852   5.622
 9560WAT    HW128679   4.992   3.901   5.637
 9560WAT    HW228680   4.843   3.904   5.664
 9561WAT     OW28681   0.842   4.991   1.006
 9561WAT    HW128682   0.790   5.030   0.935
 9561WAT    HW228683   0.777   4.972   1.074
 9562WAT     OW28684   0.042   5.149   0.432
 9562WAT    HW128685   0.104   5.222   0.432
 9562WAT    HW228686   0.090   5.078   0.388
 9563WAT     OW28687   5.792   1.496   5.420
 9563WAT    HW128688   5.883   1.494   5.449
 9563WAT    HW228689   5.787   1.571   5.361
 9564WAT     OW28690   3.547   1.691   3.554
 9564WAT    HW128691   3.507   1.618   3.602
 9564WAT    HW228692   3.641   1.680   3.567
 9565WAT     OW28693   5.474   3.540   5.851
 9565WAT    HW128694   5.439   3.621   5.889
 9565WAT    HW228695   5.404   3.475   5.865
 9566WAT     OW28696   3.138   5.498   2.375
 9566WAT    HW128697   3.196   5.439   2.327
 9566WAT    HW228698   3.056   5.449   2.383
 9567WAT     OW28699   2.572   3.689   6.214
 9567WAT    HW128700   2.511   3.652   6.150
 9567WAT    HW228701   2.587   3.618   6.277
 9568WAT     OW28702   6.582   2.742   4.184
 9568WAT    HW128703   6.573   2.780   4.097
 9568WAT    HW228704   6.497   2.700   4.201
 9569WAT     OW28705   5.538   4.868   2.589
 9569WAT    HW128706   5.513   4.951   2.630
 9569WAT    HW228707   5.634   4.873   2.583
 9570WAT     OW28708   4.680   4.541   2.191
 9570WAT    HW128709   4.585   4.537   2.183
 9570WAT    HW228710   4.701   4.475   2.257
 9571WAT     OW28711   2.772   5.684   5.146
 9571WAT    HW128712   2.787   5.593   5.120
 9571WAT    HW228713   2.801   5.736   5.071
 9572WAT     OW28714   2.662   0.049   6.086
 9572WAT    HW128715   2.653  -0.020   6.151
 9572WAT    HW228716   2.626   0.011   6.006
 9573WAT     OW28717   2.252   3.341   4.301
 9573WAT    HW128718   2.184   3.279   4.276
 9573WAT    HW228719   2.318   3.288   4.346
 9574WAT     OW28720   6.286   1.595   4.234
 9574WAT    HW128721   6.193   1.611   4.217
 9574WAT    HW228722   6.324   1.578   4.148
 9575WAT     OW28723   5.791   4.517   5.460
 9575WAT    HW128724   5.787   4.559   5.546
 9575WAT    HW228725   5.809   4.425   5.479
 9576WAT     OW28726   5.465   2.166   4.365
 9576WAT    HW128727   5.544   2.208   4.330
 9576WAT    HW228728   5.394   2.201   4.312
 9577WAT     OW28729   6.068   0.866   3.936
 9577WAT    HW128730   5.984   0.838   3.971
 9577WAT    HW228731   6.127   0.793   3.954
 9578WAT     OW28732   0.398   0.825   2.563
 9578WAT    HW128733   0.427   0.741   2.526
 9578WAT    HW228734   0.360   0.801   2.648
 9579WAT     OW28735   0.783   6.102   1.837
 9579WAT    HW128736   0.807   6.040   1.906
 9579WAT    HW228737   0.811   6.061   1.756
 9580WAT     OW28738   1.742   1.049   5.518
 9580WAT    HW128739   1.817   1.084   5.471
 9580WAT    HW228740   1.751   0.954   5.509
 9581WAT     OW28741   1.166   1.178   5.760
 9581WAT    HW128742   1.250   1.222   5.746
 9581WAT    HW228743   1.127   1.226   5.833
 9582WAT     OW28744   6.474   4.255   0.119
 9582WAT    HW128745   6.403   4.191   0.113
 9582WAT    HW228746   6.430   4.338   0.140
 9583WAT     OW28747   4.464   4.741   2.667
 9583WAT    HW128748   4.479   4.647   2.659
 9583WAT    HW228749   4.475   4.760   2.760
 9584WAT     OW28750   4.922   0.622   3.709
 9584WAT    HW128751   5.005   0.669   3.699
 9584WAT    HW228752   4.897   0.636   3.800
 9585WAT     OW28753   5.100   2.109   0.146
 9585WAT    HW128754   5.190   2.086   0.123
 9585WAT    HW228755   5.110   2.188   0.200
 9586WAT     OW28756   4.843   2.461   6.339
 9586WAT    HW128757   4.865   2.430   6.251
 9586WAT    HW228758   4.919   2.439   6.392
 9587WAT     OW28759   1.690   1.625   4.209
 9587WAT    HW128760   1.716   1.536   4.186
 9587WAT    HW228761   1.715   1.678   4.133
 9588WAT     OW28762   1.895   1.659   5.390
 9588WAT    HW128763   1.841   1.620   5.458
 9588WAT    HW228764   1.956   1.716   5.436
 9589WAT     OW28765   1.074   4.754   6.106
 9589WAT    HW128766   1.127   4.715   6.036
 9589WAT    HW228767   0.996   4.787   6.061
 9590WAT     OW28768   3.645   5.554   4.764
 9590WAT    HW128769   3.614   5.627   4.710
 9590WAT    HW228770   3.680   5.596   4.843
 9591WAT     OW28771   2.239   3.744   6.392
 9591WAT    HW128772   2.317   3.726   6.446
 9591WAT    HW228773   2.178   3.674   6.416
 9592WAT     OW28774   3.057   3.086   0.998
 9592WAT    HW128775   2.995   3.093   0.925
 9592WAT    HW228776   3.131   3.038   0.962
 9593WAT     OW28777   4.219   2.019   3.908
 9593WAT    HW128778   4.212   1.923   3.918
 9593WAT    HW228779   4.287   2.044   3.971
 9594WAT     OW28780   5.676   2.292   4.258
 9594WAT    HW128781   5.756   2.250   4.290
 9594WAT    HW228782   5.701   2.329   4.174
 9595WAT     OW28783   1.533   1.073   1.444
 9595WAT    HW128784   1.543   1.098   1.352
 9595WAT    HW228785   1.588   0.995   1.454
 9596WAT     OW28786   2.093   5.106   2.491
 9596WAT    HW128787   2.095   5.192   2.449
 9596WAT    HW228788   2.107   5.044   2.420
 9597WAT     OW28789   4.268   6.529   0.264
 9597WAT    HW128790   4.229   6.555   0.348
 9597WAT    HW228791   4.266   6.609   0.211
 9598WAT     OW28792   3.079   0.541   6.475
 9598WAT    HW128793   3.009   0.489   6.434
 9598WAT    HW228794   3.151   0.478   6.488
 9599WAT     OW28795   3.361   1.930   4.970
 9599WAT    HW128796   3.335   2.010   4.924
 9599WAT    HW228797   3.455   1.938   4.982
 9600WAT     OW28798   1.287   2.027   1.234
 9600WAT    HW128799   1.358   1.964   1.245
 9600WAT    HW228800   1.319   2.107   1.276
 9601WAT     OW28801   6.721   1.577   5.209
 9601WAT    HW128802   6.704   1.547   5.298
 9601WAT    HW228803   6.763   1.502   5.166
 9602WAT     OW28804   2.096   5.221   2.157
 9602WAT    HW128805   2.084   5.279   2.232
 9602WAT    HW228806   2.027   5.246   2.095
 9603WAT     OW28807   5.114   0.719   4.006
 9603WAT    HW128808   5.028   0.687   3.980
 9603WAT    HW228809   5.112   0.813   3.987
 9604WAT     OW28810   0.234   1.173   3.828
 9604WAT    HW128811   0.276   1.196   3.744
 9604WAT    HW228812   0.201   1.257   3.861
 9605WAT     OW28813   2.035   0.385   0.785
 9605WAT    HW128814   2.043   0.322   0.713
 9605WAT    HW228815   2.077   0.465   0.752
 9606WAT     OW28816   3.254   5.077   3.602
 9606WAT    HW128817   3.202   5.017   3.656
 9606WAT    HW228818   3.344   5.067   3.635
 9607WAT     OW28819   1.490   5.538   0.579
 9607WAT    HW128820   1.457   5.519   0.492
 9607WAT    HW228821   1.585   5.547   0.568
 9608WAT     OW28822   0.087   2.274   2.667
 9608WAT    HW128823   0.141   2.216   2.722
 9608WAT    HW228824   0.085   2.231   2.582
 9609WAT     OW28825   3.108   5.976   4.510
 9609WAT    HW128826   3.151   6.062   4.504
 9609WAT    HW228827   3.144   5.926   4.436
 9610WAT     OW28828   4.477   0.920   6.527
 9610WAT    HW128829   4.552   0.950   6.476
 9610WAT    HW228830   4.457   0.993   6.586
 9611WAT     OW28831   0.677   2.629   2.523
 9611WAT    HW128832   0.650   2.714   2.559
 9611WAT    HW228833   0.759   2.647   2.479
 9612WAT     OW28834   6.665   2.340   1.097
 9612WAT    HW128835   6.644   2.433   1.103
 9612WAT    HW228836   6.668   2.321   1.003
 9613WAT     OW28837   0.095   5.468   1.082
 9613WAT    HW128838   0.097   5.377   1.111
 9613WAT    HW228839   0.106   5.463   0.987
 9614WAT     OW28840   1.051   0.268   3.089
 9614WAT    HW128841   1.111   0.194   3.081
 9614WAT    HW228842   1.019   0.263   3.179
 9615WAT     OW28843   3.351   0.739   5.051
 9615WAT    HW128844   3.415   0.779   5.109
 9615WAT    HW228845   3.343   0.649   5.084
 9616WAT     OW28846   1.284   5.921   6.245
 9616WAT    HW128847   1.280   5.831   6.276
 9616WAT    HW228848   1.372   5.930   6.208
 9617WAT     OW28849   6.013   5.481   4.271
 9617WAT    HW128850   5.996   5.406   4.213
 9617WAT    HW228851   6.042   5.441   4.353
 9618WAT     OW28852   5.551   6.441   5.299
 9618WAT    HW128853   5.534   6.403   5.212
 9618WAT    HW228854   5.468   6.433   5.346
 9619WAT     OW28855   0.945   0.491   1.443
 9619WAT    HW128856   1.017   0.450   1.490
 9619WAT    HW228857   0.946   0.448   1.357
 9620WAT     OW28858   6.484   4.728   3.934
 9620WAT    HW128859   6.474   4.637   3.961
 9620WAT    HW228860   6.560   4.727   3.875
 9621WAT     OW28861   2.972   3.311   3.641
 9621WAT    HW128862   2.935   3.234   3.683
 9621WAT    HW228863   3.005   3.364   3.713
 9622WAT     OW28864   1.587   1.111   1.167
 9622WAT    HW128865   1.622   1.184   1.115
 9622WAT    HW228866   1.532   1.062   1.106
 9623WAT     OW28867   2.015   2.860   4.710
 9623WAT    HW128868   1.931   2.876   4.753
 9623WAT    HW228869   2.066   2.810   4.773
 9624WAT     OW28870   1.079   5.359   2.927
 9624WAT    HW128871   1.134   5.296   2.974
 9624WAT    HW228872   1.137   5.397   2.861
 9625WAT     OW28873   3.619   6.156   4.257
 9625WAT    HW128874   3.581   6.171   4.343
 9625WAT    HW228875   3.644   6.063   4.258
 9626WAT     OW28876   0.909   1.337   5.047
 9626WAT    HW128877   0.874   1.424   5.030
 9626WAT    HW228878   0.933   1.303   4.960
 9627WAT     OW28879   2.762   0.170   4.882
 9627WAT    HW128880   2.754   0.084   4.923
 9627WAT    HW228881   2.828   0.216   4.934
 9628WAT     OW28882   5.755   2.905   6.635
 9628WAT    HW128883   5.828   2.931   6.691
 9628WAT    HW228884   5.763   2.810   6.628
 9629WAT     OW28885   6.267   3.420   4.546
 9629WAT    HW128886   6.328   3.491   4.568
 9629WAT    HW228887   6.320   3.340   4.551
 9630WAT     OW28888   4.520   2.578   5.217
 9630WAT    HW128889   4.522   2.496   5.168
 9630WAT    HW228890   4.427   2.601   5.221
 9631WAT     OW28891   2.492   4.054   4.847
 9631WAT    HW128892   2.416   4.046   4.790
 9631WAT    HW228893   2.514   3.964   4.871
 9632WAT     OW28894   0.018   5.036   3.874
 9632WAT    HW128895   0.092   4.998   3.828
 9632WAT    HW228896   0.046   5.126   3.893
 9633WAT     OW28897   5.983   2.059   3.395
 9633WAT    HW128898   6.075   2.084   3.406
 9633WAT    HW228899   5.938   2.141   3.373
 9634WAT     OW28900   2.776   1.294   3.474
 9634WAT    HW128901   2.749   1.376   3.514
 9634WAT    HW228902   2.803   1.238   3.547
 9635WAT     OW28903   0.502   4.605   1.860
 9635WAT    HW128904   0.499   4.573   1.771
 9635WAT    HW228905   0.512   4.700   1.851
 9636WAT     OW28906   4.191   1.224   2.220
 9636WAT    HW128907   4.276   1.241   2.179
 9636WAT    HW228908   4.130   1.218   2.147
 9637WAT     OW28909   1.673   6.092   2.029
 9637WAT    HW128910   1.701   6.173   2.071
 9637WAT    HW228911   1.749   6.035   2.032
 9638WAT     OW28912   4.461   5.310   0.294
 9638WAT    HW128913   4.510   5.229   0.310
 9638WAT    HW228914   4.450   5.348   0.381
 9639WAT     OW28915   1.277   2.753   4.490
 9639WAT    HW128916   1.295   2.665   4.524
 9639WAT    HW228917   1.278   2.741   4.394
 9640WAT     OW28918   4.173   2.453   2.409
 9640WAT    HW128919   4.175   2.549   2.408
 9640WAT    HW228920   4.182   2.428   2.317
 9641WAT     OW28921   3.874   5.499   3.966
 9641WAT    HW128922   3.962   5.529   3.946
 9641WAT    HW228923   3.826   5.508   3.883
 9642WAT     OW28924   6.709   3.899   3.990
 9642WAT    HW128925   6.682   3.971   4.048
 9642WAT    HW228926   6.744   3.943   3.913
 9643WAT     OW28927   0.019   5.251   2.032
 9643WAT    HW128928  -0.043   5.200   2.085
 9643WAT    HW228929   0.028   5.201   1.951
 9644WAT     OW28930   5.498   3.799   1.705
 9644WAT    HW128931   5.483   3.725   1.647
 9644WAT    HW228932   5.415   3.847   1.705
 9645WAT     OW28933   2.541   3.888   1.059
 9645WAT    HW128934   2.593   3.868   0.981
 9645WAT    HW228935   2.524   3.802   1.098
 9646WAT     OW28936   6.516   5.290   0.396
 9646WAT    HW128937   6.564   5.370   0.376
 9646WAT    HW228938   6.585   5.224   0.409
 9647WAT     OW28939   1.821   0.658   3.677
 9647WAT    HW128940   1.810   0.573   3.635
 9647WAT    HW228941   1.906   0.691   3.645
 9648WAT     OW28942   1.257   0.140   2.582
 9648WAT    HW128943   1.219   0.100   2.660
 9648WAT    HW228944   1.327   0.079   2.556
 9649WAT     OW28945   1.772   5.461   4.105
 9649WAT    HW128946   1.749   5.494   4.018
 9649WAT    HW228947   1.796   5.538   4.155
 9650WAT     OW28948   1.759   0.316   3.969
 9650WAT    HW128949   1.804   0.279   4.045
 9650WAT    HW228950   1.827   0.321   3.901
 9651WAT     OW28951   1.032   2.588   0.455
 9651WAT    HW128952   1.101   2.635   0.501
 9651WAT    HW228953   0.951   2.631   0.482
 9652WAT     OW28954   2.226   2.292   5.391
 9652WAT    HW128955   2.165   2.319   5.322
 9652WAT    HW228956   2.246   2.374   5.438
 9653WAT     OW28957   4.345   1.958   6.370
 9653WAT    HW128958   4.258   1.947   6.332
 9653WAT    HW228959   4.329   1.966   6.464
 9654WAT     OW28960   0.984   5.528   4.441
 9654WAT    HW128961   0.923   5.468   4.399
 9654WAT    HW228962   0.990   5.496   4.531
 9655WAT     OW28963   5.097   5.972   4.652
 9655WAT    HW128964   5.146   5.898   4.687
 9655WAT    HW228965   5.043   5.935   4.582
 9656WAT     OW28966   2.135   5.366   3.412
 9656WAT    HW128967   2.187   5.417   3.474
 9656WAT    HW228968   2.122   5.425   3.338
 9657WAT     OW28969   4.744   1.274   4.542
 9657WAT    HW128970   4.740   1.215   4.467
 9657WAT    HW228971   4.725   1.219   4.618
 9658WAT     OW28972   2.507   5.598   1.172
 9658WAT    HW128973   2.504   5.502   1.170
 9658WAT    HW228974   2.473   5.621   1.258
 9659WAT     OW28975   5.490   4.772   2.122
 9659WAT    HW128976   5.504   4.867   2.124
 9659WAT    HW228977   5.559   4.739   2.065
 9660WAT     OW28978   5.861   5.074   5.578
 9660WAT    HW128979   5.865   5.101   5.670
 9660WAT    HW228980   5.842   5.155   5.530
 9661WAT     OW28981   5.382   3.478   4.989
 9661WAT    HW128982   5.339   3.398   4.959
 9661WAT    HW228983   5.464   3.481   4.940
 9662WAT     OW28984   2.896   3.142   0.550
 9662WAT    HW128985   2.990   3.121   0.544
 9662WAT    HW228986   2.875   3.126   0.642
 9663WAT     OW28987   4.186   2.712   2.312
 9663WAT    HW128988   4.230   2.790   2.279
 9663WAT    HW228989   4.183   2.653   2.237
 9664WAT     OW28990   4.264   5.427   4.743
 9664WAT    HW128991   4.183   5.462   4.779
 9664WAT    HW228992   4.326   5.499   4.748
 9665WAT     OW28993   2.921   2.206   5.534
 9665WAT    HW128994   2.861   2.163   5.473
 9665WAT    HW228995   2.868   2.224   5.611
 9666WAT     OW28996   2.918   4.207   2.648
 9666WAT    HW128997   2.980   4.141   2.680
 9666WAT    HW228998   2.863   4.227   2.723
 9667WAT     OW28999   2.527   0.956   4.549
 9667WAT    HW129000   2.605   0.927   4.596
 9667WAT    HW229001   2.460   0.893   4.573
 9668WAT     OW29002   2.600   2.277   1.204
 9668WAT    HW129003   2.529   2.325   1.163
 9668WAT    HW229004   2.607   2.195   1.155
 9669WAT     OW29005   5.305   5.003   1.951
 9669WAT    HW129006   5.381   5.019   2.007
 9669WAT    HW229007   5.230   5.022   2.008
 9670WAT     OW29008   4.307   1.429   2.675
 9670WAT    HW129009   4.267   1.415   2.589
 9670WAT    HW229010   4.384   1.372   2.675
 9671WAT     OW29011   0.777   5.550   0.748
 9671WAT    HW129012   0.745   5.633   0.712
 9671WAT    HW229013   0.840   5.518   0.683
 9672WAT     OW29014   2.718   2.589   5.302
 9672WAT    HW129015   2.750   2.502   5.280
 9672WAT    HW229016   2.657   2.575   5.374
 9673WAT     OW29017   0.517   5.015   2.080
 9673WAT    HW129018   0.445   5.067   2.045
 9673WAT    HW229019   0.566   5.075   2.136
 9674WAT     OW29020   6.136   3.499   3.538
 9674WAT    HW129021   6.186   3.580   3.528
 9674WAT    HW229022   6.051   3.528   3.570
 9675WAT     OW29023   4.595   1.611   3.223
 9675WAT    HW129024   4.569   1.661   3.301
 9675WAT    HW229025   4.668   1.660   3.187
 9676WAT     OW29026   1.387   1.201   6.620
 9676WAT    HW129027   1.414   1.149   6.696
 9676WAT    HW229028   1.333   1.271   6.657
 9677WAT     OW29029   1.718   0.701   5.170
 9677WAT    HW129030   1.662   0.698   5.248
 9677WAT    HW229031   1.711   0.613   5.132
 9678WAT     OW29032   2.800   4.821   1.017
 9678WAT    HW129033   2.828   4.829   1.108
 9678WAT    HW229034   2.706   4.805   1.022
 9679WAT     OW29035   0.176   1.464   1.463
 9679WAT    HW129036   0.268   1.487   1.450
 9679WAT    HW229037   0.171   1.435   1.554
 9680WAT     OW29038   4.235   6.168   1.275
 9680WAT    HW129039   4.314   6.151   1.224
 9680WAT    HW229040   4.189   6.236   1.227
 9681WAT     OW29041   0.674   4.548   0.883
 9681WAT    HW129042   0.644   4.635   0.911
 9681WAT    HW229043   0.764   4.563   0.854
 9682WAT     OW29044   4.849   2.390   4.689
 9682WAT    HW129045   4.826   2.429   4.605
 9682WAT    HW229046   4.932   2.346   4.673
 9683WAT     OW29047   6.337   0.776   3.043
 9683WAT    HW129048   6.419   0.808   3.007
 9683WAT    HW229049   6.307   0.710   2.981
 9684WAT     OW29050   0.660   1.008   3.892
 9684WAT    HW129051   0.615   0.948   3.832
 9684WAT    HW229052   0.591   1.065   3.925
 9685WAT     OW29053   2.911   3.873   6.185
 9685WAT    HW129054   3.006   3.872   6.177
 9685WAT    HW229055   2.891   3.956   6.228
 9686WAT     OW29056   1.873   4.760   5.996
 9686WAT    HW129057   1.918   4.680   6.022
 9686WAT    HW229058   1.886   4.820   6.069
 9687WAT     OW29059   2.018   3.192   1.120
 9687WAT    HW129060   1.956   3.238   1.064
 9687WAT    HW229061   1.977   3.195   1.207
 9688WAT     OW29062   6.175   1.842   3.796
 9688WAT    HW129063   6.260   1.806   3.768
 9688WAT    HW229064   6.110   1.786   3.754
 9689WAT     OW29065   5.166   1.116   2.595
 9689WAT    HW129066   5.080   1.139   2.630
 9689WAT    HW229067   5.216   1.198   2.597
 9690WAT     OW29068   5.392   5.328   6.527
 9690WAT    HW129069   5.318   5.339   6.586
 9690WAT    HW229070   5.391   5.406   6.472
 9691WAT     OW29071   1.082   3.793   0.690
 9691WAT    HW129072   0.989   3.772   0.687
 9691WAT    HW229073   1.122   3.718   0.733
 9692WAT     OW29074   5.439   1.819   6.685
 9692WAT    HW129075   5.474   1.780   6.765
 9692WAT    HW229076   5.509   1.812   6.621
 9693WAT     OW29077   4.149   4.737   3.035
 9693WAT    HW129078   4.096   4.721   2.956
 9693WAT    HW229079   4.095   4.796   3.087
 9694WAT     OW29080   1.153   4.304   3.402
 9694WAT    HW129081   1.079   4.301   3.462
 9694WAT    HW229082   1.115   4.333   3.319
 9695WAT     OW29083   4.818   5.083   0.545
 9695WAT    HW129084   4.912   5.100   0.552
 9695WAT    HW229085   4.777   5.169   0.557
 9696WAT     OW29086   1.988   2.309   5.728
 9696WAT    HW129087   1.996   2.378   5.794
 9696WAT    HW229088   2.035   2.235   5.766
 9697WAT     OW29089   0.585   0.390   5.111
 9697WAT    HW129090   0.604   0.339   5.032
 9697WAT    HW229091   0.670   0.413   5.147
 9698WAT     OW29092   4.666   0.280   1.798
 9698WAT    HW129093   4.746   0.228   1.794
 9698WAT    HW229094   4.615   0.252   1.722
 9699WAT     OW29095   3.691   6.401   4.590
 9699WAT    HW129096   3.708   6.408   4.684
 9699WAT    HW229097   3.685   6.491   4.559
 9700WAT     OW29098   6.006   0.725   1.083
 9700WAT    HW129099   5.976   0.667   1.013
 9700WAT    HW229100   6.102   0.721   1.078
 9701WAT     OW29101   1.917   6.693   2.564
 9701WAT    HW129102   1.846   6.629   2.550
 9701WAT    HW229103   1.909   6.754   2.491
 9702WAT     OW29104   5.169   2.250   2.446
 9702WAT    HW129105   5.207   2.168   2.415
 9702WAT    HW229106   5.101   2.223   2.508
 9703WAT     OW29107   3.237   0.123   2.527
 9703WAT    HW129108   3.233   0.180   2.451
 9703WAT    HW229109   3.166   0.060   2.514
 9704WAT     OW29110   1.682   4.797   5.814
 9704WAT    HW129111   1.716   4.764   5.731
 9704WAT    HW229112   1.751   4.778   5.878
 9705WAT     OW29113   5.924   5.137   1.985
 9705WAT    HW129114   5.908   5.101   1.898
 9705WAT    HW229115   5.958   5.064   2.036
 9706WAT     OW29116   4.956   6.520   1.658
 9706WAT    HW129117   4.940   6.433   1.620
 9706WAT    HW229118   4.903   6.579   1.604
 9707WAT     OW29119   0.475   6.538   4.872
 9707WAT    HW129120   0.415   6.503   4.938
 9707WAT    HW229121   0.470   6.633   4.882
 9708WAT     OW29122   2.626   0.956   1.747
 9708WAT    HW129123   2.549   0.918   1.705
 9708WAT    HW229124   2.611   0.941   1.841
 9709WAT     OW29125   1.721   0.626   2.464
 9709WAT    HW129126   1.759   0.690   2.405
 9709WAT    HW229127   1.692   0.677   2.540
 9710WAT     OW29128   2.909   3.152   5.926
 9710WAT    HW129129   2.884   3.227   5.980
 9710WAT    HW229130   2.895   3.076   5.981
 9711WAT     OW29131   5.363   1.647   1.638
 9711WAT    HW129132   5.371   1.560   1.675
 9711WAT    HW229133   5.449   1.665   1.599
 9712WAT     OW29134   2.999   4.192   5.200
 9712WAT    HW129135   2.975   4.236   5.118
 9712WAT    HW229136   2.917   4.157   5.233
 9713WAT     OW29137   2.096   3.841   3.626
 9713WAT    HW129138   2.180   3.855   3.582
 9713WAT    HW229139   2.105   3.755   3.667
 9714WAT     OW29140   0.013   3.815   1.723
 9714WAT    HW129141  -0.052   3.774   1.666
 9714WAT    HW229142  -0.015   3.791   1.811
 9715WAT     OW29143   2.700   1.996   3.793
 9715WAT    HW129144   2.775   2.050   3.768
 9715WAT    HW229145   2.652   1.983   3.711
 9716WAT     OW29146   3.449   4.832   4.507
 9716WAT    HW129147   3.485   4.747   4.482
 9716WAT    HW229148   3.454   4.884   4.426
 9717WAT     OW29149   4.861   4.809   2.456
 9717WAT    HW129150   4.773   4.846   2.465
 9717WAT    HW229151   4.898   4.812   2.544
 9718WAT     OW29152   4.429   6.107   1.097
 9718WAT    HW129153   4.513   6.102   1.052
 9718WAT    HW229154   4.370   6.054   1.043
 9719WAT     OW29155   5.229   1.300   0.246
 9719WAT    HW129156   5.223   1.208   0.274
 9719WAT    HW229157   5.267   1.345   0.322
 9720WAT     OW29158   1.382   3.643   3.886
 9720WAT    HW129159   1.465   3.690   3.876
 9720WAT    HW229160   1.396   3.586   3.962
 9721WAT     OW29161   4.731   6.020   4.929
 9721WAT    HW129162   4.766   5.932   4.915
 9721WAT    HW229163   4.641   6.005   4.960
 9722WAT     OW29164   5.688   3.456   0.626
 9722WAT    HW129165   5.745   3.533   0.618
 9722WAT    HW229166   5.745   3.387   0.659
 9723WAT     OW29167   5.334   0.759   0.723
 9723WAT    HW129168   5.329   0.718   0.809
 9723WAT    HW229169   5.372   0.845   0.739
 9724WAT     OW29170   2.036   0.700   3.115
 9724WAT    HW129171   2.028   0.784   3.160
 9724WAT    HW229172   1.950   0.659   3.125
 9725WAT     OW29173   1.232   5.294   6.658
 9725WAT    HW129174   1.168   5.333   6.599
 9725WAT    HW229175   1.181   5.274   6.737
 9726WAT     OW29176   2.293   5.519   6.052
 9726WAT    HW129177   2.346   5.595   6.076
 9726WAT    HW229178   2.356   5.457   6.015
 9727WAT     OW29179   1.538   1.119   1.718
 9727WAT    HW129180   1.542   1.105   1.624
 9727WAT    HW229181   1.562   1.035   1.756
 9728WAT     OW29182   5.721   2.384   0.565
 9728WAT    HW129183   5.802   2.354   0.524
 9728WAT    HW229184   5.709   2.326   0.641
 9729WAT     OW29185   2.578   0.225   5.271
 9729WAT    HW129186   2.605   0.299   5.216
 9729WAT    HW229187   2.652   0.164   5.269
 9730WAT     OW29188   0.087   0.881   1.069
 9730WAT    HW129189   0.139   0.933   1.130
 9730WAT    HW229190   0.009   0.934   1.052
 9731WAT     OW29191   4.953   3.960   4.841
 9731WAT    HW129192   5.037   4.007   4.842
 9731WAT    HW229193   4.977   3.868   4.825
 9732WAT     OW29194   6.381   2.184   1.663
 9732WAT    HW129195   6.365   2.264   1.713
 9732WAT    HW229196   6.463   2.150   1.700
 9733WAT     OW29197   1.383   4.950   4.088
 9733WAT    HW129198   1.309   4.921   4.141
 9733WAT    HW229199   1.381   4.895   4.010
 9734WAT     OW29200   0.946   4.441   1.174
 9734WAT    HW129201   0.858   4.404   1.174
 9734WAT    HW229202   0.934   4.530   1.208
 9735WAT     OW29203   0.935   3.783   5.422
 9735WAT    HW129204   0.920   3.846   5.352
 9735WAT    HW229205   0.847   3.754   5.446
 9736WAT     OW29206   1.311   1.830   2.302
 9736WAT    HW129207   1.355   1.898   2.354
 9736WAT    HW229208   1.372   1.756   2.304
 9737WAT     OW29209   5.104   5.466   1.547
 9737WAT    HW129210   5.037   5.523   1.584
 9737WAT    HW229211   5.056   5.389   1.516
 9738WAT     OW29212   2.484   6.315   1.508
 9738WAT    HW129213   2.477   6.344   1.417
 9738WAT    HW229214   2.578   6.321   1.527
 9739WAT     OW29215   2.681   3.727   1.977
 9739WAT    HW129216   2.711   3.735   1.886
 9739WAT    HW229217   2.760   3.741   2.030
 9740WAT     OW29218   5.802   5.273   5.392
 9740WAT    HW129219   5.783   5.352   5.340
 9740WAT    HW229220   5.856   5.219   5.335
 9741WAT     OW29221   0.995   5.012   4.366
 9741WAT    HW129222   0.924   4.970   4.415
 9741WAT    HW229223   1.048   5.055   4.433
 9742WAT     OW29224   6.063   1.400   6.185
 9742WAT    HW129225   6.016   1.336   6.132
 9742WAT    HW229226   6.100   1.350   6.258
 9743WAT     OW29227   1.768   5.066   5.872
 9743WAT    HW129228   1.713   4.989   5.857
 9743WAT    HW229229   1.852   5.043   5.832
 9744WAT     OW29230   5.998   0.698   4.767
 9744WAT    HW129231   6.023   0.789   4.754
 9744WAT    HW229232   5.926   0.701   4.830
 9745WAT     OW29233   1.306   1.113   5.276
 9745WAT    HW129234   1.374   1.139   5.339
 9745WAT    HW229235   1.356   1.087   5.198
 9746WAT     OW29236   3.151   2.829   4.075
 9746WAT    HW129237   3.107   2.885   4.011
 9746WAT    HW229238   3.098   2.837   4.155
 9747WAT     OW29239   1.169   4.582   2.225
 9747WAT    HW129240   1.169   4.553   2.316
 9747WAT    HW229241   1.258   4.566   2.195
 9748WAT     OW29242   4.017   6.076   4.311
 9748WAT    HW129243   3.959   6.120   4.374
 9748WAT    HW229244   4.099   6.125   4.315
 9749WAT     OW29245   2.477   2.369   1.439
 9749WAT    HW129246   2.532   2.350   1.363
 9749WAT    HW229247   2.411   2.300   1.439
 9750WAT     OW29248   2.295   2.864   4.315
 9750WAT    HW129249   2.247   2.947   4.312
 9750WAT    HW229250   2.257   2.816   4.388
 9751WAT     OW29251   4.808   6.197   0.101
 9751WAT    HW129252   4.784   6.132   0.167
 9751WAT    HW229253   4.780   6.280   0.138
 9752WAT     OW29254   0.937   2.677   1.194
 9752WAT    HW129255   0.973   2.765   1.185
 9752WAT    HW229256   0.978   2.643   1.273
 9753WAT     OW29257   3.717   2.824   4.826
 9753WAT    HW129258   3.789   2.797   4.769
 9753WAT    HW229259   3.638   2.803   4.776
 9754WAT     OW29260   5.784   6.105   3.033
 9754WAT    HW129261   5.794   6.184   2.980
 9754WAT    HW229262   5.843   6.042   2.992
 9755WAT     OW29263   2.503   1.264   3.905
 9755WAT    HW129264   2.487   1.275   3.999
 9755WAT    HW229265   2.565   1.191   3.900
 9756WAT     OW29266   3.917   2.994   3.642
 9756WAT    HW129267   3.881   3.061   3.584
 9756WAT    HW229268   3.846   2.930   3.653
 9757WAT     OW29269   5.547   0.385   0.992
 9757WAT    HW129270   5.524   0.447   1.062
 9757WAT    HW229271   5.526   0.299   1.028
 9758WAT     OW29272   6.619   0.349   4.830
 9758WAT    HW129273   6.645   0.410   4.761
 9758WAT    HW229274   6.688   0.282   4.830
 9759WAT     OW29275   3.083   0.223   3.569
 9759WAT    HW129276   3.045   0.299   3.525
 9759WAT    HW229277   3.162   0.257   3.611
 9760WAT     OW29278   5.167   1.433   0.009
 9760WAT    HW129279   5.121   1.516   0.020
 9760WAT    HW229280   5.178   1.399   0.098
 9761WAT     OW29281   2.013   5.782   0.223
 9761WAT    HW129282   2.009   5.851   0.290
 9761WAT    HW229283   1.937   5.726   0.242
 9762WAT     OW29284   6.012   2.792   3.480
 9762WAT    HW129285   6.061   2.785   3.562
 9762WAT    HW229286   5.934   2.842   3.502
 9763WAT     OW29287   6.709   4.519   1.505
 9763WAT    HW129288   6.726   4.463   1.581
 9763WAT    HW229289   6.727   4.608   1.535
 9764WAT     OW29290   4.225   1.716   0.424
 9764WAT    HW129291   4.287   1.671   0.366
 9764WAT    HW229292   4.281   1.758   0.489
 9765WAT     OW29293   5.453   6.092   2.546
 9765WAT    HW129294   5.421   6.120   2.460
 9765WAT    HW229295   5.444   5.997   2.546
 9766WAT     OW29296   5.800   2.150   0.085
 9766WAT    HW129297   5.774   2.198   0.006
 9766WAT    HW229298   5.866   2.205   0.126
 9767WAT     OW29299   3.135   3.482   2.972
 9767WAT    HW129300   3.125   3.421   3.045
 9767WAT    HW229301   3.091   3.562   3.002
 9768WAT     OW29302   2.875   1.391   5.663
 9768WAT    HW129303   2.963   1.356   5.677
 9768WAT    HW229304   2.817   1.316   5.671
 9769WAT     OW29305   2.751   1.576   5.507
 9769WAT    HW129306   2.709   1.632   5.572
 9769WAT    HW229307   2.797   1.510   5.559
 9770WAT     OW29308   4.455   1.920   2.524
 9770WAT    HW129309   4.487   2.011   2.527
 9770WAT    HW229310   4.406   1.914   2.442
 9771WAT     OW29311   4.527   5.888   2.716
 9771WAT    HW129312   4.556   5.932   2.636
 9771WAT    HW229313   4.481   5.810   2.685
 9772WAT     OW29314   4.275   4.817   0.114
 9772WAT    HW129315   4.365   4.833   0.140
 9772WAT    HW229316   4.268   4.855   0.027
 9773WAT     OW29317   4.533   6.692   1.474
 9773WAT    HW129318   4.515   6.769   1.528
 9773WAT    HW229319   4.504   6.718   1.386
 9774WAT     OW29320   3.930   1.520   0.256
 9774WAT    HW129321   3.977   1.555   0.180
 9774WAT    HW229322   3.838   1.540   0.238
 9775WAT     OW29323   0.356   1.428   5.702
 9775WAT    HW129324   0.366   1.404   5.794
 9775WAT    HW229325   0.440   1.467   5.677
 9776WAT     OW29326   6.617   3.387   5.189
 9776WAT    HW129327   6.541   3.359   5.240
 9776WAT    HW229328   6.689   3.333   5.221
 9777WAT     OW29329   3.216   5.319   4.284
 9777WAT    HW129330   3.308   5.341   4.271
 9777WAT    HW229331   3.218   5.233   4.327
 9778WAT     OW29332   5.333   0.046   4.908
 9778WAT    HW129333   5.292   0.075   4.826
 9778WAT    HW229334   5.290   0.097   4.976
 9779WAT     OW29335   6.571   0.524   5.696
 9779WAT    HW129336   6.563   0.522   5.600
 9779WAT    HW229337   6.482   0.545   5.726
 9780WAT     OW29338   5.330   3.435   1.888
 9780WAT    HW129339   5.369   3.440   1.975
 9780WAT    HW229340   5.291   3.521   1.874
 9781WAT     OW29341   6.485   3.739   3.956
 9781WAT    HW129342   6.431   3.770   4.029
 9781WAT    HW229343   6.569   3.783   3.967
 9782WAT     OW29344   4.654   4.092   3.898
 9782WAT    HW129345   4.581   4.031   3.887
 9782WAT    HW229346   4.614   4.171   3.933
 9783WAT     OW29347   5.288   6.504   4.954
 9783WAT    HW129348   5.207   6.495   4.905
 9783WAT    HW229349   5.317   6.593   4.937
 9784WAT     OW29350   2.741   2.087   1.507
 9784WAT    HW129351   2.787   2.078   1.590
 9784WAT    HW229352   2.770   2.172   1.472
 9785WAT     OW29353   4.437   1.806   4.185
 9785WAT    HW129354   4.467   1.893   4.210
 9785WAT    HW229355   4.354   1.795   4.231
 9786WAT     OW29356   3.246   0.130   5.828
 9786WAT    HW129357   3.187   0.056   5.843
 9786WAT    HW229358   3.187   0.204   5.809
 9787WAT     OW29359   3.878   3.948   2.320
 9787WAT    HW129360   3.878   3.979   2.410
 9787WAT    HW229361   3.807   3.884   2.316
 9788WAT     OW29362   2.526   5.761   3.921
 9788WAT    HW129363   2.591   5.776   3.990
 9788WAT    HW229364   2.499   5.849   3.895
 9789WAT     OW29365   2.422   1.832   5.800
 9789WAT    HW129366   2.377   1.902   5.753
 9789WAT    HW229367   2.356   1.796   5.859
 9790WAT     OW29368   3.718   4.147   1.900
 9790WAT    HW129369   3.717   4.241   1.919
 9790WAT    HW229370   3.632   4.129   1.864
 9791WAT     OW29371   3.490   4.830   1.049
 9791WAT    HW129372   3.456   4.751   1.006
 9791WAT    HW229373   3.530   4.880   0.978
 9792WAT     OW29374   6.393   3.325   0.451
 9792WAT    HW129375   6.389   3.420   0.442
 9792WAT    HW229376   6.328   3.292   0.390
 9793WAT     OW29377   5.255   0.991   1.156
 9793WAT    HW129378   5.204   0.920   1.196
 9793WAT    HW229379   5.210   1.009   1.073
 9794WAT     OW29380   1.746   5.435   2.077
 9794WAT    HW129381   1.669   5.441   2.021
 9794WAT    HW229382   1.808   5.382   2.027
 9795WAT     OW29383   3.890   5.890   2.260
 9795WAT    HW129384   3.883   5.896   2.355
 9795WAT    HW229385   3.808   5.928   2.227
 9796WAT     OW29386   4.154   1.042   0.333
 9796WAT    HW129387   4.132   1.044   0.426
 9796WAT    HW229388   4.128   1.127   0.300
 9797WAT     OW29389   2.688   5.909   4.501
 9797WAT    HW129390   2.627   5.900   4.428
 9797WAT    HW229391   2.728   5.822   4.510
 9798WAT     OW29392   6.586   3.144   0.541
 9798WAT    HW129393   6.673   3.185   0.537
 9798WAT    HW229394   6.528   3.208   0.500
 9799WAT     OW29395   6.040   2.980   1.787
 9799WAT    HW129396   6.046   3.015   1.876
 9799WAT    HW229397   5.983   3.042   1.741
 9800WAT     OW29398   1.685   1.678   6.426
 9800WAT    HW129399   1.749   1.643   6.364
 9800WAT    HW229400   1.610   1.618   6.421
 9801WAT     OW29401   0.466   2.829   0.859
 9801WAT    HW129402   0.396   2.802   0.918
 9801WAT    HW229403   0.529   2.757   0.862
 9802WAT     OW29404   0.904   3.917   3.489
 9802WAT    HW129405   0.840   3.979   3.453
 9802WAT    HW229406   0.854   3.861   3.547
 9803WAT     OW29407   6.052   4.337   5.905
 9803WAT    HW129408   6.065   4.369   5.815
 9803WAT    HW229409   6.123   4.274   5.919
 9804WAT     OW29410   4.114   3.562   4.172
 9804WAT    HW129411   4.068   3.493   4.219
 9804WAT    HW229412   4.175   3.598   4.236
 9805WAT     OW29413   0.867   5.782   1.205
 9805WAT    HW129414   0.850   5.711   1.143
 9805WAT    HW229415   0.955   5.813   1.181
 9806WAT     OW29416   6.243   4.091   0.110
 9806WAT    HW129417   6.230   4.030   0.183
 9806WAT    HW229418   6.154   4.112   0.081
 9807WAT     OW29419   2.543   1.280   6.579
 9807WAT    HW129420   2.546   1.191   6.615
 9807WAT    HW229421   2.497   1.331   6.645
 9808WAT     OW29422   2.600   3.889   0.365
 9808WAT    HW129423   2.532   3.899   0.298
 9808WAT    HW229424   2.554   3.904   0.448
 9809WAT     OW29425   4.522   1.858   2.105
 9809WAT    HW129426   4.591   1.806   2.146
 9809WAT    HW229427   4.523   1.831   2.014
 9810WAT     OW29428   4.110   2.053   5.578
 9810WAT    HW129429   4.142   1.967   5.550
 9810WAT    HW229430   4.081   2.039   5.668
 9811WAT     OW29431   5.179   5.109   1.204
 9811WAT    HW129432   5.223   5.194   1.197
 9811WAT    HW229433   5.219   5.067   1.280
 9812WAT     OW29434   6.099   2.757   4.487
 9812WAT    HW129435   6.105   2.852   4.501
 9812WAT    HW229436   6.048   2.748   4.407
 9813WAT     OW29437   2.950   1.685   1.853
 9813WAT    HW129438   2.880   1.745   1.878
 9813WAT    HW229439   2.967   1.634   1.933
 9814WAT     OW29440   2.838   2.283   0.298
 9814WAT    HW129441   2.831   2.348   0.229
 9814WAT    HW229442   2.818   2.200   0.255
 9815WAT     OW29443   3.365   5.784   2.933
 9815WAT    HW129444   3.409   5.834   3.002
 9815WAT    HW229445   3.303   5.845   2.894
 9816WAT     OW29446   4.354   0.293   3.850
 9816WAT    HW129447   4.333   0.213   3.899
 9816WAT    HW229448   4.449   0.290   3.840
 9817WAT     OW29449   2.391   5.544   3.827
 9817WAT    HW129450   2.436   5.625   3.851
 9817WAT    HW229451   2.335   5.525   3.902
 9818WAT     OW29452   0.215   3.573   4.722
 9818WAT    HW129453   0.154   3.631   4.767
 9818WAT    HW229454   0.298   3.620   4.721
 9819WAT     OW29455   1.153   1.852   0.175
 9819WAT    HW129456   1.243   1.884   0.180
 9819WAT    HW229457   1.120   1.863   0.264
 9820WAT     OW29458   5.832   5.796   4.715
 9820WAT    HW129459   5.845   5.853   4.639
 9820WAT    HW229460   5.917   5.756   4.731
 9821WAT     OW29461   3.549   3.324   1.501
 9821WAT    HW129462   3.514   3.342   1.414
 9821WAT    HW229463   3.604   3.247   1.489
 9822WAT     OW29464   2.023   5.165   4.587
 9822WAT    HW129465   2.074   5.092   4.623
 9822WAT    HW229466   2.056   5.242   4.633
 9823WAT     OW29467   0.144   2.233   6.306
 9823WAT    HW129468   0.105   2.146   6.307
 9823WAT    HW229469   0.143   2.259   6.214
 9824WAT     OW29470   2.507   2.234   4.389
 9824WAT    HW129471   2.598   2.223   4.416
 9824WAT    HW229472   2.510   2.245   4.294
 9825WAT     OW29473   0.114   3.358   5.640
 9825WAT    HW129474   0.173   3.306   5.586
 9825WAT    HW229475   0.170   3.393   5.709
 9826WAT     OW29476   4.814   5.479   5.601
 9826WAT    HW129477   4.748   5.535   5.640
 9826WAT    HW229478   4.804   5.394   5.644
 9827WAT     OW29479   3.455   0.791   4.799
 9827WAT    HW129480   3.432   0.884   4.792
 9827WAT    HW229481   3.410   0.762   4.878
 9828WAT     OW29482   5.757   2.805   1.154
 9828WAT    HW129483   5.729   2.756   1.077
 9828WAT    HW229484   5.814   2.745   1.201
 9829WAT     OW29485   0.289   3.103   6.056
 9829WAT    HW129486   0.301   3.198   6.058
 9829WAT    HW229487   0.294   3.076   6.147
 9830WAT     OW29488   2.994   5.345   1.038
 9830WAT    HW129489   3.014   5.420   1.095
 9830WAT    HW229490   3.002   5.380   0.949
 9831WAT     OW29491   3.203   3.992   1.511
 9831WAT    HW129492   3.213   4.082   1.479
 9831WAT    HW229493   3.129   3.996   1.572
 9832WAT     OW29494   2.809   5.360   4.806
 9832WAT    HW129495   2.839   5.396   4.723
 9832WAT    HW229496   2.825   5.266   4.798
 9833WAT     OW29497   2.719   4.353   6.327
 9833WAT    HW129498   2.773   4.404   6.388
 9833WAT    HW229499   2.712   4.409   6.250
 9834WAT     OW29500   6.554   1.573   2.531
 9834WAT    HW129501   6.512   1.659   2.530
 9834WAT    HW229502   6.484   1.512   2.507
 9835WAT     OW29503   2.850   4.515   6.507
 9835WAT    HW129504   2.834   4.585   6.444
 9835WAT    HW229505   2.874   4.561   6.588
 9836WAT     OW29506   1.694   0.146   0.810
 9836WAT    HW129507   1.745   0.139   0.891
 9836WAT    HW229508   1.696   0.239   0.788
 9837WAT     OW29509   5.093   6.189   1.162
 9837WAT    HW129510   5.164   6.191   1.098
 9837WAT    HW229511   5.107   6.267   1.216
 9838WAT     OW29512   2.067   0.425   2.680
 9838WAT    HW129513   2.145   0.432   2.625
 9838WAT    HW229514   2.088   0.477   2.757
 9839WAT     OW29515   3.950   6.597   2.612
 9839WAT    HW129516   3.962   6.660   2.542
 9839WAT    HW229517   3.891   6.640   2.674
 9840WAT     OW29518   4.758   6.490   5.540
 9840WAT    HW129519   4.756   6.446   5.455
 9840WAT    HW229520   4.670   6.477   5.575
 9841WAT     OW29521   3.485   2.750   4.698
 9841WAT    HW129522   3.473   2.655   4.701
 9841WAT    HW229523   3.398   2.786   4.718
 9842WAT     OW29524   5.825   2.675   3.153
 9842WAT    HW129525   5.770   2.701   3.227
 9842WAT    HW229526   5.859   2.758   3.119
 9843WAT     OW29527   4.547   5.130   4.195
 9843WAT    HW129528   4.455   5.154   4.200
 9843WAT    HW229529   4.555   5.054   4.253
 9844WAT     OW29530   3.957   4.370   2.317
 9844WAT    HW129531   4.002   4.286   2.311
 9844WAT    HW229532   4.016   4.432   2.274
 9845WAT     OW29533   6.099   3.925   3.313
 9845WAT    HW129534   6.128   3.860   3.249
 9845WAT    HW229535   6.040   3.877   3.371
 9846WAT     OW29536   3.955   3.355   0.747
 9846WAT    HW129537   3.892   3.367   0.676
 9846WAT    HW229538   3.984   3.264   0.738
 9847WAT     OW29539   2.879   5.748   0.378
 9847WAT    HW129540   2.800   5.697   0.396
 9847WAT    HW229541   2.853   5.808   0.307
 9848WAT     OW29542   0.646   2.543   4.042
 9848WAT    HW129543   0.720   2.541   4.102
 9848WAT    HW229544   0.605   2.457   4.050
 9849WAT     OW29545   5.934   3.807   3.502
 9849WAT    HW129546   5.925   3.719   3.539
 9849WAT    HW229547   5.844   3.834   3.484
 9850WAT     OW29548   4.447   2.938   1.969
 9850WAT    HW129549   4.401   2.889   1.901
 9850WAT    HW229550   4.525   2.886   1.987
 9851WAT     OW29551   1.960   0.823   6.122
 9851WAT    HW129552   1.914   0.900   6.153
 9851WAT    HW229553   1.978   0.841   6.029
 9852WAT     OW29554   0.045   5.303   4.690
 9852WAT    HW129555   0.083   5.218   4.670
 9852WAT    HW229556   0.035   5.345   4.605
 9853WAT     OW29557   1.627   1.040   3.987
 9853WAT    HW129558   1.627   0.976   4.059
 9853WAT    HW229559   1.555   1.012   3.931
 9854WAT     OW29560   2.779   6.721   6.692
 9854WAT    HW129561   2.863   6.765   6.679
 9854WAT    HW229562   2.800   6.628   6.686
 9855WAT     OW29563   4.675   4.227   3.532
 9855WAT    HW129564   4.769   4.211   3.542
 9855WAT    HW229565   4.636   4.139   3.532
 9856WAT     OW29566   2.522   1.854   3.294
 9856WAT    HW129567   2.441   1.841   3.246
 9856WAT    HW229568   2.590   1.858   3.227
 9857WAT     OW29569   2.580   2.957   2.661
 9857WAT    HW129570   2.642   2.995   2.599
 9857WAT    HW229571   2.584   2.863   2.644
 9858WAT     OW29572   3.858   6.023   4.725
 9858WAT    HW129573   3.943   6.067   4.729
 9858WAT    HW229574   3.872   5.941   4.772
 9859WAT     OW29575   5.627   5.711   5.217
 9859WAT    HW129576   5.556   5.672   5.268
 9859WAT    HW229577   5.659   5.783   5.272
 9860WAT     OW29578   2.379   2.712   4.108
 9860WAT    HW129579   2.361   2.772   4.181
 9860WAT    HW229580   2.295   2.671   4.090
 9861WAT     OW29581   6.531   6.075   6.287
 9861WAT    HW129582   6.535   5.999   6.229
 9861WAT    HW229583   6.458   6.127   6.254
 9862WAT     OW29584   1.303   2.914   5.839
 9862WAT    HW129585   1.228   2.934   5.782
 9862WAT    HW229586   1.354   2.850   5.789
 9863WAT     OW29587   3.016   4.793   4.752
 9863WAT    HW129588   3.112   4.788   4.743
 9863WAT    HW229589   3.002   4.853   4.825
 9864WAT     OW29590   6.529   5.017   5.537
 9864WAT    HW129591   6.602   4.956   5.549
 9864WAT    HW229592   6.569   5.098   5.507
 9865WAT     OW29593   4.786   1.796   3.969
 9865WAT    HW129594   4.808   1.848   4.046
 9865WAT    HW229595   4.710   1.841   3.931
 9866WAT     OW29596   4.260   6.244   4.556
 9866WAT    HW129597   4.332   6.184   4.578
 9866WAT    HW229598   4.250   6.234   4.461
 9867WAT     OW29599   4.361   5.927   2.073
 9867WAT    HW129600   4.378   5.838   2.041
 9867WAT    HW229601   4.266   5.935   2.071
 9868WAT     OW29602   3.832   4.847   2.330
 9868WAT    HW129603   3.824   4.752   2.323
 9868WAT    HW229604   3.772   4.871   2.401
 9869WAT     OW29605   3.322   2.691   5.849
 9869WAT    HW129606   3.266   2.614   5.839
 9869WAT    HW229607   3.292   2.751   5.781
 9870WAT     OW29608   2.624   5.310   2.434
 9870WAT    HW129609   2.598   5.257   2.359
 9870WAT    HW229610   2.574   5.391   2.425
 9871WAT     OW29611   3.309   6.501   5.693
 9871WAT    HW129612   3.348   6.444   5.626
 9871WAT    HW229613   3.232   6.454   5.723
 9872WAT     OW29614   4.946   4.204   6.501
 9872WAT    HW129615   4.895   4.141   6.552
 9872WAT    HW229616   5.037   4.183   6.522
 9873WAT     OW29617   1.175   0.962   1.044
 9873WAT    HW129618   1.089   1.002   1.035
 9873WAT    HW229619   1.200   0.978   1.135
 9874WAT     OW29620   6.679   6.419   4.803
 9874WAT    HW129621   6.608   6.358   4.784
 9874WAT    HW229622   6.699   6.404   4.896
 9875WAT     OW29623   5.208   6.388   6.254
 9875WAT    HW129624   5.230   6.383   6.347
 9875WAT    HW229625   5.154   6.311   6.238
 9876WAT     OW29626   0.572   1.917   6.286
 9876WAT    HW129627   0.537   1.993   6.240
 9876WAT    HW229628   0.497   1.861   6.302
 9877WAT     OW29629   5.461   1.825   5.866
 9877WAT    HW129630   5.456   1.918   5.890
 9877WAT    HW229631   5.555   1.804   5.872
 9878WAT     OW29632   3.146   4.964   3.375
 9878WAT    HW129633   3.077   4.910   3.413
 9878WAT    HW229634   3.188   5.006   3.450
 9879WAT     OW29635   6.667   5.255   5.466
 9879WAT    HW129636   6.686   5.313   5.541
 9879WAT    HW229637   6.602   5.303   5.415
 9880WAT     OW29638   5.965   2.307   2.948
 9880WAT    HW129639   5.997   2.376   3.006
 9880WAT    HW229640   6.027   2.306   2.875
 9881WAT     OW29641   5.672   1.982   2.841
 9881WAT    HW129642   5.698   2.024   2.922
 9881WAT    HW229643   5.712   1.895   2.846
 9882WAT     OW29644   4.035   6.089   3.906
 9882WAT    HW129645   4.074   6.092   3.819
 9882WAT    HW229646   4.052   6.000   3.936
 9883WAT     OW29647   1.463   4.280   1.140
 9883WAT    HW129648   1.451   4.188   1.116
 9883WAT    HW229649   1.376   4.309   1.167
 9884WAT     OW29650   6.010   0.310   1.620
 9884WAT    HW129651   5.969   0.349   1.698
 9884WAT    HW229652   6.076   0.250   1.655
 9885WAT     OW29653   2.120   5.871   3.778
 9885WAT    HW129654   2.092   5.801   3.718
 9885WAT    HW229655   2.076   5.851   3.860
 9886WAT     OW29656   4.287   0.228   3.066
 9886WAT    HW129657   4.308   0.240   2.974
 9886WAT    HW229658   4.371   0.235   3.111
 9887WAT     OW29659   2.462   2.710   6.173
 9887WAT    HW129660   2.485   2.649   6.103
 9887WAT    HW229661   2.367   2.713   6.173
 9888WAT     OW29662   6.361   2.531   4.807
 9888WAT    HW129663   6.296   2.598   4.826
 9888WAT    HW229664   6.311   2.453   4.786
 9889WAT     OW29665   2.344   4.698   4.162
 9889WAT    HW129666   2.281   4.752   4.209
 9889WAT    HW229667   2.425   4.705   4.212
 9890WAT     OW29668   4.219   5.093   1.694
 9890WAT    HW129669   4.265   5.177   1.690
 9890WAT    HW229670   4.232   5.055   1.607
 9891WAT     OW29671   1.489   0.901   6.345
 9891WAT    HW129672   1.453   0.891   6.257
 9891WAT    HW229673   1.509   0.811   6.372
 9892WAT     OW29674   3.337   5.412   2.734
 9892WAT    HW129675   3.279   5.473   2.687
 9892WAT    HW229676   3.333   5.441   2.825
 9893WAT     OW29677   3.077   3.787   2.810
 9893WAT    HW129678   3.094   3.711   2.753
 9893WAT    HW229679   3.062   3.749   2.896
 9894WAT     OW29680   2.444   3.640   4.570
 9894WAT    HW129681   2.534   3.608   4.570
 9894WAT    HW229682   2.451   3.733   4.590
 9895WAT     OW29683   1.613   4.042   4.465
 9895WAT    HW129684   1.670   4.013   4.393
 9895WAT    HW229685   1.526   4.010   4.441
 9896WAT     OW29686   0.129   5.200   3.034
 9896WAT    HW129687   0.126   5.227   3.126
 9896WAT    HW229688   0.052   5.240   2.994
 9897WAT     OW29689   3.975   0.201   2.777
 9897WAT    HW129690   4.046   0.200   2.713
 9897WAT    HW229691   3.923   0.278   2.754
 9898WAT     OW29692   0.280   3.201   5.480
 9898WAT    HW129693   0.302   3.118   5.521
 9898WAT    HW229694   0.365   3.241   5.459
 9899WAT     OW29695   3.792   5.118   5.778
 9899WAT    HW129696   3.815   5.037   5.823
 9899WAT    HW229697   3.861   5.129   5.712
 9900WAT     OW29698   2.993   2.233   5.881
 9900WAT    HW129699   2.909   2.250   5.838
 9900WAT    HW229700   2.972   2.223   5.973
 9901WAT     OW29701   2.078   3.165   0.353
 9901WAT    HW129702   2.140   3.238   0.354
 9901WAT    HW229703   2.134   3.088   0.338
 9902WAT     OW29704   3.102   3.485   6.591
 9902WAT    HW129705   3.122   3.415   6.530
 9902WAT    HW229706   3.037   3.539   6.546
 9903WAT     OW29707   2.892   3.597   3.968
 9903WAT    HW129708   2.938   3.632   4.044
 9903WAT    HW229709   2.954   3.535   3.929
 9904WAT     OW29710   4.030   3.629   3.720
 9904WAT    HW129711   4.046   3.665   3.807
 9904WAT    HW229712   4.117   3.616   3.683
 9905WAT     OW29713   1.814   6.110   1.406
 9905WAT    HW129714   1.743   6.057   1.442
 9905WAT    HW229715   1.892   6.080   1.452
 9906WAT     OW29716   6.356   4.669   2.319
 9906WAT    HW129717   6.325   4.625   2.398
 9906WAT    HW229718   6.277   4.689   2.270
 9907WAT     OW29719   0.008   0.374   4.082
 9907WAT    HW129720   0.017   0.328   4.165
 9907WAT    HW229721  -0.017   0.306   4.019
 9908WAT     OW29722   3.158   2.032   1.390
 9908WAT    HW129723   3.234   1.977   1.414
 9908WAT    HW229724   3.171   2.051   1.297
 9909WAT     OW29725   6.378   1.613   3.229
 9909WAT    HW129726   6.467   1.617   3.195
 9909WAT    HW229727   6.322   1.614   3.152
 9910WAT     OW29728   2.657   1.674   6.403
 9910WAT    HW129729   2.630   1.689   6.313
 9910WAT    HW229730   2.748   1.643   6.395
 9911WAT     OW29731   2.602   2.947   6.207
 9911WAT    HW129732   2.552   2.866   6.196
 9911WAT    HW229733   2.603   2.962   6.302
 9912WAT     OW29734   0.906   4.801   6.693
 9912WAT    HW129735   0.903   4.712   6.659
 9912WAT    HW229736   0.999   4.817   6.710
 9913WAT     OW29737   4.947   2.387   6.096
 9913WAT    HW129738   4.900   2.333   6.031
 9913WAT    HW229739   5.035   2.349   6.100
 9914WAT     OW29740   4.989   0.908   5.814
 9914WAT    HW129741   5.018   0.986   5.862
 9914WAT    HW229742   5.067   0.853   5.807
 9915WAT     OW29743   2.006   6.681   6.386
 9915WAT    HW129744   1.919   6.704   6.418
 9915WAT    HW229745   2.046   6.764   6.363
 9916WAT     OW29746   3.252   1.978   1.876
 9916WAT    HW129747   3.194   1.975   1.952
 9916WAT    HW229748   3.203   1.937   1.806
 9917WAT     OW29749   1.803   5.231   4.438
 9917WAT    HW129750   1.801   5.189   4.352
 9917WAT    HW229751   1.869   5.183   4.488
 9918WAT     OW29752   4.117   5.399   6.098
 9918WAT    HW129753   4.155   5.389   6.011
 9918WAT    HW229754   4.039   5.452   6.083
 9919WAT     OW29755   0.893   0.205   5.073
 9919WAT    HW129756   0.877   0.287   5.121
 9919WAT    HW229757   0.896   0.138   5.140
 9920WAT     OW29758   5.613   3.784   0.099
 9920WAT    HW129759   5.605   3.689   0.091
 9920WAT    HW229760   5.639   3.799   0.190
 9921WAT     OW29761   5.907   3.186   2.455
 9921WAT    HW129762   5.974   3.118   2.453
 9921WAT    HW229763   5.928   3.238   2.532
 9922WAT     OW29764   6.278   0.710   1.031
 9922WAT    HW129765   6.285   0.737   0.939
 9922WAT    HW229766   6.332   0.773   1.078
 9923WAT     OW29767   6.094   3.483   1.011
 9923WAT    HW129768   6.057   3.506   1.096
 9923WAT    HW229769   6.167   3.424   1.031
 9924WAT     OW29770   1.055   6.452   5.063
 9924WAT    HW129771   1.052   6.367   5.019
 9924WAT    HW229772   0.964   6.476   5.077
 9925WAT     OW29773   0.343   6.269   2.351
 9925WAT    HW129774   0.329   6.186   2.396
 9925WAT    HW229775   0.393   6.322   2.412
 9926WAT     OW29776   0.119   5.250   6.148
 9926WAT    HW129777   0.109   5.283   6.059
 9926WAT    HW229778   0.196   5.295   6.182
 9927WAT     OW29779   2.380   0.945   6.213
 9927WAT    HW129780   2.293   0.938   6.251
 9927WAT    HW229781   2.412   1.031   6.241
 9928WAT     OW29782   4.769   0.279   5.321
 9928WAT    HW129783   4.755   0.353   5.380
 9928WAT    HW229784   4.780   0.320   5.234
 9929WAT     OW29785   1.653   0.767   2.690
 9929WAT    HW129786   1.577   0.824   2.682
 9929WAT    HW229787   1.720   0.821   2.733
 9930WAT     OW29788   4.040   0.802   4.469
 9930WAT    HW129789   3.985   0.751   4.410
 9930WAT    HW229790   4.115   0.746   4.486
 9931WAT     OW29791   6.152   2.921   0.685
 9931WAT    HW129792   6.097   2.849   0.652
 9931WAT    HW229793   6.175   2.971   0.607
 9932WAT     OW29794   1.942   5.714   4.513
 9932WAT    HW129795   1.916   5.623   4.523
 9932WAT    HW229796   1.987   5.736   4.594
 9933WAT     OW29797   1.378   1.602   1.979
 9933WAT    HW129798   1.332   1.684   1.996
 9933WAT    HW229799   1.451   1.626   1.922
 9934WAT     OW29800   3.176   5.496   0.370
 9934WAT    HW129801   3.229   5.456   0.300
 9934WAT    HW229802   3.086   5.482   0.342
 9935WAT     OW29803   2.327   0.024   5.711
 9935WAT    HW129804   2.237   0.005   5.738
 9935WAT    HW229805   2.342  -0.033   5.636
 9936WAT     OW29806   1.683   1.707   2.780
 9936WAT    HW129807   1.660   1.634   2.724
 9936WAT    HW229808   1.630   1.780   2.748
 9937WAT     OW29809   4.812   6.397   6.342
 9937WAT    HW129810   4.876   6.413   6.411
 9937WAT    HW229811   4.821   6.474   6.284
 9938WAT     OW29812   2.523   3.266   0.233
 9938WAT    HW129813   2.594   3.324   0.204
 9938WAT    HW229814   2.564   3.212   0.301
 9939WAT     OW29815   5.564   0.724   5.424
 9939WAT    HW129816   5.532   0.677   5.347
 9939WAT    HW229817   5.485   0.752   5.470
 9940WAT     OW29818   3.453   5.518   3.939
 9940WAT    HW129819   3.453   5.430   3.901
 9940WAT    HW229820   3.528   5.518   3.999
 9941WAT     OW29821   0.690   0.685   0.887
 9941WAT    HW129822   0.638   0.609   0.861
 9941WAT    HW229823   0.746   0.653   0.957
 9942WAT     OW29824   6.579   0.050   4.404
 9942WAT    HW129825   6.583   0.013   4.492
 9942WAT    HW229826   6.485   0.062   4.388
 9943WAT     OW29827   1.960   6.586   3.871
 9943WAT    HW129828   1.971   6.491   3.873
 9943WAT    HW229829   1.939   6.605   3.780
 9944WAT     OW29830   2.258   2.959   0.328
 9944WAT    HW129831   2.321   2.941   0.259
 9944WAT    HW229832   2.310   2.959   0.409
 9945WAT     OW29833   3.765   0.300   6.527
 9945WAT    HW129834   3.815   0.318   6.607
 9945WAT    HW229835   3.781   0.376   6.471
 9946WAT     OW29836   6.604   5.358   4.897
 9946WAT    HW129837   6.663   5.352   4.822
 9946WAT    HW229838   6.576   5.268   4.913
 9947WAT     OW29839   4.947   3.680   5.032
 9947WAT    HW129840   4.920   3.749   5.093
 9947WAT    HW229841   4.955   3.602   5.087
 9948WAT     OW29842   3.763   5.391   5.833
 9948WAT    HW129843   3.673   5.405   5.865
 9948WAT    HW229844   3.769   5.296   5.821
 9949WAT     OW29845   4.625   5.515   1.969
 9949WAT    HW129846   4.674   5.474   1.898
 9949WAT    HW229847   4.599   5.442   2.026
 9950WAT     OW29848   5.165   5.852   4.283
 9950WAT    HW129849   5.089   5.850   4.341
 9950WAT    HW229850   5.128   5.875   4.197
 9951WAT     OW29851   4.662   5.687   0.509
 9951WAT    HW129852   4.738   5.666   0.563
 9951WAT    HW229853   4.591   5.702   0.572
 9952WAT     OW29854   3.556   2.958   3.292
 9952WAT    HW129855   3.631   3.010   3.261
 9952WAT    HW229856   3.482   2.991   3.241
 9953WAT     OW29857   5.804   3.740   2.122
 9953WAT    HW129858   5.859   3.817   2.135
 9953WAT    HW229859   5.774   3.746   2.032
 9954WAT     OW29860   4.479   1.954   0.166
 9954WAT    HW129861   4.515   1.865   0.158
 9954WAT    HW229862   4.467   1.966   0.260
 9955WAT     OW29863   4.349   2.000   5.283
 9955WAT    HW129864   4.342   2.082   5.235
 9955WAT    HW229865   4.281   1.944   5.245
 9956WAT     OW29866   1.933   4.494   0.167
 9956WAT    HW129867   1.918   4.549   0.243
 9956WAT    HW229868   1.846   4.469   0.137
 9957WAT     OW29869   6.622   1.750   4.864
 9957WAT    HW129870   6.653   1.823   4.809
 9957WAT    HW229871   6.686   1.680   4.848
 9958WAT     OW29872   1.558   5.732   1.967
 9958WAT    HW129873   1.530   5.643   1.945
 9958WAT    HW229874   1.477   5.778   1.988
 9959WAT     OW29875   1.341   3.777   3.034
 9959WAT    HW129876   1.364   3.847   3.095
 9959WAT    HW229877   1.379   3.805   2.950
 9960WAT     OW29878   4.075   1.540   2.779
 9960WAT    HW129879   4.152   1.492   2.746
 9960WAT    HW229880   4.003   1.477   2.774
 9961WAT     OW29881   0.144   0.613   6.670
 9961WAT    HW129882   0.236   0.608   6.643
 9961WAT    HW229883   0.129   0.532   6.718
 9962WAT     OW29884   3.964   3.280   1.351
 9962WAT    HW129885   3.947   3.214   1.418
 9962WAT    HW229886   3.878   3.303   1.317
 9963WAT     OW29887   3.876   3.869   5.312
 9963WAT    HW129888   3.804   3.847   5.253
 9963WAT    HW229889   3.868   3.806   5.383
 9964WAT     OW29890   5.302   4.841   2.977
 9964WAT    HW129891   5.361   4.915   2.964
 9964WAT    HW229892   5.279   4.812   2.889
 9965WAT     OW29893   3.679   3.809   5.127
 9965WAT    HW129894   3.712   3.812   5.037
 9965WAT    HW229895   3.639   3.895   5.141
 9966WAT     OW29896   0.142   0.776   0.566
 9966WAT    HW129897   0.094   0.854   0.540
 9966WAT    HW229898   0.208   0.807   0.628
 9967WAT     OW29899   0.846   0.008   1.062
 9967WAT    HW129900   0.852   0.101   1.042
 9967WAT    HW229901   0.868  -0.037   0.981
 9968WAT     OW29902   1.659   2.534   1.540
 9968WAT    HW129903   1.712   2.613   1.539
 9968WAT    HW229904   1.690   2.483   1.465
 9969WAT     OW29905   2.656   2.864   0.515
 9969WAT    HW129906   2.751   2.865   0.516
 9969WAT    HW229907   2.633   2.771   0.509
 9970WAT     OW29908   6.423   0.535   1.434
 9970WAT    HW129909   6.384   0.449   1.447
 9970WAT    HW229910   6.354   0.597   1.457
 9971WAT     OW29911   6.596   5.952   6.522
 9971WAT    HW129912   6.585   5.863   6.489
 9971WAT    HW229913   6.573   6.008   6.447
 9972WAT     OW29914   4.016   0.712   3.299
 9972WAT    HW129915   3.945   0.668   3.252
 9972WAT    HW229916   4.091   0.653   3.291
 9973WAT     OW29917   2.071   0.769   3.624
 9973WAT    HW129918   2.132   0.697   3.607
 9973WAT    HW229919   2.110   0.818   3.696
 9974WAT     OW29920   2.917   5.538   4.062
 9974WAT    HW129921   2.933   5.444   4.075
 9974WAT    HW229922   2.832   5.554   4.103
 9975WAT     OW29923   2.002   0.300   3.829
 9975WAT    HW129924   2.031   0.285   3.739
 9975WAT    HW229925   2.036   0.225   3.878
 9976WAT     OW29926   6.350   6.612   2.800
 9976WAT    HW129927   6.343   6.538   2.860
 9976WAT    HW229928   6.275   6.603   2.741
 9977WAT     OW29929   4.072   1.587   0.033
 9977WAT    HW129930   4.109   1.665  -0.008
 9977WAT    HW229931   4.114   1.514  -0.012
 9978WAT     OW29932   5.581   6.285   0.739
 9978WAT    HW129933   5.583   6.364   0.793
 9978WAT    HW229934   5.577   6.318   0.649
 9979WAT     OW29935   4.463   4.397   5.688
 9979WAT    HW129936   4.377   4.407   5.729
 9979WAT    HW229937   4.482   4.484   5.652
 9980WAT     OW29938   2.205   3.754   2.308
 9980WAT    HW129939   2.267   3.681   2.301
 9980WAT    HW229940   2.129   3.727   2.257
 9981WAT     OW29941   6.718   3.351   0.896
 9981WAT    HW129942   6.810   3.328   0.893
 9981WAT    HW229943   6.709   3.420   0.830
 9982WAT     OW29944   5.421   1.261   0.733
 9982WAT    HW129945   5.383   1.276   0.647
 9982WAT    HW229946   5.509   1.299   0.727
 9983WAT     OW29947   0.994   3.053   0.365
 9983WAT    HW129948   1.056   3.082   0.432
 9983WAT    HW229949   1.047   3.042   0.286
 9984WAT     OW29950   4.698   6.361   2.011
 9984WAT    HW129951   4.658   6.420   1.948
 9984WAT    HW229952   4.626   6.335   2.069
 9985WAT     OW29953   2.695   2.839   4.767
 9985WAT    HW129954   2.653   2.882   4.692
 9985WAT    HW229955   2.660   2.750   4.767
 9986WAT     OW29956   5.806   3.334   4.750
 9986WAT    HW129957   5.766   3.248   4.765
 9986WAT    HW229958   5.896   3.314   4.724
 9987WAT     OW29959   3.449   3.110   3.800
 9987WAT    HW129960   3.464   3.064   3.717
 9987WAT    HW229961   3.417   3.042   3.860
 9988WAT     OW29962   4.109   2.203   1.451
 9988WAT    HW129963   4.184   2.255   1.422
 9988WAT    HW229964   4.143   2.150   1.523
 9989WAT     OW29965   1.459   2.481   1.723
 9989WAT    HW129966   1.405   2.560   1.716
 9989WAT    HW229967   1.535   2.499   1.668
 9990WAT     OW29968   4.847   6.642   6.211
 9990WAT    HW129969   4.771   6.659   6.156
 9990WAT    HW229970   4.846   6.711   6.277
 9991WAT     OW29971   3.829   0.862   0.399
 9991WAT    HW129972   3.828   0.947   0.442
 9991WAT    HW229973   3.814   0.881   0.307
 9992WAT     OW29974   1.521   4.387   3.539
 9992WAT    HW129975   1.473   4.304   3.545
 9992WAT    HW229976   1.470   4.441   3.479
 9993WAT     OW29977   3.264   5.264   5.329
 9993WAT    HW129978   3.230   5.222   5.249
 9993WAT    HW229979   3.285   5.354   5.301
 9994WAT     OW29980   2.154   6.472   6.282
 9994WAT    HW129981   2.097   6.545   6.306
 9994WAT    HW229982   2.239   6.495   6.321
 9995WAT     OW29983   2.767   5.042   2.579
 9995WAT    HW129984   2.760   4.963   2.525
 9995WAT    HW229985   2.700   5.101   2.545
 9996WAT     OW29986   5.808   4.685   1.032
 9996WAT    HW129987   5.793   4.591   1.021
 9996WAT    HW229988   5.760   4.707   1.112
 9997WAT     OW29989   2.043   6.316   0.248
 9997WAT    HW129990   2.114   6.263   0.213
 9997WAT    HW229991   1.966   6.259   0.244
 9998WAT     OW29992   0.303   0.478   0.958
 9998WAT    HW129993   0.262   0.560   0.931
 9998WAT    HW229994   0.242   0.410   0.930
 9999WAT     OW29995   1.509   0.662   5.351
 9999WAT    HW129996   1.461   0.658   5.268
 9999WAT    HW229997   1.446   0.633   5.417
10000WAT     OW29998   3.666   5.654   4.387
10000WAT    HW129999   3.613   5.673   4.465
10000WAT    HW230000   3.672   5.737   4.341
   6.72614   6.72614   6.72604
