Agua tip4p_2005 bulk con PBC corregido
40000
    1WAT  OW       1   4.349   4.795   2.510
    1WAT  HW1      2   4.287   4.722   2.505
    1WAT  HW2      3   4.368   4.815   2.418
    1WAT  MW       4   4.343   4.788   2.497
    2WAT  OW       5   4.645   5.984   2.717
    2WAT  HW1      6   4.699   5.978   2.795
    2WAT  HW2      7   4.655   5.900   2.674
    2WAT  MW       8   4.653   5.972   2.721
    3WAT  OW       9   4.713   4.017   5.038
    3WAT  HW1     10   4.744   4.105   5.060
    3WAT  HW2     11   4.689   4.023   4.946
    3WAT  MW      12   4.714   4.029   5.029
    4WAT  OW      13   0.992   4.584   0.688
    4WAT  HW1     14   0.956   4.672   0.679
    4WAT  HW2     15   1.082   4.597   0.717
    4WAT  MW      16   0.999   4.597   0.691
    5WAT  OW      17   5.588   3.258   3.378
    5WAT  HW1     18   5.517   3.317   3.402
    5WAT  HW2     19   5.664   3.315   3.369
    5WAT  MW      20   5.589   3.273   3.380
    6WAT  OW      21   6.229   5.538   0.034
    6WAT  HW1     22   6.158   5.550  -0.029
    6WAT  HW2     23   6.190   5.564   0.118
    6WAT  MW      24   6.214   5.543   0.037
    7WAT  OW      25   4.077   5.169   2.038
    7WAT  HW1     26   3.995   5.204   2.004
    7WAT  HW2     27   4.136   5.244   2.040
    7WAT  MW      28   4.074   5.183   2.034
    8WAT  OW      29   2.188   5.090   0.598
    8WAT  HW1     30   2.137   5.150   0.653
    8WAT  HW2     31   2.257   5.058   0.655
    8WAT  MW      32   2.190   5.094   0.613
    9WAT  OW      33   1.459   4.560   1.516
    9WAT  HW1     34   1.514   4.575   1.439
    9WAT  HW2     35   1.502   4.610   1.586
    9WAT  MW      36   1.472   4.569   1.515
   10WAT  OW      37   3.098   4.950   3.560
   10WAT  HW1     38   3.077   4.872   3.509
   10WAT  HW2     39   3.155   5.001   3.502
   10WAT  MW      40   3.103   4.946   3.545
   11WAT  OW      41   4.812   4.448   1.790
   11WAT  HW1     42   4.827   4.536   1.825
   11WAT  HW2     43   4.841   4.453   1.699
   11WAT  MW      44   4.818   4.460   1.783
   12WAT  OW      45   3.179   1.454   5.096
   12WAT  HW1     46   3.215   1.513   5.030
   12WAT  HW2     47   3.171   1.370   5.051
   12WAT  MW      48   3.183   1.451   5.082
   13WAT  OW      49   3.481   0.876   2.540
   13WAT  HW1     50   3.452   0.785   2.549
   13WAT  HW2     51   3.440   0.907   2.460
   13WAT  MW      52   3.472   0.868   2.531
   14WAT  OW      53   1.297   2.446   2.167
   14WAT  HW1     54   1.319   2.535   2.140
   14WAT  HW2     55   1.369   2.419   2.224
   14WAT  MW      56   1.310   2.454   2.171
   15WAT  OW      57   0.661   1.730   6.205
   15WAT  HW1     58   0.701   1.815   6.224
   15WAT  HW2     59   0.720   1.690   6.141
   15WAT  MW      60   0.674   1.736   6.199
   16WAT  OW      61   5.996   1.403   2.525
   16WAT  HW1     62   5.974   1.341   2.594
   16WAT  HW2     63   5.942   1.378   2.450
   16WAT  MW      64   5.986   1.392   2.524
   17WAT  OW      65   4.098   3.501   0.679
   17WAT  HW1     66   4.148   3.461   0.751
   17WAT  HW2     67   4.165   3.535   0.620
   17WAT  MW      68   4.114   3.500   0.681
   18WAT  OW      69   4.150   5.934   3.609
   18WAT  HW1     70   4.228   5.880   3.605
   18WAT  HW2     71   4.181   6.020   3.637
   18WAT  MW      72   4.164   5.938   3.612
   19WAT  OW      73   1.984   1.568   1.321
   19WAT  HW1     74   1.936   1.631   1.375
   19WAT  HW2     75   2.072   1.565   1.359
   19WAT  MW      76   1.989   1.576   1.333
   20WAT  OW      77   2.242   4.061   3.222
   20WAT  HW1     78   2.337   4.071   3.224
   20WAT  HW2     79   2.219   4.068   3.130
   20WAT  MW      80   2.252   4.063   3.210
   21WAT  OW      81   5.291   5.572   6.148
   21WAT  HW1     82   5.250   5.497   6.191
   21WAT  HW2     83   5.294   5.640   6.215
   21WAT  MW      84   5.286   5.571   6.162
   22WAT  OW      85   6.125   1.299   3.764
   22WAT  HW1     86   6.090   1.293   3.675
   22WAT  HW2     87   6.053   1.335   3.815
   22WAT  MW      88   6.111   1.303   3.759
   23WAT  OW      89   1.110   6.568   6.036
   23WAT  HW1     90   1.167   6.526   6.101
   23WAT  HW2     91   1.148   6.655   6.024
   23WAT  MW      92   1.123   6.574   6.043
   24WAT  OW      93   0.361   4.342   1.116
   24WAT  HW1     94   0.429   4.299   1.064
   24WAT  HW2     95   0.329   4.412   1.060
   24WAT  MW      96   0.366   4.345   1.101
   25WAT  OW      97   0.262   1.295   1.409
   25WAT  HW1     98   0.322   1.366   1.431
   25WAT  HW2     99   0.314   1.237   1.353
   25WAT  MW     100   0.277   1.297   1.405
   26WAT  OW     101   1.305   2.258   4.493
   26WAT  HW1    102   1.283   2.169   4.465
   26WAT  HW2    103   1.265   2.314   4.427
   26WAT  MW     104   1.297   2.254   4.481
   27WAT  OW     105   4.454   2.780   6.106
   27WAT  HW1    106   4.439   2.857   6.161
   27WAT  HW2    107   4.373   2.729   6.113
   27WAT  MW     108   4.441   2.784   6.114
   28WAT  OW     109   2.012   2.670   1.463
   28WAT  HW1    110   1.986   2.693   1.552
   28WAT  HW2    111   1.972   2.585   1.447
   28WAT  MW     112   2.003   2.662   1.472
   29WAT  OW     113   0.562   6.630   4.444
   29WAT  HW1    114   0.624   6.697   4.472
   29WAT  HW2    115   0.536   6.587   4.526
   29WAT  MW     116   0.567   6.633   4.459
   30WAT  OW     117   0.155   4.600   5.651
   30WAT  HW1    118   0.108   4.674   5.611
   30WAT  HW2    119   0.127   4.524   5.601
   30WAT  MW     120   0.145   4.600   5.639
   31WAT  OW     121   5.734   2.734   3.885
   31WAT  HW1    122   5.713   2.665   3.948
   31WAT  HW2    123   5.797   2.693   3.825
   31WAT  MW     124   5.740   2.720   3.886
   32WAT  OW     125   1.029   5.879   2.746
   32WAT  HW1    126   1.085   5.861   2.671
   32WAT  HW2    127   0.941   5.888   2.708
   32WAT  MW     128   1.025   5.878   2.731
   33WAT  OW     129   4.622   0.216   3.073
   33WAT  HW1    130   4.586   0.197   3.160
   33WAT  HW2    131   4.549   0.203   3.013
   33WAT  MW     132   4.608   0.212   3.077
   34WAT  OW     133   3.740   5.281   0.548
   34WAT  HW1    134   3.775   5.211   0.493
   34WAT  HW2    135   3.780   5.266   0.634
   34WAT  MW     136   3.750   5.270   0.552
   35WAT  OW     137   3.867   3.724   0.892
   35WAT  HW1    138   3.790   3.723   0.949
   35WAT  HW2    139   3.834   3.705   0.805
   35WAT  MW     140   3.853   3.721   0.888
   36WAT  OW     141   6.576   1.635   3.571
   36WAT  HW1    142   6.597   1.547   3.603
   36WAT  HW2    143   6.517   1.620   3.497
   36WAT  MW     144   6.571   1.622   3.565
   37WAT  OW     145   4.668   6.121   4.239
   37WAT  HW1    146   4.658   6.047   4.298
   37WAT  HW2    147   4.759   6.148   4.249
   37WAT  MW     148   4.679   6.115   4.248
   38WAT  OW     149   6.159   6.402   0.842
   38WAT  HW1    150   6.073   6.378   0.807
   38WAT  HW2    151   6.163   6.497   0.831
   38WAT  MW     152   6.148   6.411   0.836
   39WAT  OW     153   3.983   5.469   0.232
   39WAT  HW1    154   3.914   5.498   0.291
   39WAT  HW2    155   4.045   5.542   0.231
   39WAT  MW     156   3.982   5.483   0.240
   40WAT  OW     157   3.467   2.843   3.893
   40WAT  HW1    158   3.516   2.844   3.975
   40WAT  HW2    159   3.494   2.923   3.849
   40WAT  MW     160   3.477   2.854   3.898
   41WAT  OW     161   3.464   2.233   5.357
   41WAT  HW1    162   3.411   2.306   5.326
   41WAT  HW2    163   3.469   2.174   5.281
   41WAT  MW     164   3.457   2.235   5.343
   42WAT  OW     165   3.968   4.497   0.921
   42WAT  HW1    166   3.945   4.481   1.013
   42WAT  HW2    167   3.960   4.412   0.878
   42WAT  MW     168   3.964   4.484   0.928
   43WAT  OW     169   4.780   0.078   1.988
   43WAT  HW1    170   4.837   0.038   2.054
   43WAT  HW2    171   4.840   0.111   1.921
   43WAT  MW     172   4.796   0.077   1.988
   44WAT  OW     173   0.101   6.252   2.402
   44WAT  HW1    174   0.166   6.221   2.465
   44WAT  HW2    175   0.128   6.342   2.382
   44WAT  MW     176   0.113   6.260   2.408
   45WAT  OW     177   5.663   6.013   5.649
   45WAT  HW1    178   5.608   5.994   5.725
   45WAT  HW2    179   5.602   6.042   5.581
   45WAT  MW     180   5.648   6.014   5.650
   46WAT  OW     181   2.192   0.513   4.737
   46WAT  HW1    182   2.271   0.464   4.716
   46WAT  HW2    183   2.125   0.478   4.678
   46WAT  MW     184   2.193   0.502   4.726
   47WAT  OW     185   2.019   5.762   6.016
   47WAT  HW1    186   2.054   5.701   5.952
   47WAT  HW2    187   2.050   5.848   5.986
   47WAT  MW     188   2.028   5.766   6.004
   48WAT  OW     189   5.741   1.450   4.695
   48WAT  HW1    190   5.675   1.381   4.696
   48WAT  HW2    191   5.786   1.440   4.779
   48WAT  MW     192   5.738   1.439   4.707
   49WAT  OW     193   4.683   0.624   4.419
   49WAT  HW1    194   4.704   0.588   4.505
   49WAT  HW2    195   4.709   0.556   4.357
   49WAT  MW     196   4.689   0.611   4.422
   50WAT  OW     197   2.955   5.146   2.524
   50WAT  HW1    198   2.941   5.100   2.441
   50WAT  HW2    199   2.971   5.077   2.587
   50WAT  MW     200   2.956   5.131   2.521
   51WAT  OW     201   3.229   3.028   3.643
   51WAT  HW1    202   3.225   3.003   3.736
   51WAT  HW2    203   3.260   2.949   3.599
   51WAT  MW     204   3.233   3.014   3.649
   52WAT  OW     205   2.946   0.364   1.697
   52WAT  HW1    206   3.013   0.420   1.657
   52WAT  HW2    207   2.983   0.341   1.783
   52WAT  MW     208   2.960   0.368   1.703
   53WAT  OW     209   0.927   0.658   6.587
   53WAT  HW1    210   0.880   0.630   6.665
   53WAT  HW2    211   1.009   0.695   6.619
   53WAT  MW     212   0.932   0.660   6.601
   54WAT  OW     213   1.394   0.156   5.401
   54WAT  HW1    214   1.441   0.218   5.456
   54WAT  HW2    215   1.319   0.205   5.368
   54WAT  MW     216   1.391   0.171   5.404
   55WAT  OW     217   0.697   2.925   2.232
   55WAT  HW1    218   0.636   2.931   2.159
   55WAT  HW2    219   0.690   3.009   2.277
   55WAT  MW     220   0.688   2.937   2.228
   56WAT  OW     221   3.187   5.229   0.713
   56WAT  HW1    222   3.162   5.216   0.804
   56WAT  HW2    223   3.281   5.248   0.715
   56WAT  MW     224   3.196   5.230   0.725
   57WAT  OW     225   0.362   3.845   2.396
   57WAT  HW1    226   0.420   3.862   2.321
   57WAT  HW2    227   0.312   3.767   2.372
   57WAT  MW     228   0.363   3.837   2.383
   58WAT  OW     229   0.362   2.492   5.456
   58WAT  HW1    230   0.342   2.401   5.479
   58WAT  HW2    231   0.407   2.486   5.372
   58WAT  MW     232   0.365   2.479   5.448
   59WAT  OW     233   5.716   5.545   3.856
   59WAT  HW1    234   5.746   5.514   3.941
   59WAT  HW2    235   5.717   5.640   3.863
   59WAT  MW     236   5.720   5.553   3.868
   60WAT  OW     237   1.100   1.519   0.093
   60WAT  HW1    238   1.041   1.594   0.091
   60WAT  HW2    239   1.068   1.466   0.166
   60WAT  MW     240   1.088   1.522   0.102
   61WAT  OW     241   5.001   1.417   5.187
   61WAT  HW1    242   5.051   1.496   5.209
   61WAT  HW2    243   4.910   1.447   5.183
   61WAT  MW     244   4.995   1.432   5.189
   62WAT  OW     245   6.272   3.767   3.765
   62WAT  HW1    246   6.320   3.850   3.761
   62WAT  HW2    247   6.325   3.707   3.713
   62WAT  MW     248   6.285   3.770   3.758
   63WAT  OW     249   5.818   6.005   5.388
   63WAT  HW1    250   5.758   6.021   5.461
   63WAT  HW2    251   5.853   6.092   5.368
   63WAT  MW     252   5.814   6.019   5.395
   64WAT  OW     253   5.260   3.028   4.662
   64WAT  HW1    254   5.243   2.934   4.672
   64WAT  HW2    255   5.191   3.070   4.714
   64WAT  MW     256   5.248   3.021   4.670
   65WAT  OW     257   0.476   1.069   3.240
   65WAT  HW1    258   0.450   1.007   3.172
   65WAT  HW2    259   0.431   1.039   3.319
   65WAT  MW     260   0.466   1.057   3.241
   66WAT  OW     261   5.539   1.135   4.961
   66WAT  HW1    262   5.473   1.117   5.028
   66WAT  HW2    263   5.619   1.151   5.010
   66WAT  MW     264   5.541   1.135   4.976
   67WAT  OW     265   0.680   3.962   1.755
   67WAT  HW1    266   0.649   4.024   1.689
   67WAT  HW2    267   0.645   3.996   1.838
   67WAT  MW     268   0.671   3.975   1.758
   68WAT  OW     269   1.886   3.221   2.347
   68WAT  HW1    270   1.798   3.185   2.355
   68WAT  HW2    271   1.891   3.289   2.415
   68WAT  MW     272   1.875   3.225   2.357
   69WAT  OW     273   5.850   4.309   1.121
   69WAT  HW1    274   5.789   4.361   1.070
   69WAT  HW2    275   5.795   4.257   1.179
   69WAT  MW     276   5.835   4.309   1.122
   70WAT  OW     277   1.828   4.389   2.631
   70WAT  HW1    278   1.825   4.418   2.722
   70WAT  HW2    279   1.738   4.362   2.612
   70WAT  MW     280   1.816   4.389   2.640
   71WAT  OW     281   4.595   3.704   5.378
   71WAT  HW1    282   4.629   3.783   5.420
   71WAT  HW2    283   4.615   3.715   5.285
   71WAT  MW     284   4.602   3.716   5.372
   72WAT  OW     285   0.807   1.434   4.692
   72WAT  HW1    286   0.845   1.391   4.615
   72WAT  HW2    287   0.728   1.476   4.659
   72WAT  MW     288   0.801   1.434   4.677
   73WAT  OW     289   1.852   2.607   4.162
   73WAT  HW1    290   1.796   2.609   4.240
   73WAT  HW2    291   1.884   2.517   4.158
   73WAT  MW     292   1.849   2.595   4.172
   74WAT  OW     293   2.993   4.887   3.203
   74WAT  HW1    294   3.029   4.852   3.122
   74WAT  HW2    295   2.899   4.890   3.188
   74WAT  MW     296   2.986   4.883   3.190
   75WAT  OW     297   0.623   2.201   5.458
   75WAT  HW1    298   0.618   2.105   5.462
   75WAT  HW2    299   0.714   2.220   5.437
   75WAT  MW     300   0.634   2.191   5.456
   76WAT  OW     301   3.850   2.252   5.991
   76WAT  HW1    302   3.771   2.303   5.971
   76WAT  HW2    303   3.821   2.161   5.988
   76WAT  MW     304   3.836   2.246   5.988
   77WAT  OW     305   2.287   1.106   4.328
   77WAT  HW1    306   2.263   1.048   4.255
   77WAT  HW2    307   2.244   1.067   4.404
   77WAT  MW     308   2.278   1.093   4.328
   78WAT  OW     309   6.470   1.271   4.599
   78WAT  HW1    310   6.392   1.318   4.569
   78WAT  HW2    311   6.540   1.336   4.595
   78WAT  MW     312   6.469   1.286   4.595
   79WAT  OW     313   3.855   2.555   1.884
   79WAT  HW1    314   3.912   2.496   1.933
   79WAT  HW2    315   3.837   2.627   1.945
   79WAT  MW     316   3.860   2.557   1.899
   80WAT  OW     317   1.023   5.885   1.024
   80WAT  HW1    318   1.048   5.851   1.110
   80WAT  HW2    319   0.927   5.887   1.026
   80WAT  MW     320   1.014   5.881   1.035
   81WAT  OW     321   5.365   6.369   5.199
   81WAT  HW1    322   5.361   6.442   5.261
   81WAT  HW2    323   5.275   6.357   5.169
   81WAT  MW     324   5.353   6.377   5.204
   82WAT  OW     325   4.213   2.025   2.968
   82WAT  HW1    326   4.235   1.979   3.050
   82WAT  HW2    327   4.221   2.118   2.990
   82WAT  MW     328   4.217   2.031   2.982
   83WAT  OW     329   2.613   6.675   4.574
   83WAT  HW1    330   2.611   6.615   4.648
   83WAT  HW2    331   2.683   6.641   4.518
   83WAT  MW     332   2.622   6.663   4.576
   84WAT  OW     333   4.589   2.293   0.367
   84WAT  HW1    334   4.496   2.280   0.345
   84WAT  HW2    335   4.628   2.207   0.353
   84WAT  MW     336   4.582   2.280   0.362
   85WAT  OW     337   0.911   1.208   2.091
   85WAT  HW1    338   0.971   1.181   2.021
   85WAT  HW2    339   0.872   1.126   2.121
   85WAT  MW     340   0.914   1.194   2.086
   86WAT  OW     341   1.798   6.178   0.055
   86WAT  HW1    342   1.864   6.141   0.113
   86WAT  HW2    343   1.835   6.167  -0.033
   86WAT  MW     344   1.812   6.171   0.051
   87WAT  OW     345   4.400   1.446   1.295
   87WAT  HW1    346   4.446   1.529   1.307
   87WAT  HW2    347   4.434   1.412   1.212
   87WAT  MW     348   4.410   1.452   1.286
   88WAT  OW     349   6.261   5.645   4.964
   88WAT  HW1    350   6.237   5.671   5.053
   88WAT  HW2    351   6.356   5.654   4.960
   88WAT  MW     352   6.271   5.649   4.975
   89WAT  OW     353   2.816   5.287   0.293
   89WAT  HW1    354   2.750   5.281   0.361
   89WAT  HW2    355   2.767   5.275   0.211
   89WAT  MW     356   2.801   5.284   0.291
   90WAT  OW     357   4.495   0.947   6.472
   90WAT  HW1    358   4.453   0.978   6.552
   90WAT  HW2    359   4.427   0.952   6.405
   90WAT  MW     360   4.481   0.952   6.474
   91WAT  OW     361   6.182   3.184   1.790
   91WAT  HW1    362   6.162   3.238   1.714
   91WAT  HW2    363   6.228   3.108   1.755
   91WAT  MW     364   6.185   3.181   1.775
   92WAT  OW     365   1.917   5.293   6.506
   92WAT  HW1    366   1.963   5.376   6.493
   92WAT  HW2    367   1.943   5.266   6.594
   92WAT  MW     368   1.927   5.300   6.516
   93WAT  OW     369   4.437   4.296   3.229
   93WAT  HW1    370   4.522   4.340   3.218
   93WAT  HW2    371   4.408   4.322   3.316
   93WAT  MW     372   4.445   4.305   3.239
   94WAT  OW     373   0.054   5.530   3.558
   94WAT  HW1    374   0.065   5.576   3.475
   94WAT  HW2    375  -0.011   5.581   3.606
   94WAT  MW     376   0.047   5.543   3.553
   95WAT  OW     377   2.682   1.817   5.113
   95WAT  HW1    378   2.702   1.874   5.039
   95WAT  HW2    379   2.716   1.864   5.189
   95WAT  MW     380   2.689   1.831   5.113
   96WAT  OW     381   6.671   0.868   4.318
   96WAT  HW1    382   6.735   0.939   4.317
   96WAT  HW2    383   6.588   0.911   4.298
   96WAT  MW     384   6.669   0.883   4.315
   97WAT  OW     385   6.401   2.087   2.944
   97WAT  HW1    386   6.423   1.994   2.943
   97WAT  HW2    387   6.396   2.109   3.037
   97WAT  MW     388   6.403   2.078   2.956
   98WAT  OW     389   0.664   1.318   5.117
   98WAT  HW1    390   0.620   1.403   5.112
   98WAT  HW2    391   0.730   1.320   5.048
   98WAT  MW     392   0.667   1.329   5.107
   99WAT  OW     393   2.557   3.044   4.075
   99WAT  HW1    394   2.485   3.093   4.116
   99WAT  HW2    395   2.513   2.988   4.011
   99WAT  MW     396   2.542   3.043   4.072
  100WAT  OW     397   3.972   1.554   5.819
  100WAT  HW1    398   3.892   1.586   5.778
  100WAT  HW2    399   3.974   1.461   5.799
  100WAT  MW     400   3.962   1.546   5.811
  101WAT  OW     401   1.288   6.487   5.650
  101WAT  HW1    402   1.216   6.489   5.714
  101WAT  HW2    403   1.275   6.567   5.598
  101WAT  MW     404   1.277   6.498   5.651
  102WAT  OW     405   6.252   6.007   4.703
  102WAT  HW1    406   6.168   6.003   4.658
  102WAT  HW2    407   6.232   6.052   4.785
  102WAT  MW     408   6.238   6.013   4.708
  103WAT  OW     409   3.763   5.184   1.185
  103WAT  HW1    410   3.701   5.129   1.138
  103WAT  HW2    411   3.729   5.188   1.274
  103WAT  MW     412   3.750   5.178   1.191
  104WAT  OW     413   3.251   4.048   0.331
  104WAT  HW1    414   3.215   3.980   0.389
  104WAT  HW2    415   3.230   4.017   0.243
  104WAT  MW     416   3.243   4.035   0.327
  105WAT  OW     417   3.340   1.363   5.305
  105WAT  HW1    418   3.434   1.373   5.290
  105WAT  HW2    419   3.299   1.405   5.229
  105WAT  MW     420   3.347   1.370   5.293
  106WAT  OW     421   2.478   0.626   6.179
  106WAT  HW1    422   2.522   0.660   6.101
  106WAT  HW2    423   2.395   0.674   6.182
  106WAT  MW     424   2.473   0.637   6.169
  107WAT  OW     425   0.642   1.547   3.102
  107WAT  HW1    426   0.594   1.465   3.090
  107WAT  HW2    427   0.731   1.519   3.126
  107WAT  MW     428   0.647   1.532   3.104
  108WAT  OW     429   5.128   0.902   4.952
  108WAT  HW1    430   5.136   0.823   5.005
  108WAT  HW2    431   5.096   0.872   4.867
  108WAT  MW     432   5.125   0.888   4.948
  109WAT  OW     433   0.616   1.221   6.088
  109WAT  HW1    434   0.684   1.154   6.099
  109WAT  HW2    435   0.619   1.271   6.170
  109WAT  MW     436   0.625   1.218   6.101
  110WAT  OW     437   5.996   2.173   1.990
  110WAT  HW1    438   5.944   2.179   2.069
  110WAT  HW2    439   6.008   2.078   1.976
  110WAT  MW     440   5.991   2.161   1.998
  111WAT  OW     441   3.384   0.557   2.290
  111WAT  HW1    442   3.412   0.511   2.211
  111WAT  HW2    443   3.292   0.535   2.299
  111WAT  MW     444   3.376   0.548   2.281
  112WAT  OW     445   6.617   3.591   6.082
  112WAT  HW1    446   6.685   3.557   6.141
  112WAT  HW2    447   6.536   3.585   6.133
  112WAT  MW     448   6.615   3.586   6.096
  113WAT  OW     449   0.769   5.291   5.011
  113WAT  HW1    450   0.784   5.199   4.988
  113WAT  HW2    451   0.853   5.321   5.045
  113WAT  MW     452   0.782   5.283   5.012
  114WAT  OW     453   1.470   1.755   4.138
  114WAT  HW1    454   1.405   1.723   4.200
  114WAT  HW2    455   1.488   1.680   4.081
  114WAT  MW     456   1.464   1.741   4.139
  115WAT  OW     457   1.837   0.154   0.282
  115WAT  HW1    458   1.809   0.067   0.308
  115WAT  HW2    459   1.797   0.168   0.196
  115WAT  MW     460   1.828   0.145   0.274
  116WAT  OW     461   1.995   0.398   4.025
  116WAT  HW1    462   1.968   0.459   3.957
  116WAT  HW2    463   1.994   0.450   4.105
  116WAT  MW     464   1.992   0.413   4.027
  117WAT  OW     465   3.347   6.524   3.446
  117WAT  HW1    466   3.322   6.439   3.410
  117WAT  HW2    467   3.440   6.533   3.423
  117WAT  MW     468   3.356   6.514   3.438
  118WAT  OW     469   4.447   6.135   4.885
  118WAT  HW1    470   4.511   6.114   4.816
  118WAT  HW2    471   4.368   6.159   4.838
  118WAT  MW     472   4.445   6.136   4.870
  119WAT  OW     473   2.219   4.711   5.700
  119WAT  HW1    474   2.264   4.682   5.780
  119WAT  HW2    475   2.288   4.756   5.651
  119WAT  MW     476   2.234   4.713   5.704
  120WAT  OW     477   1.697   0.784   3.025
  120WAT  HW1    478   1.636   0.769   2.954
  120WAT  HW2    479   1.711   0.878   3.027
  120WAT  MW     480   1.691   0.794   3.016
  121WAT  OW     481   5.890   0.182   4.061
  121WAT  HW1    482   5.929   0.110   4.012
  121WAT  HW2    483   5.879   0.148   4.150
  121WAT  MW     484   5.894   0.168   4.066
  122WAT  OW     485   5.861   6.082   2.198
  122WAT  HW1    486   5.883   5.989   2.187
  122WAT  HW2    487   5.898   6.124   2.120
  122WAT  MW     488   5.869   6.075   2.186
  123WAT  OW     489   5.245   2.962   5.315
  123WAT  HW1    490   5.184   2.930   5.249
  123WAT  HW2    491   5.290   2.883   5.347
  123WAT  MW     492   5.243   2.948   5.311
  124WAT  OW     493   0.935   5.864   4.831
  124WAT  HW1    494   0.917   5.808   4.906
  124WAT  HW2    495   0.924   5.953   4.864
  124WAT  MW     496   0.931   5.868   4.845
  125WAT  OW     497   0.814   2.922   1.929
  125WAT  HW1    498   0.874   2.848   1.937
  125WAT  HW2    499   0.838   2.980   2.002
  125WAT  MW     500   0.825   2.920   1.940
  126WAT  OW     501   5.836   2.907   2.738
  126WAT  HW1    502   5.919   2.938   2.703
  126WAT  HW2    503   5.791   2.986   2.767
  126WAT  MW     504   5.841   2.922   2.737
  127WAT  OW     505   4.084   3.751   2.847
  127WAT  HW1    506   4.069   3.845   2.853
  127WAT  HW2    507   4.010   3.712   2.893
  127WAT  MW     508   4.072   3.758   2.854
  128WAT  OW     509   0.075   1.790   3.869
  128WAT  HW1    510  -0.015   1.795   3.898
  128WAT  HW2    511   0.070   1.797   3.773
  128WAT  MW     512   0.063   1.792   3.860
  129WAT  OW     513   6.554   6.173   1.161
  129WAT  HW1    514   6.495   6.225   1.216
  129WAT  HW2    515   6.520   6.084   1.167
  129WAT  MW     516   6.542   6.168   1.169
  130WAT  OW     517   2.299   1.327   0.038
  130WAT  HW1    518   2.211   1.366   0.040
  130WAT  HW2    519   2.350   1.385  -0.018
  130WAT  MW     520   2.294   1.340   0.031
  131WAT  OW     521   0.489   0.714   4.823
  131WAT  HW1    522   0.535   0.776   4.880
  131WAT  HW2    523   0.414   0.685   4.875
  131WAT  MW     524   0.485   0.718   4.838
  132WAT  OW     525   6.637   5.012   4.614
  132WAT  HW1    526   6.680   4.936   4.652
  132WAT  HW2    527   6.704   5.053   4.559
  132WAT  MW     528   6.652   5.008   4.612
  133WAT  OW     529   1.459   4.303   6.164
  133WAT  HW1    530   1.375   4.348   6.164
  133WAT  HW2    531   1.446   4.228   6.222
  133WAT  MW     532   1.446   4.299   6.171
  134WAT  OW     533   4.569   5.251   0.579
  134WAT  HW1    534   4.534   5.307   0.510
  134WAT  HW2    535   4.571   5.307   0.657
  134WAT  MW     536   4.565   5.265   0.580
  135WAT  OW     537   5.714   6.633   1.859
  135WAT  HW1    538   5.638   6.596   1.815
  135WAT  HW2    539   5.744   6.563   1.918
  135WAT  MW     540   5.708   6.619   1.861
  136WAT  OW     541   5.137   1.564   1.406
  136WAT  HW1    542   5.126   1.588   1.498
  136WAT  HW2    543   5.193   1.633   1.370
  136WAT  MW     544   5.143   1.576   1.413
  137WAT  OW     545   2.036   4.887   1.293
  137WAT  HW1    546   2.098   4.870   1.222
  137WAT  HW2    547   2.091   4.911   1.367
  137WAT  MW     548   2.052   4.888   1.293
  138WAT  OW     549   5.300   6.179   0.202
  138WAT  HW1    550   5.220   6.127   0.205
  138WAT  HW2    551   5.355   6.143   0.272
  138WAT  MW     552   5.297   6.167   0.211
  139WAT  OW     553   3.010   6.654   1.074
  139WAT  HW1    554   3.025   6.701   1.156
  139WAT  HW2    555   2.917   6.631   1.077
  139WAT  MW     556   3.000   6.657   1.085
  140WAT  OW     557   2.850   0.371   5.802
  140WAT  HW1    558   2.874   0.460   5.776
  140WAT  HW2    559   2.914   0.315   5.757
  140WAT  MW     560   2.862   0.375   5.793
  141WAT  OW     561   4.645   1.381   0.808
  141WAT  HW1    562   4.636   1.337   0.724
  141WAT  HW2    563   4.605   1.467   0.794
  141WAT  MW     564   4.639   1.387   0.795
  142WAT  OW     565   1.841   2.301   4.835
  142WAT  HW1    566   1.931   2.286   4.863
  142WAT  HW2    567   1.841   2.284   4.741
  142WAT  MW     568   1.853   2.297   4.827
  143WAT  OW     569   0.009   3.332   1.460
  143WAT  HW1    570  -0.036   3.248   1.465
  143WAT  HW2    571   0.041   3.348   1.549
  143WAT  MW     572   0.007   3.323   1.473
  144WAT  OW     573   0.325   6.275   6.042
  144WAT  HW1    574   0.381   6.251   5.969
  144WAT  HW2    575   0.355   6.219   6.114
  144WAT  MW     576   0.336   6.264   6.042
  145WAT  OW     577   4.267   3.907   1.055
  145WAT  HW1    578   4.325   3.898   0.980
  145WAT  HW2    579   4.196   3.845   1.039
  145WAT  MW     580   4.265   3.898   1.043
  146WAT  OW     581   5.430   1.608   6.004
  146WAT  HW1    582   5.456   1.693   5.969
  146WAT  HW2    583   5.346   1.625   6.047
  146WAT  MW     584   5.422   1.622   6.005
  147WAT  OW     585   3.370   2.810   4.959
  147WAT  HW1    586   3.334   2.851   4.881
  147WAT  HW2    587   3.363   2.716   4.942
  147WAT  MW     588   3.364   2.803   4.947
  148WAT  OW     589   6.548   1.404   3.702
  148WAT  HW1    590   6.481   1.411   3.770
  148WAT  HW2    591   6.540   1.315   3.668
  148WAT  MW     592   6.538   1.394   3.706
  149WAT  OW     593   1.545   1.508   4.022
  149WAT  HW1    594   1.502   1.479   3.941
  149WAT  HW2    595   1.629   1.463   4.022
  149WAT  MW     596   1.550   1.498   4.011
  150WAT  OW     597   4.872   4.661   3.773
  150WAT  HW1    598   4.899   4.581   3.730
  150WAT  HW2    599   4.833   4.714   3.703
  150WAT  MW     600   4.870   4.658   3.758
  151WAT  OW     601   4.658   4.156   0.440
  151WAT  HW1    602   4.676   4.064   0.461
  151WAT  HW2    603   4.682   4.204   0.519
  151WAT  MW     604   4.663   4.150   0.453
  152WAT  OW     605   5.160   0.923   5.362
  152WAT  HW1    606   5.244   0.952   5.329
  152WAT  HW2    607   5.113   1.004   5.382
  152WAT  MW     608   5.165   0.938   5.360
  153WAT  OW     609   3.239   6.289   3.350
  153WAT  HW1    610   3.151   6.293   3.390
  153WAT  HW2    611   3.222   6.281   3.256
  153WAT  MW     612   3.225   6.289   3.343
  154WAT  OW     613   2.441   0.545   1.376
  154WAT  HW1    614   2.373   0.532   1.442
  154WAT  HW2    615   2.403   0.606   1.313
  154WAT  MW     616   2.427   0.551   1.377
  155WAT  OW     617   5.053   2.675   4.133
  155WAT  HW1    618   5.123   2.683   4.068
  155WAT  HW2    619   5.003   2.598   4.106
  155WAT  MW     620   5.055   2.666   4.121
  156WAT  OW     621   5.259   3.943   2.173
  156WAT  HW1    622   5.169   3.923   2.149
  156WAT  HW2    623   5.272   4.033   2.145
  156WAT  MW     624   5.249   3.952   2.166
  157WAT  OW     625   0.083   4.060   1.629
  157WAT  HW1    626   0.072   4.055   1.534
  157WAT  HW2    627   0.020   3.996   1.663
  157WAT  MW     628   0.073   4.051   1.621
  158WAT  OW     629   0.487   0.839   3.017
  158WAT  HW1    630   0.481   0.744   3.021
  158WAT  HW2    631   0.399   0.868   2.992
  158WAT  MW     632   0.475   0.831   3.014
  159WAT  OW     633   4.572   1.991   0.940
  159WAT  HW1    634   4.549   2.077   0.975
  159WAT  HW2    635   4.667   1.993   0.931
  159WAT  MW     636   4.581   2.002   0.944
  160WAT  OW     637   3.587   3.645   4.628
  160WAT  HW1    638   3.583   3.680   4.717
  160WAT  HW2    639   3.497   3.617   4.609
  160WAT  MW     640   3.575   3.646   4.637
  161WAT  OW     641   4.322   4.229   5.555
  161WAT  HW1    642   4.302   4.276   5.474
  161WAT  HW2    643   4.395   4.172   5.531
  161WAT  MW     644   4.329   4.227   5.541
  162WAT  OW     645   2.629   2.625   1.016
  162WAT  HW1    646   2.535   2.642   1.025
  162WAT  HW2    647   2.638   2.587   0.929
  162WAT  MW     648   2.618   2.623   1.006
  163WAT  OW     649   3.150   1.477   5.881
  163WAT  HW1    650   3.056   1.491   5.874
  163WAT  HW2    651   3.169   1.411   5.815
  163WAT  MW     652   3.140   1.470   5.872
  164WAT  OW     653   4.620   3.921   2.687
  164WAT  HW1    654   4.633   3.870   2.767
  164WAT  HW2    655   4.709   3.938   2.655
  164WAT  MW     656   4.634   3.916   2.693
  165WAT  OW     657   0.131   3.634   0.082
  165WAT  HW1    658   0.214   3.590   0.100
  165WAT  HW2    659   0.146   3.681  -0.000
  165WAT  MW     660   0.144   3.635   0.073
  166WAT  OW     661   2.043   0.149   4.181
  166WAT  HW1    662   1.985   0.211   4.135
  166WAT  HW2    663   1.998   0.065   4.173
  166WAT  MW     664   2.029   0.146   4.174
  167WAT  OW     665   2.399   1.610   4.981
  167WAT  HW1    666   2.424   1.679   4.919
  167WAT  HW2    667   2.478   1.559   4.993
  167WAT  MW     668   2.413   1.613   4.974
  168WAT  OW     669   5.016   5.245   0.441
  168WAT  HW1    670   4.975   5.200   0.514
  168WAT  HW2    671   4.956   5.317   0.420
  168WAT  MW     672   5.003   5.249   0.448
  169WAT  OW     673   3.650   3.401   2.918
  169WAT  HW1    674   3.685   3.324   2.874
  169WAT  HW2    675   3.673   3.388   3.010
  169WAT  MW     676   3.658   3.389   2.924
  170WAT  OW     677   2.299   6.626   1.263
  170WAT  HW1    678   2.208   6.606   1.282
  170WAT  HW2    679   2.326   6.685   1.333
  170WAT  MW     680   2.291   6.631   1.275
  171WAT  OW     681   4.147   4.513   6.300
  171WAT  HW1    682   4.178   4.490   6.212
  171WAT  HW2    683   4.114   4.431   6.336
  171WAT  MW     684   4.147   4.499   6.293
  172WAT  OW     685   1.260   0.144   3.409
  172WAT  HW1    686   1.195   0.181   3.470
  172WAT  HW2    687   1.212   0.134   3.327
  172WAT  MW     688   1.245   0.148   3.406
  173WAT  OW     689   0.081   1.476   5.176
  173WAT  HW1    690   0.105   1.522   5.256
  173WAT  HW2    691   0.033   1.540   5.125
  173WAT  MW     692   0.078   1.490   5.180
  174WAT  OW     693   1.852   0.767   6.570
  174WAT  HW1    694   1.766   0.752   6.531
  174WAT  HW2    695   1.914   0.753   6.499
  174WAT  MW     696   1.849   0.763   6.556
  175WAT  OW     697   0.985   4.458   4.175
  175WAT  HW1    698   0.917   4.492   4.232
  175WAT  HW2    699   1.043   4.408   4.233
  175WAT  MW     700   0.984   4.456   4.190
  176WAT  OW     701   1.049   5.320   5.083
  176WAT  HW1    702   1.118   5.273   5.131
  176WAT  HW2    703   1.076   5.314   4.991
  176WAT  MW     704   1.062   5.313   5.077
  177WAT  OW     705   3.855   5.289   2.404
  177WAT  HW1    706   3.878   5.199   2.382
  177WAT  HW2    707   3.803   5.282   2.485
  177WAT  MW     708   3.851   5.276   2.412
  178WAT  OW     709   6.266   2.213   4.535
  178WAT  HW1    710   6.208   2.138   4.524
  178WAT  HW2    711   6.210   2.282   4.571
  178WAT  MW     712   6.251   2.212   4.538
  179WAT  OW     713   0.997   3.445   0.815
  179WAT  HW1    714   1.065   3.398   0.767
  179WAT  HW2    715   1.038   3.465   0.900
  179WAT  MW     716   1.012   3.441   0.820
  180WAT  OW     717   0.849   3.063   5.120
  180WAT  HW1    718   0.896   2.989   5.159
  180WAT  HW2    719   0.883   3.140   5.166
  180WAT  MW     720   0.860   3.063   5.132
  181WAT  OW     721   1.950   1.015   2.651
  181WAT  HW1    722   1.906   1.097   2.674
  181WAT  HW2    723   1.959   1.019   2.556
  181WAT  MW     724   1.945   1.026   2.641
  182WAT  OW     725   0.708   3.778   2.895
  182WAT  HW1    726   0.670   3.707   2.844
  182WAT  HW2    727   0.636   3.809   2.950
  182WAT  MW     728   0.694   3.773   2.896
  183WAT  OW     729   5.064   5.397   4.433
  183WAT  HW1    730   5.062   5.475   4.488
  183WAT  HW2    731   4.989   5.406   4.375
  183WAT  MW     732   5.054   5.409   4.433
  184WAT  OW     733   3.644   4.520   0.265
  184WAT  HW1    734   3.628   4.538   0.172
  184WAT  HW2    735   3.662   4.606   0.303
  184WAT  MW     736   3.644   4.534   0.258
  185WAT  OW     737   3.124   1.078   4.025
  185WAT  HW1    738   3.177   1.149   4.061
  185WAT  HW2    739   3.151   1.072   3.934
  185WAT  MW     740   3.135   1.087   4.018
  186WAT  OW     741   1.774   2.847   0.415
  186WAT  HW1    742   1.726   2.845   0.498
  186WAT  HW2    743   1.779   2.940   0.393
  186WAT  MW     744   1.768   2.859   0.423
  187WAT  OW     745   3.084   5.921   5.479
  187WAT  HW1    746   3.089   5.870   5.399
  187WAT  HW2    747   3.050   6.006   5.452
  187WAT  MW     748   3.080   5.925   5.465
  188WAT  OW     749   1.654   4.107   4.919
  188WAT  HW1    750   1.697   4.183   4.881
  188WAT  HW2    751   1.627   4.055   4.843
  188WAT  MW     752   1.656   4.110   4.904
  189WAT  OW     753   5.499   5.583   1.755
  189WAT  HW1    754   5.584   5.571   1.796
  189WAT  HW2    755   5.450   5.639   1.815
  189WAT  MW     756   5.504   5.588   1.768
  190WAT  OW     757   0.181   5.416   2.080
  190WAT  HW1    758   0.261   5.458   2.048
  190WAT  HW2    759   0.201   5.391   2.170
  190WAT  MW     760   0.194   5.419   2.088
  191WAT  OW     761   4.327   1.556   1.846
  191WAT  HW1    762   4.250   1.519   1.890
  191WAT  HW2    763   4.390   1.571   1.917
  191WAT  MW     764   4.325   1.553   1.862
  192WAT  OW     765   2.255   3.777   5.554
  192WAT  HW1    766   2.203   3.857   5.558
  192WAT  HW2    767   2.200   3.711   5.595
  192WAT  MW     768   2.241   3.779   5.560
  193WAT  OW     769   5.292   0.559   0.130
  193WAT  HW1    770   5.279   0.584   0.039
  193WAT  HW2    771   5.216   0.596   0.176
  193WAT  MW     772   5.280   0.567   0.124
  194WAT  OW     773   3.366   0.733   3.505
  194WAT  HW1    774   3.288   0.724   3.451
  194WAT  HW2    775   3.335   0.772   3.587
  194WAT  MW     776   3.352   0.737   3.509
  195WAT  OW     777   3.774   0.172   4.421
  195WAT  HW1    778   3.745   0.194   4.333
  195WAT  HW2    779   3.745   0.246   4.475
  195WAT  MW     780   3.766   0.185   4.416
  196WAT  OW     781   4.341   1.422   6.266
  196WAT  HW1    782   4.379   1.453   6.184
  196WAT  HW2    783   4.408   1.364   6.303
  196WAT  MW     784   4.355   1.419   6.260
  197WAT  OW     785   2.488   2.768   5.682
  197WAT  HW1    786   2.541   2.735   5.609
  197WAT  HW2    787   2.552   2.795   5.748
  197WAT  MW     788   2.503   2.767   5.681
  198WAT  OW     789   5.958   1.311   3.542
  198WAT  HW1    790   5.890   1.245   3.551
  198WAT  HW2    791   5.920   1.391   3.578
  198WAT  MW     792   5.944   1.313   3.548
  199WAT  OW     793   5.585   3.791   0.701
  199WAT  HW1    794   5.511   3.836   0.743
  199WAT  HW2    795   5.559   3.785   0.609
  199WAT  MW     796   5.572   3.796   0.694
  200WAT  OW     797   6.456   5.261   5.007
  200WAT  HW1    798   6.386   5.195   5.005
  200WAT  HW2    799   6.532   5.215   4.969
  200WAT  MW     800   6.457   5.246   5.002
  201WAT  OW     801   3.616   1.454   4.903
  201WAT  HW1    802   3.580   1.535   4.941
  201WAT  HW2    803   3.710   1.460   4.920
  201WAT  MW     804   3.624   1.466   4.911
  202WAT  OW     805   4.131   5.873   6.146
  202WAT  HW1    806   4.207   5.814   6.144
  202WAT  HW2    807   4.058   5.817   6.173
  202WAT  MW     808   4.132   5.858   6.149
  203WAT  OW     809   0.461   3.626   6.189
  203WAT  HW1    810   0.553   3.637   6.213
  203WAT  HW2    811   0.428   3.715   6.178
  203WAT  MW     812   0.469   3.639   6.190
  204WAT  OW     813   2.387   0.263   2.937
  204WAT  HW1    814   2.395   0.257   3.032
  204WAT  HW2    815   2.357   0.352   2.920
  204WAT  MW     816   2.384   0.274   2.947
  205WAT  OW     817   2.664   3.203   3.676
  205WAT  HW1    818   2.686   3.286   3.718
  205WAT  HW2    819   2.572   3.188   3.699
  205WAT  MW     820   2.655   3.212   3.684
  206WAT  OW     821   1.835   1.996   2.067
  206WAT  HW1    822   1.774   1.958   2.131
  206WAT  HW2    823   1.809   2.088   2.062
  206WAT  MW     824   1.823   2.003   2.075
  207WAT  OW     825   5.439   4.244   0.673
  207WAT  HW1    826   5.367   4.297   0.637
  207WAT  HW2    827   5.513   4.263   0.615
  207WAT  MW     828   5.440   4.254   0.660
  208WAT  OW     829   4.831   1.564   2.323
  208WAT  HW1    830   4.885   1.595   2.251
  208WAT  HW2    831   4.892   1.552   2.396
  208WAT  MW     832   4.846   1.567   2.323
  209WAT  OW     833   1.482   3.937   3.713
  209WAT  HW1    834   1.542   3.875   3.671
  209WAT  HW2    835   1.442   3.984   3.640
  209WAT  MW     836   1.485   3.935   3.697
  210WAT  OW     837   2.961   4.557   5.822
  210WAT  HW1    838   2.922   4.595   5.743
  210WAT  HW2    839   2.895   4.496   5.855
  210WAT  MW     840   2.947   4.554   5.816
  211WAT  OW     841   3.030   5.831   4.245
  211WAT  HW1    842   2.948   5.872   4.275
  211WAT  HW2    843   3.053   5.770   4.314
  211WAT  MW     844   3.022   5.828   4.258
  212WAT  OW     845   3.762   0.579   2.520
  212WAT  HW1    846   3.793   0.565   2.431
  212WAT  HW2    847   3.668   0.561   2.516
  212WAT  MW     848   3.754   0.575   2.508
  213WAT  OW     849   3.775   2.713   0.950
  213WAT  HW1    850   3.763   2.623   0.979
  213WAT  HW2    851   3.861   2.713   0.908
  213WAT  MW     852   3.785   2.701   0.948
  214WAT  OW     853   1.367   0.733   4.096
  214WAT  HW1    854   1.379   0.681   4.017
  214WAT  HW2    855   1.442   0.709   4.152
  214WAT  MW     856   1.379   0.723   4.093
  215WAT  OW     857   2.319   5.185   1.582
  215WAT  HW1    858   2.316   5.268   1.535
  215WAT  HW2    859   2.330   5.209   1.674
  215WAT  MW     860   2.320   5.199   1.588
  216WAT  OW     861   1.141   1.856   5.877
  216WAT  HW1    862   1.227   1.897   5.872
  216WAT  HW2    863   1.111   1.850   5.786
  216WAT  MW     864   1.148   1.860   5.864
  217WAT  OW     865   4.494   2.493   6.437
  217WAT  HW1    866   4.524   2.467   6.350
  217WAT  HW2    867   4.523   2.422   6.495
  217WAT  MW     868   4.501   2.480   6.434
  218WAT  OW     869   5.321   6.512   0.479
  218WAT  HW1    870   5.301   6.605   0.493
  218WAT  HW2    871   5.236   6.471   0.463
  218WAT  MW     872   5.307   6.519   0.479
  219WAT  OW     873   0.666   5.200   0.079
  219WAT  HW1    874   0.672   5.160   0.165
  219WAT  HW2    875   0.628   5.287   0.096
  219WAT  MW     876   0.662   5.206   0.092
  220WAT  OW     877   2.078   3.049   5.597
  220WAT  HW1    878   2.040   3.124   5.642
  220WAT  HW2    879   2.072   3.071   5.504
  220WAT  MW     880   2.073   3.061   5.590
  221WAT  OW     881   2.901   3.163   0.317
  221WAT  HW1    882   2.949   3.238   0.352
  221WAT  HW2    883   2.810   3.182   0.337
  221WAT  MW     884   2.896   3.176   0.324
  222WAT  OW     885   4.109   3.243   4.847
  222WAT  HW1    886   4.062   3.194   4.915
  222WAT  HW2    887   4.199   3.247   4.880
  222WAT  MW     888   4.115   3.237   4.861
  223WAT  OW     889   1.949   1.462   0.523
  223WAT  HW1    890   2.011   1.390   0.513
  223WAT  HW2    891   1.905   1.468   0.438
  223WAT  MW     892   1.952   1.453   0.511
  224WAT  OW     893   5.176   1.898   4.270
  224WAT  HW1    894   5.116   1.844   4.322
  224WAT  HW2    895   5.242   1.929   4.332
  224WAT  MW     896   5.177   1.895   4.285
  225WAT  OW     897   6.049   4.399   0.409
  225WAT  HW1    898   6.121   4.371   0.352
  225WAT  HW2    899   6.067   4.359   0.494
  225WAT  MW     900   6.061   4.390   0.413
  226WAT  OW     901   4.963   6.642   5.396
  226WAT  HW1    902   4.967   6.716   5.456
  226WAT  HW2    903   4.917   6.676   5.319
  226WAT  MW     904   4.957   6.656   5.394
  227WAT  OW     905   3.510   5.725   5.501
  227WAT  HW1    906   3.462   5.643   5.491
  227WAT  HW2    907   3.581   5.704   5.561
  227WAT  MW     908   3.513   5.712   5.507
  228WAT  OW     909   0.879   6.065   6.001
  228WAT  HW1    910   0.899   6.100   6.088
  228WAT  HW2    911   0.934   5.988   5.993
  228WAT  MW     912   0.889   6.060   6.012
  229WAT  OW     913   3.455   6.042   3.094
  229WAT  HW1    914   3.530   5.989   3.067
  229WAT  HW2    915   3.389   5.978   3.122
  229WAT  MW     916   3.456   6.026   3.094
  230WAT  OW     917   1.945   1.007   1.947
  230WAT  HW1    918   2.019   1.045   1.994
  230WAT  HW2    919   1.962   1.027   1.855
  230WAT  MW     920   1.957   1.015   1.941
  231WAT  OW     921   1.171   3.861   2.684
  231WAT  HW1    922   1.153   3.953   2.664
  231WAT  HW2    923   1.103   3.813   2.638
  231WAT  MW     924   1.160   3.867   2.675
  232WAT  OW     925   1.212   2.657   4.631
  232WAT  HW1    926   1.187   2.665   4.723
  232WAT  HW2    927   1.134   2.685   4.583
  232WAT  MW     928   1.199   2.662   4.637
  233WAT  OW     929   1.005   1.549   3.589
  233WAT  HW1    930   1.064   1.584   3.523
  233WAT  HW2    931   0.960   1.476   3.546
  233WAT  MW     932   1.007   1.544   3.575
  234WAT  OW     933   6.238   5.070   6.128
  234WAT  HW1    934   6.330   5.055   6.150
  234WAT  HW2    935   6.201   5.115   6.203
  234WAT  MW     936   6.245   5.074   6.141
  235WAT  OW     937   6.560   0.638   1.952
  235WAT  HW1    938   6.489   0.623   1.890
  235WAT  HW2    939   6.547   0.728   1.982
  235WAT  MW     940   6.549   0.648   1.948
  236WAT  OW     941   2.160   5.063   3.412
  236WAT  HW1    942   2.150   5.054   3.317
  236WAT  HW2    943   2.202   4.981   3.439
  236WAT  MW     944   2.164   5.051   3.403
  237WAT  OW     945   6.231   4.289   3.855
  237WAT  HW1    946   6.221   4.371   3.807
  237WAT  HW2    947   6.324   4.268   3.848
  237WAT  MW     948   6.242   4.297   3.848
  238WAT  OW     949   0.440   1.220   1.204
  238WAT  HW1    950   0.380   1.283   1.166
  238WAT  HW2    951   0.517   1.271   1.230
  238WAT  MW     952   0.442   1.235   1.203
  239WAT  OW     953   2.849   5.979   4.408
  239WAT  HW1    954   2.832   6.070   4.386
  239WAT  HW2    955   2.900   5.983   4.489
  239WAT  MW     956   2.853   5.991   4.416
  240WAT  OW     957   1.249   5.738   5.295
  240WAT  HW1    958   1.325   5.681   5.306
  240WAT  HW2    959   1.194   5.695   5.230
  240WAT  MW     960   1.252   5.725   5.288
  241WAT  OW     961   5.862   5.552   4.929
  241WAT  HW1    962   5.800   5.489   4.891
  241WAT  HW2    963   5.845   5.634   4.882
  241WAT  MW     964   5.852   5.554   4.918
  242WAT  OW     965   4.389   6.551   3.477
  242WAT  HW1    966   4.319   6.615   3.495
  242WAT  HW2    967   4.343   6.470   3.458
  242WAT  MW     968   4.374   6.549   3.477
  243WAT  OW     969   1.431   2.030   5.379
  243WAT  HW1    970   1.381   2.019   5.298
  243WAT  HW2    971   1.510   1.977   5.366
  243WAT  MW     972   1.435   2.021   5.367
  244WAT  OW     973   5.770   6.359   6.016
  244WAT  HW1    974   5.856   6.388   5.985
  244WAT  HW2    975   5.712   6.372   5.941
  244WAT  MW     976   5.774   6.365   6.002
  245WAT  OW     977   6.656   0.664   2.878
  245WAT  HW1    978   6.709   0.689   2.954
  245WAT  HW2    979   6.687   0.722   2.808
  245WAT  MW     980   6.667   0.675   2.879
  246WAT  OW     981   0.230   4.428   4.545
  246WAT  HW1    982   0.300   4.471   4.496
  246WAT  HW2    983   0.228   4.473   4.629
  246WAT  MW     984   0.238   4.440   4.549
  247WAT  OW     985   4.804   1.929   0.241
  247WAT  HW1    986   4.820   2.012   0.196
  247WAT  HW2    987   4.737   1.886   0.189
  247WAT  MW     988   4.798   1.935   0.228
  248WAT  OW     989   4.080   2.997   2.562
  248WAT  HW1    990   4.173   2.994   2.538
  248WAT  HW2    991   4.063   2.911   2.600
  248WAT  MW     992   4.090   2.985   2.564
  249WAT  OW     993   0.059   0.343   3.469
  249WAT  HW1    994   0.132   0.281   3.464
  249WAT  HW2    995  -0.019   0.289   3.451
  249WAT  MW     996   0.058   0.327   3.466
  250WAT  OW     997   1.876   4.304   5.039
  250WAT  HW1    998   1.939   4.268   5.101
  250WAT  HW2    999   1.880   4.245   4.963
  250WAT  MW    1000   1.885   4.291   5.037
  251WAT  OW    1001   6.129   3.793   3.453
  251WAT  HW1   1002   6.150   3.765   3.364
  251WAT  HW2   1003   6.185   3.739   3.509
  251WAT  MW    1004   6.139   3.782   3.449
  252WAT  OW    1005   5.785   2.749   6.369
  252WAT  HW1   1006   5.767   2.757   6.463
  252WAT  HW2   1007   5.822   2.661   6.360
  252WAT  MW    1008   5.788   2.738   6.381
  253WAT  OW    1009   5.486   5.913   3.184
  253WAT  HW1   1010   5.528   5.903   3.099
  253WAT  HW2   1011   5.552   5.886   3.247
  253WAT  MW    1012   5.500   5.908   3.181
  254WAT  OW    1013   2.276   2.584   1.809
  254WAT  HW1   1014   2.238   2.580   1.896
  254WAT  HW2   1015   2.226   2.521   1.757
  254WAT  MW    1016   2.265   2.575   1.813
  255WAT  OW    1017   1.091   1.693   3.331
  255WAT  HW1   1018   1.099   1.769   3.388
  255WAT  HW2   1019   1.175   1.649   3.338
  255WAT  MW    1020   1.103   1.697   3.339
  256WAT  OW    1021   1.979   4.570   6.019
  256WAT  HW1   1022   2.016   4.491   6.058
  256WAT  HW2   1023   1.912   4.538   5.959
  256WAT  MW    1024   1.975   4.555   6.016
  257WAT  OW    1025   1.566   1.130   0.137
  257WAT  HW1   1026   1.495   1.084   0.092
  257WAT  HW2   1027   1.632   1.062   0.153
  257WAT  MW    1028   1.566   1.115   0.133
  258WAT  OW    1029   1.523   3.053   6.685
  258WAT  HW1   1030   1.457   3.065   6.617
  258WAT  HW2   1031   1.592   3.114   6.662
  258WAT  MW    1032   1.523   3.063   6.673
  259WAT  OW    1033   0.325   5.765   1.339
  259WAT  HW1   1034   0.398   5.703   1.334
  259WAT  HW2   1035   0.368   5.851   1.339
  259WAT  MW    1036   0.340   5.769   1.338
  260WAT  OW    1037   6.371   4.314   2.099
  260WAT  HW1   1038   6.452   4.306   2.149
  260WAT  HW2   1039   6.346   4.406   2.108
  260WAT  MW    1040   6.379   4.325   2.107
  261WAT  OW    1041   3.849   5.329   1.952
  261WAT  HW1   1042   3.794   5.373   2.017
  261WAT  HW2   1043   3.792   5.316   1.876
  261WAT  MW    1044   3.834   5.333   1.951
  262WAT  OW    1045   5.503   5.326   1.654
  262WAT  HW1   1046   5.492   5.419   1.671
  262WAT  HW2   1047   5.453   5.283   1.724
  262WAT  MW    1048   5.495   5.332   1.666
  263WAT  OW    1049   1.435   0.702   4.794
  263WAT  HW1   1050   1.407   0.697   4.703
  263WAT  HW2   1051   1.525   0.734   4.790
  263WAT  MW    1052   1.443   0.706   4.782
  264WAT  OW    1053   3.702   3.240   6.170
  264WAT  HW1   1054   3.701   3.292   6.090
  264WAT  HW2   1055   3.779   3.271   6.218
  264WAT  MW    1056   3.712   3.251   6.166
  265WAT  OW    1057   5.183   2.482   1.288
  265WAT  HW1   1058   5.141   2.397   1.300
  265WAT  HW2   1059   5.231   2.497   1.369
  265WAT  MW    1060   5.184   2.473   1.300
  266WAT  OW    1061   0.276   6.237   3.389
  266WAT  HW1   1062   0.283   6.324   3.427
  266WAT  HW2   1063   0.353   6.229   3.332
  266WAT  MW    1064   0.287   6.247   3.386
  267WAT  OW    1065   1.578   6.368   2.078
  267WAT  HW1   1066   1.488   6.372   2.111
  267WAT  HW2   1067   1.631   6.353   2.157
  267WAT  MW    1068   1.573   6.367   2.093
  268WAT  OW    1069   5.927   5.145   3.659
  268WAT  HW1   1070   5.838   5.126   3.628
  268WAT  HW2   1071   5.916   5.172   3.750
  268WAT  MW    1072   5.914   5.146   3.667
  269WAT  OW    1073   4.260   0.594   6.610
  269WAT  HW1   1074   4.173   0.555   6.603
  269WAT  HW2   1075   4.275   0.636   6.525
  269WAT  MW    1076   4.251   0.595   6.598
  270WAT  OW    1077   5.415   0.231   3.279
  270WAT  HW1   1078   5.374   0.317   3.272
  270WAT  HW2   1079   5.344   0.170   3.260
  270WAT  MW    1080   5.400   0.234   3.276
  271WAT  OW    1081   5.055   6.096   4.915
  271WAT  HW1   1082   5.112   6.080   4.990
  271WAT  HW2   1083   4.997   6.020   4.912
  271WAT  MW    1084   5.055   6.084   4.925
  272WAT  OW    1085   4.172   2.955   4.306
  272WAT  HW1   1086   4.166   3.044   4.271
  272WAT  HW2   1087   4.260   2.950   4.343
  272WAT  MW    1088   4.183   2.966   4.306
  273WAT  OW    1089   3.408   5.941   3.607
  273WAT  HW1   1090   3.401   5.878   3.536
  273WAT  HW2   1091   3.490   5.918   3.652
  273WAT  MW    1092   3.418   5.930   3.604
  274WAT  OW    1093   3.679   0.309   0.049
  274WAT  HW1   1094   3.724   0.383   0.089
  274WAT  HW2   1095   3.594   0.344   0.023
  274WAT  MW    1096   3.674   0.323   0.051
  275WAT  OW    1097   0.850   0.856   0.771
  275WAT  HW1   1098   0.860   0.780   0.713
  275WAT  HW2   1099   0.787   0.913   0.727
  275WAT  MW    1100   0.843   0.853   0.758
  276WAT  OW    1101   2.571   3.668   5.834
  276WAT  HW1   1102   2.536   3.756   5.818
  276WAT  HW2   1103   2.666   3.679   5.829
  276WAT  MW    1104   2.579   3.681   5.831
  277WAT  OW    1105   6.091   3.306   2.254
  277WAT  HW1   1106   6.003   3.267   2.251
  277WAT  HW2   1107   6.086   3.381   2.195
  277WAT  MW    1108   6.078   3.310   2.246
  278WAT  OW    1109   2.675   6.126   5.385
  278WAT  HW1   1110   2.714   6.049   5.425
  278WAT  HW2   1111   2.611   6.091   5.322
  278WAT  MW    1112   2.671   6.111   5.382
  279WAT  OW    1113   3.843   4.721   0.812
  279WAT  HW1   1114   3.875   4.654   0.872
  279WAT  HW2   1115   3.832   4.799   0.866
  279WAT  MW    1116   3.846   4.722   0.827
  280WAT  OW    1117   5.230   3.268   1.207
  280WAT  HW1   1118   5.242   3.178   1.238
  280WAT  HW2   1119   5.317   3.307   1.211
  280WAT  MW    1120   5.243   3.261   1.211
  281WAT  OW    1121   2.641   3.313   1.318
  281WAT  HW1   1122   2.699   3.253   1.271
  281WAT  HW2   1123   2.599   3.258   1.384
  281WAT  MW    1124   2.643   3.298   1.320
  282WAT  OW    1125   3.128   1.932   0.303
  282WAT  HW1   1126   3.049   1.926   0.356
  282WAT  HW2   1127   3.170   1.847   0.314
  282WAT  MW    1128   3.123   1.920   0.312
  283WAT  OW    1129   5.731   0.464   4.271
  283WAT  HW1   1130   5.658   0.524   4.287
  283WAT  HW2   1131   5.803   0.521   4.242
  283WAT  MW    1132   5.731   0.480   4.269
  284WAT  OW    1133   2.046   1.821   0.270
  284WAT  HW1   1134   2.076   1.760   0.203
  284WAT  HW2   1135   2.083   1.789   0.352
  284WAT  MW    1136   2.055   1.809   0.272
  285WAT  OW    1137   5.905   5.300   0.038
  285WAT  HW1   1138   5.883   5.336  -0.047
  285WAT  HW2   1139   5.939   5.376   0.087
  285WAT  MW    1140   5.907   5.315   0.034
  286WAT  OW    1141   1.234   5.225   4.358
  286WAT  HW1   1142   1.264   5.200   4.271
  286WAT  HW2   1143   1.184   5.305   4.344
  286WAT  MW    1144   1.231   5.232   4.345
  287WAT  OW    1145   3.378   3.059   0.441
  287WAT  HW1   1146   3.370   3.133   0.501
  287WAT  HW2   1147   3.472   3.038   0.442
  287WAT  MW    1148   3.390   3.066   0.449
  288WAT  OW    1149   5.449   3.742   2.288
  288WAT  HW1   1150   5.497   3.678   2.234
  288WAT  HW2   1151   5.395   3.790   2.225
  288WAT  MW    1152   5.448   3.740   2.272
  289WAT  OW    1153   6.446   3.032   1.235
  289WAT  HW1   1154   6.450   2.960   1.172
  289WAT  HW2   1155   6.511   3.095   1.203
  289WAT  MW    1156   6.455   3.031   1.223
  290WAT  OW    1157   3.678   1.091   4.671
  290WAT  HW1   1158   3.629   1.172   4.666
  290WAT  HW2   1159   3.738   1.094   4.596
  290WAT  MW    1160   3.680   1.102   4.660
  291WAT  OW    1161   0.319   5.287   1.407
  291WAT  HW1   1162   0.280   5.295   1.494
  291WAT  HW2   1163   0.244   5.270   1.349
  291WAT  MW    1164   0.304   5.286   1.411
  292WAT  OW    1165   4.164   1.610   4.886
  292WAT  HW1   1166   4.099   1.665   4.930
  292WAT  HW2   1167   4.186   1.658   4.806
  292WAT  MW    1168   4.158   1.623   4.881
  293WAT  OW    1169   4.355   5.047   1.936
  293WAT  HW1   1170   4.439   5.040   1.890
  293WAT  HW2   1171   4.300   5.100   1.879
  293WAT  MW    1172   4.359   5.053   1.922
  294WAT  OW    1173   0.782   5.970   0.142
  294WAT  HW1   1174   0.763   6.061   0.120
  294WAT  HW2   1175   0.834   5.937   0.069
  294WAT  MW    1176   0.786   5.978   0.130
  295WAT  OW    1177   5.835   3.504   4.283
  295WAT  HW1   1178   5.753   3.521   4.237
  295WAT  HW2   1179   5.880   3.439   4.229
  295WAT  MW    1180   5.830   3.498   4.270
  296WAT  OW    1181   2.785   1.142   0.212
  296WAT  HW1   1182   2.820   1.159   0.300
  296WAT  HW2   1183   2.862   1.130   0.157
  296WAT  MW    1184   2.800   1.143   0.217
  297WAT  OW    1185   3.225   0.099   5.040
  297WAT  HW1   1186   3.226   0.181   4.991
  297WAT  HW2   1187   3.264   0.120   5.125
  297WAT  MW    1188   3.231   0.112   5.044
  298WAT  OW    1189   1.545   2.318   3.481
  298WAT  HW1   1190   1.600   2.314   3.404
  298WAT  HW2   1191   1.590   2.264   3.546
  298WAT  MW    1192   1.558   2.310   3.480
  299WAT  OW    1193   0.164   0.188   1.342
  299WAT  HW1   1194   0.258   0.172   1.346
  299WAT  HW2   1195   0.157   0.283   1.336
  299WAT  MW    1196   0.176   0.199   1.342
  300WAT  OW    1197   4.945   2.696   0.994
  300WAT  HW1   1198   4.968   2.698   1.086
  300WAT  HW2   1199   4.851   2.715   0.992
  300WAT  MW    1200   4.936   2.699   1.006
  301WAT  OW    1201   5.150   5.635   0.285
  301WAT  HW1   1202   5.210   5.657   0.356
  301WAT  HW2   1203   5.178   5.549   0.255
  301WAT  MW    1204   5.161   5.626   0.290
  302WAT  OW    1205   0.912   1.725   4.484
  302WAT  HW1   1206   0.950   1.807   4.454
  302WAT  HW2   1207   0.985   1.678   4.524
  302WAT  MW    1208   0.927   1.729   4.485
  303WAT  OW    1209   5.602   5.777   1.124
  303WAT  HW1   1210   5.544   5.796   1.050
  303WAT  HW2   1211   5.547   5.726   1.184
  303WAT  MW    1212   5.587   5.773   1.122
  304WAT  OW    1213   2.199   5.317   1.023
  304WAT  HW1   1214   2.265   5.380   1.051
  304WAT  HW2   1215   2.119   5.346   1.068
  304WAT  MW    1216   2.197   5.329   1.033
  305WAT  OW    1217   6.290   1.004   5.589
  305WAT  HW1   1218   6.304   1.036   5.678
  305WAT  HW2   1219   6.201   0.970   5.589
  305WAT  MW    1220   6.280   1.004   5.601
  306WAT  OW    1221   3.358   4.309   1.729
  306WAT  HW1   1222   3.448   4.336   1.746
  306WAT  HW2   1223   3.364   4.248   1.656
  306WAT  MW    1224   3.371   4.305   1.722
  307WAT  OW    1225   5.070   2.262   5.380
  307WAT  HW1   1226   5.098   2.344   5.421
  307WAT  HW2   1227   5.138   2.243   5.315
  307WAT  MW    1228   5.082   2.270   5.377
  308WAT  OW    1229   5.793   1.710   4.302
  308WAT  HW1   1230   5.705   1.692   4.268
  308WAT  HW2   1231   5.813   1.635   4.358
  308WAT  MW    1232   5.784   1.698   4.305
  309WAT  OW    1233   4.346   0.978   0.032
  309WAT  HW1   1234   4.295   1.054   0.002
  309WAT  HW2   1235   4.281   0.915   0.061
  309WAT  MW    1236   4.331   0.980   0.032
  310WAT  OW    1237   0.353   6.344   0.173
  310WAT  HW1   1238   0.300   6.375   0.246
  310WAT  HW2   1239   0.397   6.423   0.140
  310WAT  MW    1240   0.352   6.359   0.178
  311WAT  OW    1241   0.846   1.264   4.898
  311WAT  HW1   1242   0.825   1.178   4.861
  311WAT  HW2   1243   0.841   1.324   4.824
  311WAT  MW    1244   0.843   1.260   4.884
  312WAT  OW    1245   0.453   6.565   0.011
  312WAT  HW1   1246   0.371   6.615   0.003
  312WAT  HW2   1247   0.522   6.631   0.008
  312WAT  MW    1248   0.451   6.580   0.010
  313WAT  OW    1249   1.170   1.080   0.336
  313WAT  HW1   1250   1.234   1.142   0.371
  313WAT  HW2   1251   1.210   0.994   0.348
  313WAT  MW    1252   1.184   1.077   0.342
  314WAT  OW    1253   1.464   4.971   1.655
  314WAT  HW1   1254   1.500   4.893   1.698
  314WAT  HW2   1255   1.410   5.012   1.722
  314WAT  MW    1256   1.462   4.966   1.670
  315WAT  OW    1257   1.882   3.257   0.559
  315WAT  HW1   1258   1.839   3.308   0.490
  315WAT  HW2   1259   1.815   3.246   0.626
  315WAT  MW    1260   1.868   3.262   0.558
  316WAT  OW    1261   2.785   0.019   0.802
  316WAT  HW1   1262   2.856   0.082   0.814
  316WAT  HW2   1263   2.829  -0.066   0.798
  316WAT  MW    1264   2.800   0.016   0.803
  317WAT  OW    1265   2.717   0.577   1.694
  317WAT  HW1   1266   2.804   0.542   1.678
  317WAT  HW2   1267   2.663   0.501   1.716
  317WAT  MW    1268   2.721   0.562   1.695
  318WAT  OW    1269   0.211   2.020   5.328
  318WAT  HW1   1270   0.258   2.067   5.397
  318WAT  HW2   1271   0.175   2.088   5.272
  318WAT  MW    1272   0.212   2.035   5.330
  319WAT  OW    1273   5.079   4.430   4.399
  319WAT  HW1   1274   5.035   4.345   4.404
  319WAT  HW2   1275   5.008   4.493   4.381
  319WAT  MW    1276   5.064   4.427   4.397
  320WAT  OW    1277   4.966   2.767   0.511
  320WAT  HW1   1278   4.921   2.781   0.428
  320WAT  HW2   1279   5.043   2.716   0.489
  320WAT  MW    1280   4.970   2.762   0.497
  321WAT  OW    1281   3.922   2.879   6.334
  321WAT  HW1   1282   3.917   2.917   6.246
  321WAT  HW2   1283   3.839   2.903   6.375
  321WAT  MW    1284   3.910   2.888   6.328
  322WAT  OW    1285   1.930   4.763   3.348
  322WAT  HW1   1286   1.956   4.736   3.260
  322WAT  HW2   1287   1.892   4.685   3.386
  322WAT  MW    1288   1.929   4.749   3.341
  323WAT  OW    1289   5.592   1.205   0.103
  323WAT  HW1   1290   5.514   1.159   0.133
  323WAT  HW2   1291   5.653   1.199   0.176
  323WAT  MW    1292   5.590   1.198   0.116
  324WAT  OW    1293   0.997   1.279   6.416
  324WAT  HW1   1294   0.973   1.298   6.506
  324WAT  HW2   1295   0.923   1.229   6.381
  324WAT  MW    1296   0.984   1.275   6.423
  325WAT  OW    1297   5.841   0.097   3.703
  325WAT  HW1   1298   5.863   0.016   3.657
  325WAT  HW2   1299   5.888   0.091   3.786
  325WAT  MW    1300   5.850   0.086   3.708
  326WAT  OW    1301   5.487   1.684   1.040
  326WAT  HW1   1302   5.514   1.776   1.040
  326WAT  HW2   1303   5.548   1.641   1.100
  326WAT  MW    1304   5.499   1.690   1.048
  327WAT  OW    1305   6.174   4.523   0.000
  327WAT  HW1   1306   6.110   4.479   0.056
  327WAT  HW2   1307   6.124   4.550  -0.077
  327WAT  MW    1308   6.159   4.521  -0.002
  328WAT  OW    1309   4.786   3.569   0.247
  328WAT  HW1   1310   4.848   3.638   0.221
  328WAT  HW2   1311   4.838   3.512   0.305
  328WAT  MW    1312   4.801   3.571   0.251
  329WAT  OW    1313   4.537   1.049   4.217
  329WAT  HW1   1314   4.468   1.049   4.151
  329WAT  HW2   1315   4.585   1.130   4.202
  329WAT  MW    1316   4.534   1.059   4.206
  330WAT  OW    1317   2.374   3.017   5.681
  330WAT  HW1   1318   2.283   2.989   5.681
  330WAT  HW2   1319   2.424   2.936   5.669
  330WAT  MW    1320   2.369   3.003   5.680
  331WAT  OW    1321   5.570   4.719   0.514
  331WAT  HW1   1322   5.618   4.636   0.513
  331WAT  HW2   1323   5.605   4.769   0.440
  331WAT  MW    1324   5.581   4.715   0.504
  332WAT  OW    1325   2.360   2.835   1.700
  332WAT  HW1   1326   2.445   2.855   1.739
  332WAT  HW2   1327   2.349   2.741   1.714
  332WAT  MW    1328   2.370   2.825   1.707
  333WAT  OW    1329   1.270   3.979   1.857
  333WAT  HW1   1330   1.231   4.036   1.791
  333WAT  HW2   1331   1.259   4.027   1.939
  333WAT  MW    1332   1.263   3.993   1.859
  334WAT  OW    1333   3.304   0.825   0.107
  334WAT  HW1   1334   3.267   0.738   0.120
  334WAT  HW2   1335   3.318   0.830   0.012
  334WAT  MW    1336   3.301   0.814   0.096
  335WAT  OW    1337   1.999   3.473   3.929
  335WAT  HW1   1338   1.972   3.548   3.875
  335WAT  HW2   1339   1.960   3.491   4.015
  335WAT  MW    1340   1.990   3.485   3.933
  336WAT  OW    1341   0.889   5.722   0.832
  336WAT  HW1   1342   0.891   5.627   0.826
  336WAT  HW2   1343   0.964   5.745   0.888
  336WAT  MW    1344   0.899   5.713   0.839
  337WAT  OW    1345   3.157   3.284   5.945
  337WAT  HW1   1346   3.079   3.242   5.983
  337WAT  HW2   1347   3.130   3.308   5.857
  337WAT  MW    1348   3.143   3.282   5.939
  338WAT  OW    1349   3.676   6.326   2.745
  338WAT  HW1   1350   3.756   6.273   2.752
  338WAT  HW2   1351   3.704   6.404   2.697
  338WAT  MW    1352   3.691   6.329   2.740
  339WAT  OW    1353   1.106   5.279   3.002
  339WAT  HW1   1354   1.178   5.218   2.988
  339WAT  HW2   1355   1.061   5.246   3.079
  339WAT  MW    1356   1.110   5.267   3.010
  340WAT  OW    1357   5.900   5.974   4.199
  340WAT  HW1   1358   5.872   5.882   4.201
  340WAT  HW2   1359   5.947   5.986   4.281
  340WAT  MW    1360   5.903   5.963   4.210
  341WAT  OW    1361   2.067   3.072   3.177
  341WAT  HW1   1362   2.101   3.002   3.233
  341WAT  HW2   1363   2.088   3.153   3.224
  341WAT  MW    1364   2.074   3.073   3.191
  342WAT  OW    1365   6.487   2.448   4.101
  342WAT  HW1   1366   6.503   2.521   4.160
  342WAT  HW2   1367   6.573   2.409   4.086
  342WAT  MW    1368   6.500   2.453   4.106
  343WAT  OW    1369   3.382   5.630   1.432
  343WAT  HW1   1370   3.425   5.564   1.488
  343WAT  HW2   1371   3.445   5.702   1.429
  343WAT  MW    1372   3.396   5.631   1.439
  344WAT  OW    1373   0.004   2.931   5.044
  344WAT  HW1   1374  -0.036   2.979   5.116
  344WAT  HW2   1375  -0.032   2.971   4.965
  344WAT  MW    1376  -0.006   2.943   5.043
  345WAT  OW    1377   1.664   5.643   2.043
  345WAT  HW1   1378   1.725   5.689   2.102
  345WAT  HW2   1379   1.690   5.551   2.049
  345WAT  MW    1380   1.676   5.637   2.052
  346WAT  OW    1381   6.485   5.099   2.456
  346WAT  HW1   1382   6.456   5.028   2.512
  346WAT  HW2   1383   6.553   5.060   2.401
  346WAT  MW    1384   6.490   5.085   2.456
  347WAT  OW    1385   2.619   0.397   3.710
  347WAT  HW1   1386   2.537   0.440   3.683
  347WAT  HW2   1387   2.615   0.396   3.806
  347WAT  MW    1388   2.608   0.403   3.719
  348WAT  OW    1389   4.732   4.189   6.673
  348WAT  HW1   1390   4.804   4.253   6.668
  348WAT  HW2   1391   4.733   4.146   6.587
  348WAT  MW    1392   4.742   4.192   6.661
  349WAT  OW    1393   2.162   5.502   0.091
  349WAT  HW1   1394   2.083   5.448   0.086
  349WAT  HW2   1395   2.151   5.569   0.023
  349WAT  MW    1396   2.150   5.504   0.081
  350WAT  OW    1397   4.710   5.589   4.946
  350WAT  HW1   1398   4.674   5.577   4.858
  350WAT  HW2   1399   4.697   5.682   4.965
  350WAT  MW    1400   4.704   5.599   4.936
  351WAT  OW    1401   3.710   3.713   5.882
  351WAT  HW1   1402   3.677   3.726   5.971
  351WAT  HW2   1403   3.642   3.752   5.826
  351WAT  MW    1404   3.696   3.720   5.886
  352WAT  OW    1405   0.601   5.450   2.909
  352WAT  HW1   1406   0.537   5.385   2.936
  352WAT  HW2   1407   0.551   5.514   2.859
  352WAT  MW    1408   0.586   5.450   2.906
  353WAT  OW    1409   4.936   6.034   6.105
  353WAT  HW1   1410   4.929   6.110   6.046
  353WAT  HW2   1411   4.911   6.068   6.190
  353WAT  MW    1412   4.932   6.049   6.108
  354WAT  OW    1413   1.487   6.194   6.191
  354WAT  HW1   1414   1.507   6.200   6.097
  354WAT  HW2   1415   1.564   6.232   6.234
  354WAT  MW    1416   1.500   6.200   6.184
  355WAT  OW    1417   5.831   4.232   6.222
  355WAT  HW1   1418   5.825   4.311   6.276
  355WAT  HW2   1419   5.740   4.211   6.201
  355WAT  MW    1420   5.818   4.240   6.226
  356WAT  OW    1421   3.697   1.497   2.290
  356WAT  HW1   1422   3.644   1.551   2.348
  356WAT  HW2   1423   3.644   1.418   2.277
  356WAT  MW    1424   3.683   1.493   2.296
  357WAT  OW    1425   4.316   4.239   1.890
  357WAT  HW1   1426   4.327   4.232   1.795
  357WAT  HW2   1427   4.404   4.227   1.925
  357WAT  MW    1428   4.329   4.236   1.882
  358WAT  OW    1429   2.040   2.536   2.080
  358WAT  HW1   1430   2.094   2.584   2.142
  358WAT  HW2   1431   1.950   2.561   2.102
  358WAT  MW    1432   2.035   2.546   2.091
  359WAT  OW    1433   4.619   6.550   4.697
  359WAT  HW1   1434   4.546   6.606   4.671
  359WAT  HW2   1435   4.607   6.469   4.647
  359WAT  MW    1436   4.608   6.546   4.687
  360WAT  OW    1437   5.699   4.639   1.926
  360WAT  HW1   1438   5.721   4.633   2.019
  360WAT  HW2   1439   5.782   4.624   1.881
  360WAT  MW    1440   5.713   4.636   1.932
  361WAT  OW    1441   3.163   3.707   0.837
  361WAT  HW1   1442   3.128   3.644   0.774
  361WAT  HW2   1443   3.145   3.668   0.922
  361WAT  MW    1444   3.156   3.693   0.840
  362WAT  OW    1445   0.033   2.259   2.617
  362WAT  HW1   1446   0.007   2.187   2.559
  362WAT  HW2   1447   0.001   2.233   2.703
  362WAT  MW    1448   0.025   2.246   2.621
  363WAT  OW    1449   1.594   2.435   0.762
  363WAT  HW1   1450   1.568   2.353   0.804
  363WAT  HW2   1451   1.628   2.489   0.834
  363WAT  MW    1452   1.595   2.431   0.777
  364WAT  OW    1453   1.034   5.317   0.272
  364WAT  HW1   1454   1.052   5.254   0.202
  364WAT  HW2   1455   0.973   5.380   0.233
  364WAT  MW    1456   1.028   5.317   0.258
  365WAT  OW    1457   6.238   5.283   2.552
  365WAT  HW1   1458   6.218   5.372   2.580
  365WAT  HW2   1459   6.250   5.290   2.457
  365WAT  MW    1460   6.237   5.296   2.543
  366WAT  OW    1461   6.340   0.064   0.403
  366WAT  HW1   1462   6.331   0.019   0.319
  366WAT  HW2   1463   6.409   0.128   0.389
  366WAT  MW    1464   6.348   0.066   0.390
  367WAT  OW    1465   0.489   0.456   5.825
  367WAT  HW1   1466   0.498   0.382   5.886
  367WAT  HW2   1467   0.450   0.418   5.747
  367WAT  MW    1468   0.485   0.441   5.823
  368WAT  OW    1469   2.947   0.906   3.381
  368WAT  HW1   1470   2.915   0.993   3.358
  368WAT  HW2   1471   3.040   0.918   3.398
  368WAT  MW    1472   2.955   0.919   3.380
  369WAT  OW    1473   1.512   5.292   1.890
  369WAT  HW1   1474   1.559   5.209   1.883
  369WAT  HW2   1475   1.515   5.314   1.983
  369WAT  MW    1476   1.519   5.284   1.901
  370WAT  OW    1477   1.119   4.261   6.357
  370WAT  HW1   1478   1.050   4.245   6.292
  370WAT  HW2   1479   1.084   4.226   6.439
  370WAT  MW    1480   1.105   4.254   6.359
  371WAT  OW    1481   1.553   3.210   5.336
  371WAT  HW1   1482   1.561   3.304   5.321
  371WAT  HW2   1483   1.598   3.195   5.419
  371WAT  MW    1484   1.560   3.221   5.345
  372WAT  OW    1485   2.377   0.202   4.898
  372WAT  HW1   1486   2.363   0.109   4.918
  372WAT  HW2   1487   2.296   0.245   4.928
  372WAT  MW    1488   2.364   0.196   4.905
  373WAT  OW    1489   6.581   3.738   0.517
  373WAT  HW1   1490   6.531   3.777   0.589
  373WAT  HW2   1491   6.661   3.790   0.512
  373WAT  MW    1492   6.585   3.750   0.526
  374WAT  OW    1493   2.252   0.055   2.499
  374WAT  HW1   1494   2.308   0.014   2.565
  374WAT  HW2   1495   2.271   0.148   2.507
  374WAT  MW    1496   2.262   0.062   2.509
  375WAT  OW    1497   3.020   3.520   4.135
  375WAT  HW1   1498   3.010   3.613   4.117
  375WAT  HW2   1499   2.959   3.477   4.074
  375WAT  MW    1500   3.011   3.527   4.125
  376WAT  OW    1501   0.854   6.528   0.763
  376WAT  HW1   1502   0.778   6.492   0.809
  376WAT  HW2   1503   0.900   6.451   0.728
  376WAT  MW    1504   0.850   6.513   0.764
  377WAT  OW    1505   2.617   6.154   4.619
  377WAT  HW1   1506   2.615   6.084   4.554
  377WAT  HW2   1507   2.529   6.191   4.617
  377WAT  MW    1508   2.605   6.149   4.610
  378WAT  OW    1509   4.998   5.571   2.789
  378WAT  HW1   1510   4.969   5.658   2.760
  378WAT  HW2   1511   4.918   5.522   2.802
  378WAT  MW    1512   4.984   5.576   2.787
  379WAT  OW    1513   4.051   6.143   3.189
  379WAT  HW1   1514   3.981   6.103   3.241
  379WAT  HW2   1515   4.009   6.216   3.144
  379WAT  MW    1516   4.036   6.147   3.190
  380WAT  OW    1517   0.988   5.546   1.026
  380WAT  HW1   1518   0.970   5.553   1.120
  380WAT  HW2   1519   0.946   5.464   1.000
  380WAT  MW    1520   0.980   5.536   1.035
  381WAT  OW    1521   1.317   5.289   2.634
  381WAT  HW1   1522   1.242   5.315   2.580
  381WAT  HW2   1523   1.284   5.217   2.688
  381WAT  MW    1524   1.303   5.283   2.634
  382WAT  OW    1525   2.360   1.659   1.063
  382WAT  HW1   1526   2.396   1.686   1.147
  382WAT  HW2   1527   2.349   1.741   1.014
  382WAT  MW    1528   2.364   1.673   1.067
  383WAT  OW    1529   3.247   1.224   2.327
  383WAT  HW1   1530   3.212   1.259   2.409
  383WAT  HW2   1531   3.195   1.144   2.311
  383WAT  MW    1532   3.235   1.218   2.336
  384WAT  OW    1533   5.845   4.677   1.296
  384WAT  HW1   1534   5.921   4.717   1.254
  384WAT  HW2   1535   5.877   4.647   1.381
  384WAT  MW    1536   5.859   4.678   1.302
  385WAT  OW    1537   0.960   2.528   2.211
  385WAT  HW1   1538   1.004   2.476   2.278
  385WAT  HW2   1539   0.867   2.509   2.222
  385WAT  MW    1540   0.953   2.519   2.221
  386WAT  OW    1541   3.076   6.129   1.725
  386WAT  HW1   1542   3.000   6.138   1.668
  386WAT  HW2   1543   3.081   6.035   1.743
  386WAT  MW    1544   3.067   6.117   1.719
  387WAT  OW    1545   1.641   2.117   2.817
  387WAT  HW1   1546   1.614   2.026   2.807
  387WAT  HW2   1547   1.594   2.164   2.748
  387WAT  MW    1548   1.632   2.112   2.806
  388WAT  OW    1549   5.980   1.896   5.105
  388WAT  HW1   1550   6.066   1.933   5.087
  388WAT  HW2   1551   5.943   1.953   5.172
  388WAT  MW    1552   5.986   1.908   5.111
  389WAT  OW    1553   4.550   5.252   1.432
  389WAT  HW1   1554   4.486   5.197   1.386
  389WAT  HW2   1555   4.496   5.307   1.489
  389WAT  MW    1556   4.534   5.252   1.433
  390WAT  OW    1557   6.395   2.049   4.347
  390WAT  HW1   1558   6.395   2.116   4.416
  390WAT  HW2   1559   6.331   1.984   4.377
  390WAT  MW    1560   6.387   2.050   4.360
  391WAT  OW    1561   2.329   0.520   2.885
  391WAT  HW1   1562   2.280   0.525   2.803
  391WAT  HW2   1563   2.274   0.567   2.948
  391WAT  MW    1564   2.315   0.527   2.882
  392WAT  OW    1565   1.413   1.234   0.377
  392WAT  HW1   1566   1.449   1.303   0.433
  392WAT  HW2   1567   1.473   1.230   0.302
  392WAT  MW    1568   1.426   1.243   0.374
  393WAT  OW    1569   2.522   0.841   5.765
  393WAT  HW1   1570   2.428   0.853   5.751
  393WAT  HW2   1571   2.527   0.764   5.823
  393WAT  MW    1572   2.510   0.832   5.771
  394WAT  OW    1573   3.803   6.387   5.078
  394WAT  HW1   1574   3.829   6.475   5.051
  394WAT  HW2   1575   3.728   6.366   5.023
  394WAT  MW    1576   3.796   6.396   5.067
  395WAT  OW    1577   1.619   4.636   2.284
  395WAT  HW1   1578   1.528   4.634   2.315
  395WAT  HW2   1579   1.611   4.642   2.189
  395WAT  MW    1580   1.606   4.637   2.276
  396WAT  OW    1581   6.292   4.844   4.929
  396WAT  HW1   1582   6.245   4.784   4.987
  396WAT  HW2   1583   6.269   4.931   4.962
  396WAT  MW    1584   6.283   4.848   4.941
  397WAT  OW    1585   0.345   2.142   1.695
  397WAT  HW1   1586   0.438   2.140   1.714
  397WAT  HW2   1587   0.311   2.216   1.746
  397WAT  MW    1588   0.353   2.152   1.704
  398WAT  OW    1589   6.554   1.059   2.833
  398WAT  HW1   1590   6.605   0.990   2.791
  398WAT  HW2   1591   6.467   1.019   2.847
  398WAT  MW    1592   6.549   1.044   2.830
  399WAT  OW    1593   3.747   2.423   6.610
  399WAT  HW1   1594   3.834   2.396   6.640
  399WAT  HW2   1595   3.764   2.501   6.557
  399WAT  MW    1596   3.761   2.430   6.607
  400WAT  OW    1597   3.788   0.995   1.353
  400WAT  HW1   1598   3.862   1.055   1.354
  400WAT  HW2   1599   3.718   1.044   1.311
  400WAT  MW    1600   3.789   1.009   1.347
  401WAT  OW    1601   4.799   0.683   3.155
  401WAT  HW1   1602   4.807   0.728   3.071
  401WAT  HW2   1603   4.842   0.742   3.218
  401WAT  MW    1604   4.806   0.697   3.152
  402WAT  OW    1605   4.669   5.143   0.070
  402WAT  HW1   1606   4.660   5.138  -0.024
  402WAT  HW2   1607   4.653   5.054   0.101
  402WAT  MW    1608   4.666   5.131   0.062
  403WAT  OW    1609   2.390   1.376   3.916
  403WAT  HW1   1610   2.455   1.312   3.886
  403WAT  HW2   1611   2.388   1.442   3.847
  403WAT  MW    1612   2.398   1.377   3.903
  404WAT  OW    1613   4.564   0.297   2.176
  404WAT  HW1   1614   4.641   0.286   2.120
  404WAT  HW2   1615   4.595   0.348   2.250
  404WAT  MW    1616   4.578   0.302   2.178
  405WAT  OW    1617   1.073   5.016   4.450
  405WAT  HW1   1618   1.120   5.099   4.446
  405WAT  HW2   1619   1.132   4.957   4.497
  405WAT  MW    1620   1.087   5.019   4.456
  406WAT  OW    1621   0.130   4.993   0.675
  406WAT  HW1   1622   0.225   4.980   0.681
  406WAT  HW2   1623   0.109   4.972   0.584
  406WAT  MW    1624   0.140   4.989   0.664
  407WAT  OW    1625   5.579   2.878   3.180
  407WAT  HW1   1626   5.505   2.904   3.236
  407WAT  HW2   1627   5.538   2.851   3.098
  407WAT  MW    1628   5.564   2.878   3.176
  408WAT  OW    1629   3.690   2.910   0.430
  408WAT  HW1   1630   3.754   2.940   0.494
  408WAT  HW2   1631   3.729   2.930   0.345
  408WAT  MW    1632   3.703   2.917   0.427
  409WAT  OW    1633   2.929   2.676   6.300
  409WAT  HW1   1634   3.001   2.619   6.327
  409WAT  HW2   1635   2.855   2.616   6.290
  409WAT  MW    1636   2.929   2.660   6.302
  410WAT  OW    1637   2.680   2.528   3.065
  410WAT  HW1   1638   2.761   2.554   3.022
  410WAT  HW2   1639   2.619   2.511   2.993
  410WAT  MW    1640   2.683   2.529   3.050
  411WAT  OW    1641   1.724   4.311   1.263
  411WAT  HW1   1642   1.660   4.381   1.274
  411WAT  HW2   1643   1.680   4.247   1.207
  411WAT  MW    1644   1.710   4.312   1.257
  412WAT  OW    1645   0.355   1.429   0.107
  412WAT  HW1   1646   0.319   1.517   0.108
  412WAT  HW2   1647   0.378   1.414   0.015
  412WAT  MW    1648   0.354   1.438   0.095
  413WAT  OW    1649   0.714   0.974   4.010
  413WAT  HW1   1650   0.807   0.980   4.033
  413WAT  HW2   1651   0.679   1.061   4.031
  413WAT  MW    1652   0.722   0.987   4.016
  414WAT  OW    1653   2.867   0.902   3.760
  414WAT  HW1   1654   2.908   0.823   3.725
  414WAT  HW2   1655   2.810   0.932   3.689
  414WAT  MW    1656   2.865   0.895   3.746
  415WAT  OW    1657   0.609   2.744   3.684
  415WAT  HW1   1658   0.518   2.715   3.689
  415WAT  HW2   1659   0.656   2.683   3.741
  415WAT  MW    1660   0.603   2.732   3.692
  416WAT  OW    1661   3.618   2.505   4.180
  416WAT  HW1   1662   3.667   2.542   4.253
  416WAT  HW2   1663   3.673   2.522   4.104
  416WAT  MW    1664   3.632   2.512   4.180
  417WAT  OW    1665   4.666   4.456   5.690
  417WAT  HW1   1666   4.636   4.473   5.601
  417WAT  HW2   1667   4.587   4.464   5.744
  417WAT  MW    1668   4.651   4.459   5.685
  418WAT  OW    1669   0.581   3.470   0.833
  418WAT  HW1   1670   0.651   3.510   0.782
  418WAT  HW2   1671   0.596   3.500   0.923
  418WAT  MW    1672   0.592   3.479   0.838
  419WAT  OW    1673   3.232   0.336   1.230
  419WAT  HW1   1674   3.174   0.362   1.158
  419WAT  HW2   1675   3.285   0.265   1.193
  419WAT  MW    1676   3.232   0.330   1.215
  420WAT  OW    1677   5.590   3.148   1.308
  420WAT  HW1   1678   5.560   3.110   1.225
  420WAT  HW2   1679   5.583   3.076   1.371
  420WAT  MW    1680   5.585   3.133   1.305
  421WAT  OW    1681   3.656   2.970   1.408
  421WAT  HW1   1682   3.584   3.021   1.370
  421WAT  HW2   1683   3.632   2.879   1.393
  421WAT  MW    1684   3.644   2.965   1.401
  422WAT  OW    1685   2.540   4.518   4.270
  422WAT  HW1   1686   2.521   4.451   4.204
  422WAT  HW2   1687   2.620   4.560   4.240
  422WAT  MW    1688   2.548   4.514   4.257
  423WAT  OW    1689   1.871   2.435   0.679
  423WAT  HW1   1690   1.782   2.441   0.713
  423WAT  HW2   1691   1.899   2.346   0.702
  423WAT  MW    1692   1.863   2.424   0.687
  424WAT  OW    1693   3.754   4.015   3.188
  424WAT  HW1   1694   3.800   4.046   3.265
  424WAT  HW2   1695   3.820   4.014   3.119
  424WAT  MW    1696   3.768   4.019   3.189
  425WAT  OW    1697   6.437   0.986   4.246
  425WAT  HW1   1698   6.409   1.060   4.191
  425WAT  HW2   1699   6.410   1.011   4.334
  425WAT  MW    1700   6.429   0.999   4.250
  426WAT  OW    1701   5.731   1.126   3.678
  426WAT  HW1   1702   5.732   1.065   3.604
  426WAT  HW2   1703   5.773   1.078   3.749
  426WAT  MW    1704   5.737   1.112   3.678
  427WAT  OW    1705   5.816   0.178   1.287
  427WAT  HW1   1706   5.787   0.097   1.328
  427WAT  HW2   1707   5.747   0.242   1.308
  427WAT  MW    1708   5.803   0.176   1.296
  428WAT  OW    1709   4.549   5.325   5.323
  428WAT  HW1   1710   4.469   5.275   5.305
  428WAT  HW2   1711   4.558   5.384   5.249
  428WAT  MW    1712   4.539   5.326   5.311
  429WAT  OW    1713   4.709   2.781   3.404
  429WAT  HW1   1714   4.667   2.851   3.452
  429WAT  HW2   1715   4.795   2.771   3.446
  429WAT  MW    1716   4.715   2.789   3.416
  430WAT  OW    1717   0.362   2.212   1.421
  430WAT  HW1   1718   0.382   2.172   1.506
  430WAT  HW2   1719   0.267   2.205   1.413
  430WAT  MW    1720   0.352   2.205   1.431
  431WAT  OW    1721   6.413   3.331   6.345
  431WAT  HW1   1722   6.435   3.269   6.275
  431WAT  HW2   1723   6.332   3.296   6.383
  431WAT  MW    1724   6.405   3.318   6.340
  432WAT  OW    1725   0.347   0.675   1.912
  432WAT  HW1   1726   0.344   0.765   1.878
  432WAT  HW2   1727   0.293   0.678   1.992
  432WAT  MW    1728   0.339   0.688   1.918
  433WAT  OW    1729   5.988   2.272   5.065
  433WAT  HW1   1730   6.013   2.364   5.065
  433WAT  HW2   1731   6.071   2.225   5.060
  433WAT  MW    1732   6.002   2.278   5.064
  434WAT  OW    1733   5.443   2.262   2.444
  434WAT  HW1   1734   5.459   2.326   2.514
  434WAT  HW2   1735   5.498   2.187   2.467
  434WAT  MW    1736   5.453   2.261   2.456
  435WAT  OW    1737   5.301   2.967   2.202
  435WAT  HW1   1738   5.345   2.979   2.118
  435WAT  HW2   1739   5.319   2.877   2.227
  435WAT  MW    1740   5.309   2.957   2.194
  436WAT  OW    1741   0.245   2.691   1.826
  436WAT  HW1   1742   0.246   2.676   1.921
  436WAT  HW2   1743   0.189   2.768   1.815
  436WAT  MW    1744   0.237   2.699   1.837
  437WAT  OW    1745   1.198   2.021   0.301
  437WAT  HW1   1746   1.125   2.008   0.241
  437WAT  HW2   1747   1.157   2.026   0.388
  437WAT  MW    1748   1.183   2.020   0.305
  438WAT  OW    1749   3.079   2.476   0.827
  438WAT  HW1   1750   3.118   2.475   0.740
  438WAT  HW2   1751   3.146   2.441   0.885
  438WAT  MW    1752   3.093   2.472   0.824
  439WAT  OW    1753   3.389   0.507   0.891
  439WAT  HW1   1754   3.423   0.440   0.950
  439WAT  HW2   1755   3.422   0.482   0.804
  439WAT  MW    1756   3.398   0.495   0.887
  440WAT  OW    1757   5.243   2.061   2.378
  440WAT  HW1   1758   5.155   2.099   2.378
  440WAT  HW2   1759   5.302   2.136   2.388
  440WAT  MW    1760   5.239   2.076   2.379
  441WAT  OW    1761   3.994   2.233   5.277
  441WAT  HW1   1762   4.033   2.266   5.196
  441WAT  HW2   1763   3.980   2.311   5.330
  441WAT  MW    1764   3.997   2.248   5.273
  442WAT  OW    1765   0.304   1.746   2.842
  442WAT  HW1   1766   0.369   1.807   2.805
  442WAT  HW2   1767   0.240   1.734   2.772
  442WAT  MW    1768   0.304   1.752   2.828
  443WAT  OW    1769   1.750   6.670   5.470
  443WAT  HW1   1770   1.821   6.720   5.430
  443WAT  HW2   1771   1.750   6.696   5.562
  443WAT  MW    1772   1.759   6.680   5.477
  444WAT  OW    1773   1.934   1.375   0.942
  444WAT  HW1   1774   1.985   1.443   0.987
  444WAT  HW2   1775   1.850   1.374   0.989
  444WAT  MW    1776   1.930   1.384   0.955
  445WAT  OW    1777   6.175   5.407   1.547
  445WAT  HW1   1778   6.163   5.486   1.599
  445WAT  HW2   1779   6.102   5.350   1.571
  445WAT  MW    1780   6.164   5.410   1.557
  446WAT  OW    1781   2.181   6.571   4.503
  446WAT  HW1   1782   2.101   6.622   4.515
  446WAT  HW2   1783   2.250   6.623   4.544
  446WAT  MW    1784   2.180   6.584   4.510
  447WAT  OW    1785   6.195   2.376   2.619
  447WAT  HW1   1786   6.208   2.464   2.654
  447WAT  HW2   1787   6.143   2.389   2.539
  447WAT  MW    1788   6.190   2.389   2.613
  448WAT  OW    1789   6.040   3.340   3.342
  448WAT  HW1   1790   6.107   3.373   3.402
  448WAT  HW2   1791   5.957   3.367   3.383
  448WAT  MW    1792   6.038   3.348   3.356
  449WAT  OW    1793   6.239   2.922   3.355
  449WAT  HW1   1794   6.283   2.908   3.439
  449WAT  HW2   1795   6.238   2.836   3.314
  449WAT  MW    1796   6.245   2.909   3.361
  450WAT  OW    1797   6.171   4.010   2.643
  450WAT  HW1   1798   6.125   3.992   2.562
  450WAT  HW2   1799   6.110   3.983   2.712
  450WAT  MW    1800   6.157   4.004   2.642
  451WAT  OW    1801   1.726   5.897   5.307
  451WAT  HW1   1802   1.632   5.917   5.307
  451WAT  HW2   1803   1.740   5.846   5.387
  451WAT  MW    1804   1.715   5.893   5.318
  452WAT  OW    1805   0.214   1.603   4.016
  452WAT  HW1   1806   0.179   1.666   3.953
  452WAT  HW2   1807   0.235   1.655   4.093
  452WAT  MW    1808   0.212   1.618   4.017
  453WAT  OW    1809   0.088   2.526   6.093
  453WAT  HW1   1810   0.172   2.495   6.126
  453WAT  HW2   1811   0.082   2.617   6.121
  453WAT  MW    1812   0.098   2.534   6.101
  454WAT  OW    1813   2.590   5.825   2.180
  454WAT  HW1   1814   2.526   5.767   2.222
  454WAT  HW2   1815   2.597   5.900   2.240
  454WAT  MW    1816   2.583   5.827   2.193
  455WAT  OW    1817   2.556   5.598   6.228
  455WAT  HW1   1818   2.640   5.567   6.197
  455WAT  HW2   1819   2.526   5.659   6.161
  455WAT  MW    1820   2.563   5.602   6.215
  456WAT  OW    1821   1.093   2.405   5.624
  456WAT  HW1   1822   1.116   2.448   5.707
  456WAT  HW2   1823   1.156   2.440   5.561
  456WAT  MW    1824   1.104   2.415   5.627
  457WAT  OW    1825   0.950   1.752   0.053
  457WAT  HW1   1826   0.877   1.706   0.010
  457WAT  HW2   1827   1.002   1.785  -0.019
  457WAT  MW    1828   0.947   1.750   0.038
  458WAT  OW    1829   6.021   3.834   3.768
  458WAT  HW1   1830   6.105   3.791   3.751
  458WAT  HW2   1831   5.971   3.821   3.688
  458WAT  MW    1832   6.025   3.827   3.755
  459WAT  OW    1833   2.149   4.416   5.359
  459WAT  HW1   1834   2.094   4.472   5.414
  459WAT  HW2   1835   2.194   4.359   5.421
  459WAT  MW    1836   2.148   4.416   5.375
  460WAT  OW    1837   1.220   2.584   4.060
  460WAT  HW1   1838   1.226   2.643   4.135
  460WAT  HW2   1839   1.128   2.587   4.035
  460WAT  MW    1840   1.209   2.592   4.066
  461WAT  OW    1841   4.508   5.002   4.381
  461WAT  HW1   1842   4.507   4.910   4.356
  461WAT  HW2   1843   4.570   5.043   4.320
  461WAT  MW    1844   4.516   4.995   4.369
  462WAT  OW    1845   0.353   0.711   3.577
  462WAT  HW1   1846   0.373   0.799   3.545
  462WAT  HW2   1847   0.259   0.712   3.594
  462WAT  MW    1848   0.343   0.723   3.575
  463WAT  OW    1849   2.775   3.939   0.985
  463WAT  HW1   1850   2.835   3.922   0.913
  463WAT  HW2   1851   2.764   3.854   1.028
  463WAT  MW    1852   2.782   3.925   0.981
  464WAT  OW    1853   0.165   1.091   6.331
  464WAT  HW1   1854   0.141   1.034   6.258
  464WAT  HW2   1855   0.256   1.069   6.350
  464WAT  MW    1856   0.174   1.081   6.324
  465WAT  OW    1857   1.881   3.337   5.373
  465WAT  HW1   1858   1.814   3.388   5.328
  465WAT  HW2   1859   1.882   3.372   5.462
  465WAT  MW    1860   1.872   3.348   5.379
  466WAT  OW    1861   2.082   3.929   6.013
  466WAT  HW1   1862   2.056   4.014   6.050
  466WAT  HW2   1863   2.046   3.864   6.073
  466WAT  MW    1864   2.074   3.932   6.026
  467WAT  OW    1865   0.947   2.318   6.034
  467WAT  HW1   1866   0.911   2.336   5.947
  467WAT  HW2   1867   0.958   2.405   6.074
  467WAT  MW    1868   0.944   2.332   6.028
  468WAT  OW    1869   0.783   3.293   6.375
  468WAT  HW1   1870   0.745   3.277   6.288
  468WAT  HW2   1871   0.860   3.347   6.357
  468WAT  MW    1872   0.788   3.298   6.361
  469WAT  OW    1873   5.627   3.235   0.932
  469WAT  HW1   1874   5.618   3.151   0.977
  469WAT  HW2   1875   5.538   3.269   0.927
  469WAT  MW    1876   5.614   3.228   0.938
  470WAT  OW    1877   0.432   1.660   2.476
  470WAT  HW1   1878   0.459   1.600   2.545
  470WAT  HW2   1879   0.420   1.745   2.520
  470WAT  MW    1880   0.434   1.664   2.491
  471WAT  OW    1881   1.448   6.073   1.035
  471WAT  HW1   1882   1.421   6.133   1.105
  471WAT  HW2   1883   1.512   6.015   1.077
  471WAT  MW    1884   1.453   6.074   1.050
  472WAT  OW    1885   4.364   1.115   5.414
  472WAT  HW1   1886   4.400   1.127   5.502
  472WAT  HW2   1887   4.380   1.022   5.394
  472WAT  MW    1888   4.371   1.104   5.423
  473WAT  OW    1889   2.526   4.898   6.200
  473WAT  HW1   1890   2.600   4.923   6.144
  473WAT  HW2   1891   2.450   4.900   6.143
  473WAT  MW    1892   2.526   4.902   6.185
  474WAT  OW    1893   1.033   6.121   2.192
  474WAT  HW1   1894   1.066   6.130   2.103
  474WAT  HW2   1895   0.944   6.087   2.181
  474WAT  MW    1896   1.026   6.118   2.179
  475WAT  OW    1897   4.479   0.206   5.702
  475WAT  HW1   1898   4.499   0.289   5.746
  475WAT  HW2   1899   4.544   0.199   5.633
  475WAT  MW    1900   4.490   0.216   5.699
  476WAT  OW    1901   4.163   3.137   0.348
  476WAT  HW1   1902   4.146   3.203   0.280
  476WAT  HW2   1903   4.090   3.146   0.409
  476WAT  MW    1904   4.151   3.147   0.347
  477WAT  OW    1905   2.765   4.011   4.635
  477WAT  HW1   1906   2.702   3.955   4.589
  477WAT  HW2   1907   2.755   3.988   4.727
  477WAT  MW    1908   2.755   4.001   4.641
  478WAT  OW    1909   6.635   4.788   1.410
  478WAT  HW1   1910   6.709   4.740   1.373
  478WAT  HW2   1911   6.670   4.875   1.429
  478WAT  MW    1912   6.650   4.793   1.408
  479WAT  OW    1913   6.307   0.587   3.773
  479WAT  HW1   1914   6.212   0.576   3.779
  479WAT  HW2   1915   6.341   0.498   3.768
  479WAT  MW    1916   6.299   0.574   3.773
  480WAT  OW    1917   3.159   0.425   0.738
  480WAT  HW1   1918   3.188   0.366   0.669
  480WAT  HW2   1919   3.239   0.453   0.782
  480WAT  MW    1920   3.173   0.421   0.735
  481WAT  OW    1921   1.781   2.779   3.480
  481WAT  HW1   1922   1.697   2.746   3.450
  481WAT  HW2   1923   1.846   2.730   3.430
  481WAT  MW    1924   1.779   2.769   3.470
  482WAT  OW    1925   1.483   2.422   3.999
  482WAT  HW1   1926   1.486   2.327   4.007
  482WAT  HW2   1927   1.390   2.444   4.006
  482WAT  MW    1928   1.471   2.412   4.001
  483WAT  OW    1929   3.251   2.994   3.940
  483WAT  HW1   1930   3.177   2.946   3.979
  483WAT  HW2   1931   3.319   2.927   3.928
  483WAT  MW    1932   3.250   2.979   3.943
  484WAT  OW    1933   3.757   1.940   5.486
  484WAT  HW1   1934   3.849   1.964   5.496
  484WAT  HW2   1935   3.710   2.003   5.540
  484WAT  MW    1936   3.763   1.951   5.494
  485WAT  OW    1937   4.560   0.848   3.738
  485WAT  HW1   1938   4.654   0.829   3.739
  485WAT  HW2   1939   4.519   0.766   3.763
  485WAT  MW    1940   4.567   0.835   3.741
  486WAT  OW    1941   0.621   3.943   4.622
  486WAT  HW1   1942   0.544   3.889   4.609
  486WAT  HW2   1943   0.593   4.010   4.684
  486WAT  MW    1944   0.607   3.945   4.628
  487WAT  OW    1945   3.583   2.602   6.047
  487WAT  HW1   1946   3.500   2.607   6.096
  487WAT  HW2   1947   3.571   2.528   5.988
  487WAT  MW    1948   3.570   2.593   6.046
  488WAT  OW    1949   4.382   4.474   1.238
  488WAT  HW1   1950   4.388   4.409   1.169
  488WAT  HW2   1951   4.401   4.425   1.318
  488WAT  MW    1952   4.386   4.459   1.240
  489WAT  OW    1953   3.114   3.810   6.104
  489WAT  HW1   1954   3.116   3.714   6.101
  489WAT  HW2   1955   3.186   3.837   6.046
  489WAT  MW    1956   3.124   3.801   6.096
  490WAT  OW    1957   6.277   0.672   0.333
  490WAT  HW1   1958   6.245   0.654   0.421
  490WAT  HW2   1959   6.246   0.760   0.313
  490WAT  MW    1960   6.269   0.681   0.342
  491WAT  OW    1961   2.544   4.819   2.055
  491WAT  HW1   1962   2.539   4.822   2.150
  491WAT  HW2   1963   2.539   4.911   2.028
  491WAT  MW    1964   2.542   4.832   2.064
  492WAT  OW    1965   0.900   1.592   6.066
  492WAT  HW1   1966   0.920   1.546   6.148
  492WAT  HW2   1967   0.917   1.684   6.085
  492WAT  MW    1968   0.905   1.598   6.079
  493WAT  OW    1969   2.378   0.457   6.540
  493WAT  HW1   1970   2.385   0.382   6.600
  493WAT  HW2   1971   2.290   0.492   6.556
  493WAT  MW    1972   2.367   0.452   6.550
  494WAT  OW    1973   3.719   3.799   2.026
  494WAT  HW1   1974   3.750   3.753   1.948
  494WAT  HW2   1975   3.646   3.746   2.057
  494WAT  MW    1976   3.714   3.786   2.019
  495WAT  OW    1977   2.083   3.557   1.730
  495WAT  HW1   1978   2.162   3.509   1.755
  495WAT  HW2   1979   2.089   3.640   1.776
  495WAT  MW    1980   2.094   3.561   1.739
  496WAT  OW    1981   5.439   0.233   5.031
  496WAT  HW1   1982   5.467   0.251   5.121
  496WAT  HW2   1983   5.482   0.150   5.009
  496WAT  MW    1984   5.449   0.224   5.040
  497WAT  OW    1985   1.177   3.848   3.274
  497WAT  HW1   1986   1.200   3.803   3.193
  497WAT  HW2   1987   1.259   3.890   3.301
  497WAT  MW    1988   1.191   3.847   3.267
  498WAT  OW    1989   0.851   4.163   2.920
  498WAT  HW1   1990   0.813   4.110   2.849
  498WAT  HW2   1991   0.927   4.112   2.949
  498WAT  MW    1992   0.856   4.149   2.914
  499WAT  OW    1993   1.555   4.608   3.126
  499WAT  HW1   1994   1.531   4.695   3.094
  499WAT  HW2   1995   1.572   4.621   3.219
  499WAT  MW    1996   1.554   4.622   3.134
  500WAT  OW    1997   5.588   0.461   6.036
  500WAT  HW1   1998   5.528   0.386   6.038
  500WAT  HW2   1999   5.542   0.527   5.984
  500WAT  MW    2000   5.574   0.459   6.030
  501WAT  OW    2001   2.683   4.811   4.903
  501WAT  HW1   2002   2.747   4.740   4.900
  501WAT  HW2   2003   2.662   4.820   4.996
  501WAT  MW    2004   2.689   4.803   4.915
  502WAT  OW    2005   0.038   2.406   5.867
  502WAT  HW1   2006   0.051   2.462   5.944
  502WAT  HW2   2007   0.124   2.368   5.851
  502WAT  MW    2008   0.051   2.408   5.875
  503WAT  OW    2009   2.870   4.963   5.415
  503WAT  HW1   2010   2.891   4.887   5.361
  503WAT  HW2   2011   2.895   5.039   5.362
  503WAT  MW    2012   2.876   4.963   5.401
  504WAT  OW    2013   4.850   5.523   1.666
  504WAT  HW1   2014   4.794   5.557   1.596
  504WAT  HW2   2015   4.935   5.510   1.625
  504WAT  MW    2016   4.854   5.526   1.651
  505WAT  OW    2017   5.375   5.378   2.876
  505WAT  HW1   2018   5.468   5.402   2.874
  505WAT  HW2   2019   5.346   5.384   2.785
  505WAT  MW    2020   5.383   5.382   2.864
  506WAT  OW    2021   5.017   0.832   4.675
  506WAT  HW1   2022   5.073   0.897   4.632
  506WAT  HW2   2023   4.953   0.884   4.723
  506WAT  MW    2024   5.016   0.847   4.676
  507WAT  OW    2025   4.945   4.127   2.824
  507WAT  HW1   2026   5.009   4.065   2.859
  507WAT  HW2   2027   4.915   4.087   2.742
  507WAT  MW    2028   4.949   4.114   2.818
  508WAT  OW    2029   3.675   2.172   1.031
  508WAT  HW1   2030   3.744   2.106   1.028
  508WAT  HW2   2031   3.593   2.121   1.033
  508WAT  MW    2032   3.673   2.157   1.031
  509WAT  OW    2033   2.811   6.371   4.595
  509WAT  HW1   2034   2.747   6.300   4.596
  509WAT  HW2   2035   2.811   6.404   4.685
  509WAT  MW    2036   2.802   6.366   4.607
  510WAT  OW    2037   0.571   4.918   2.927
  510WAT  HW1   2038   0.576   4.994   2.985
  510WAT  HW2   2039   0.544   4.954   2.842
  510WAT  MW    2040   0.568   4.933   2.923
  511WAT  OW    2041   3.201   6.361   5.065
  511WAT  HW1   2042   3.296   6.372   5.067
  511WAT  HW2   2043   3.186   6.276   5.106
  511WAT  MW    2044   3.212   6.351   5.070
  512WAT  OW    2045   3.061   0.954   1.476
  512WAT  HW1   2046   3.135   0.916   1.430
  512WAT  HW2   2047   2.984   0.926   1.425
  512WAT  MW    2048   3.060   0.945   1.463
  513WAT  OW    2049   4.679   3.081   6.429
  513WAT  HW1   2050   4.717   3.169   6.427
  513WAT  HW2   2051   4.735   3.029   6.371
  513WAT  MW    2052   4.691   3.086   6.421
  514WAT  OW    2053   1.923   3.893   5.782
  514WAT  HW1   2054   1.976   3.933   5.713
  514WAT  HW2   2055   1.983   3.888   5.857
  514WAT  MW    2056   1.938   3.897   5.783
  515WAT  OW    2057   4.913   1.446   4.533
  515WAT  HW1   2058   4.956   1.362   4.517
  515WAT  HW2   2059   4.881   1.473   4.447
  515WAT  MW    2060   4.914   1.438   4.520
  516WAT  OW    2061   6.373   4.623   2.452
  516WAT  HW1   2062   6.280   4.628   2.471
  516WAT  HW2   2063   6.398   4.534   2.478
  516WAT  MW    2064   6.364   4.612   2.458
  517WAT  OW    2065   6.523   3.363   6.595
  517WAT  HW1   2066   6.464   3.317   6.655
  517WAT  HW2   2067   6.487   3.347   6.508
  517WAT  MW    2068   6.510   3.355   6.592
  518WAT  OW    2069   3.396   4.243   0.909
  518WAT  HW1   2070   3.460   4.312   0.896
  518WAT  HW2   2071   3.371   4.215   0.821
  518WAT  MW    2072   3.401   4.248   0.896
  519WAT  OW    2073   5.233   4.410   0.882
  519WAT  HW1   2074   5.238   4.369   0.796
  519WAT  HW2   2075   5.280   4.493   0.872
  519WAT  MW    2076   5.240   4.416   0.870
  520WAT  OW    2077   3.127   0.936   1.736
  520WAT  HW1   2078   3.122   0.919   1.642
  520WAT  HW2   2079   3.171   0.858   1.771
  520WAT  MW    2080   3.132   0.923   1.728
  521WAT  OW    2081   1.452   5.551   4.355
  521WAT  HW1   2082   1.431   5.529   4.264
  521WAT  HW2   2083   1.450   5.467   4.401
  521WAT  MW    2084   1.449   5.537   4.349
  522WAT  OW    2085   1.237   5.561   6.253
  522WAT  HW1   2086   1.199   5.477   6.229
  522WAT  HW2   2087   1.166   5.624   6.239
  522WAT  MW    2088   1.222   5.558   6.248
  523WAT  OW    2089   2.293   3.487   5.460
  523WAT  HW1   2090   2.372   3.467   5.409
  523WAT  HW2   2091   2.315   3.569   5.506
  523WAT  MW    2092   2.307   3.495   5.459
  524WAT  OW    2093   4.426   4.538   2.313
  524WAT  HW1   2094   4.411   4.538   2.219
  524WAT  HW2   2095   4.487   4.611   2.328
  524WAT  MW    2096   4.432   4.547   2.303
  525WAT  OW    2097   6.338   0.851   1.819
  525WAT  HW1   2098   6.432   0.870   1.823
  525WAT  HW2   2099   6.309   0.892   1.737
  525WAT  MW    2100   6.347   0.859   1.808
  526WAT  OW    2101   2.473   2.870   2.746
  526WAT  HW1   2102   2.556   2.835   2.777
  526WAT  HW2   2103   2.495   2.923   2.669
  526WAT  MW    2104   2.487   2.873   2.740
  527WAT  OW    2105   6.443   0.340   4.989
  527WAT  HW1   2106   6.400   0.421   5.018
  527WAT  HW2   2107   6.383   0.270   5.015
  527WAT  MW    2108   6.430   0.342   4.996
  528WAT  OW    2109   0.574   0.511   3.656
  528WAT  HW1   2110   0.639   0.571   3.693
  528WAT  HW2   2111   0.496   0.566   3.642
  528WAT  MW    2112   0.572   0.526   3.659
  529WAT  OW    2113   4.979   5.179   4.145
  529WAT  HW1   2114   4.908   5.190   4.208
  529WAT  HW2   2115   5.046   5.130   4.193
  529WAT  MW    2116   4.979   5.174   4.160
  530WAT  OW    2117   5.753   1.833   3.917
  530WAT  HW1   2118   5.751   1.858   4.009
  530WAT  HW2   2119   5.671   1.785   3.904
  530WAT  MW    2120   5.742   1.830   3.927
  531WAT  OW    2121   2.216   3.045   2.027
  531WAT  HW1   2122   2.251   3.055   1.938
  531WAT  HW2   2123   2.139   2.988   2.016
  531WAT  MW    2124   2.210   3.038   2.014
  532WAT  OW    2125   4.519   1.639   2.054
  532WAT  HW1   2126   4.542   1.569   2.114
  532WAT  HW2   2127   4.594   1.644   1.994
  532WAT  MW    2128   4.532   1.631   2.054
  533WAT  OW    2129   0.256   3.471   0.395
  533WAT  HW1   2130   0.222   3.427   0.472
  533WAT  HW2   2131   0.294   3.552   0.429
  533WAT  MW    2132   0.257   3.476   0.409
  534WAT  OW    2133   6.400   4.125   6.394
  534WAT  HW1   2134   6.366   4.142   6.306
  534WAT  HW2   2135   6.363   4.040   6.418
  534WAT  MW    2136   6.391   4.116   6.386
  535WAT  OW    2137   5.637   3.646   3.183
  535WAT  HW1   2138   5.566   3.606   3.232
  535WAT  HW2   2139   5.617   3.628   3.091
  535WAT  MW    2140   5.625   3.639   3.177
  536WAT  OW    2141   4.717   1.260   0.579
  536WAT  HW1   2142   4.802   1.217   0.568
  536WAT  HW2   2143   4.685   1.273   0.490
  536WAT  MW    2144   4.724   1.256   0.566
  537WAT  OW    2145   4.340   1.898   3.762
  537WAT  HW1   2146   4.262   1.941   3.728
  537WAT  HW2   2147   4.379   1.855   3.687
  537WAT  MW    2148   4.335   1.898   3.748
  538WAT  OW    2149   5.661   4.269   0.509
  538WAT  HW1   2150   5.734   4.229   0.557
  538WAT  HW2   2151   5.672   4.363   0.522
  538WAT  MW    2152   5.672   4.276   0.517
  539WAT  OW    2153   1.090   2.270   2.117
  539WAT  HW1   2154   1.163   2.325   2.143
  539WAT  HW2   2155   1.048   2.319   2.046
  539WAT  MW    2156   1.094   2.284   2.111
  540WAT  OW    2157   5.485   5.088   5.121
  540WAT  HW1   2158   5.398   5.109   5.156
  540WAT  HW2   2159   5.473   5.081   5.027
  540WAT  MW    2160   5.472   5.090   5.113
  541WAT  OW    2161   0.713   0.309   3.726
  541WAT  HW1   2162   0.660   0.378   3.687
  541WAT  HW2   2163   0.732   0.340   3.815
  541WAT  MW    2164   0.709   0.322   3.733
  542WAT  OW    2165   1.639   1.906   3.209
  542WAT  HW1   2166   1.611   1.815   3.205
  542WAT  HW2   2167   1.582   1.947   3.274
  542WAT  MW    2168   1.628   1.900   3.217
  543WAT  OW    2169   1.139   5.144   2.234
  543WAT  HW1   2170   1.070   5.169   2.297
  543WAT  HW2   2171   1.091   5.108   2.160
  543WAT  MW    2172   1.123   5.143   2.233
  544WAT  OW    2173   4.007   2.444   5.470
  544WAT  HW1   2174   3.979   2.528   5.434
  544WAT  HW2   2175   3.986   2.451   5.564
  544WAT  MW    2176   4.000   2.456   5.478
  545WAT  OW    2177   6.103   3.778   4.033
  545WAT  HW1   2178   6.108   3.813   3.944
  545WAT  HW2   2179   6.107   3.855   4.089
  545WAT  MW    2180   6.104   3.793   4.029
  546WAT  OW    2181   0.819   2.031   1.555
  546WAT  HW1   2182   0.885   2.047   1.488
  546WAT  HW2   2183   0.774   1.951   1.525
  546WAT  MW    2184   0.821   2.022   1.542
  547WAT  OW    2185   3.047   5.657   6.605
  547WAT  HW1   2186   3.079   5.721   6.542
  547WAT  HW2   2187   3.026   5.709   6.683
  547WAT  MW    2188   3.048   5.672   6.607
  548WAT  OW    2189   0.672   0.460   0.437
  548WAT  HW1   2190   0.696   0.451   0.344
  548WAT  HW2   2191   0.587   0.503   0.436
  548WAT  MW    2192   0.664   0.464   0.424
  549WAT  OW    2193   1.118   1.510   1.064
  549WAT  HW1   2194   1.066   1.430   1.059
  549WAT  HW2   2195   1.055   1.581   1.051
  549WAT  MW    2196   1.103   1.509   1.062
  550WAT  OW    2197   3.641   3.703   4.383
  550WAT  HW1   2198   3.606   3.700   4.471
  550WAT  HW2   2199   3.564   3.697   4.326
  550WAT  MW    2200   3.626   3.702   4.387
  551WAT  OW    2201   1.911   5.259   1.333
  551WAT  HW1   2202   1.856   5.248   1.411
  551WAT  HW2   2203   1.898   5.179   1.283
  551WAT  MW    2204   1.902   5.247   1.337
  552WAT  OW    2205   1.186   4.324   0.556
  552WAT  HW1   2206   1.249   4.392   0.530
  552WAT  HW2   2207   1.104   4.371   0.569
  552WAT  MW    2208   1.183   4.339   0.554
  553WAT  OW    2209   1.996   5.202   0.059
  553WAT  HW1   2210   2.084   5.182   0.092
  553WAT  HW2   2211   1.937   5.166   0.125
  553WAT  MW    2212   2.000   5.195   0.072
  554WAT  OW    2213   6.020   0.686   5.751
  554WAT  HW1   2214   5.962   0.610   5.748
  554WAT  HW2   2215   5.988   0.738   5.825
  554WAT  MW    2216   6.008   0.683   5.760
  555WAT  OW    2217   3.575   1.303   3.218
  555WAT  HW1   2218   3.653   1.301   3.162
  555WAT  HW2   2219   3.545   1.212   3.220
  555WAT  MW    2220   3.581   1.291   3.211
  556WAT  OW    2221   1.529   5.939   3.474
  556WAT  HW1   2222   1.517   5.974   3.386
  556WAT  HW2   2223   1.573   5.855   3.460
  556WAT  MW    2224   1.533   5.933   3.460
  557WAT  OW    2225   3.087   5.653   2.182
  557WAT  HW1   2226   3.041   5.736   2.170
  557WAT  HW2   2227   3.021   5.593   2.218
  557WAT  MW    2228   3.072   5.656   2.186
  558WAT  OW    2229   2.542   4.869   2.807
  558WAT  HW1   2230   2.514   4.931   2.740
  558WAT  HW2   2231   2.551   4.921   2.886
  558WAT  MW    2232   2.539   4.884   2.808
  559WAT  OW    2233   1.287   1.996   1.624
  559WAT  HW1   2234   1.273   2.014   1.717
  559WAT  HW2   2235   1.327   2.076   1.590
  559WAT  MW    2236   1.290   2.009   1.632
  560WAT  OW    2237   6.483   2.180   5.184
  560WAT  HW1   2238   6.548   2.214   5.246
  560WAT  HW2   2239   6.430   2.257   5.162
  560WAT  MW    2240   6.484   2.195   5.189
  561WAT  OW    2241   2.029   2.596   0.883
  561WAT  HW1   2242   2.084   2.540   0.829
  561WAT  HW2   2243   1.944   2.595   0.840
  561WAT  MW    2244   2.025   2.589   0.870
  562WAT  OW    2245   2.460   1.723   1.764
  562WAT  HW1   2246   2.514   1.669   1.706
  562WAT  HW2   2247   2.461   1.810   1.723
  562WAT  MW    2248   2.467   1.727   1.751
  563WAT  OW    2249   2.846   4.295   3.563
  563WAT  HW1   2250   2.926   4.286   3.614
  563WAT  HW2   2251   2.853   4.227   3.496
  563WAT  MW    2252   2.857   4.285   3.561
  564WAT  OW    2253   1.840   4.267   6.408
  564WAT  HW1   2254   1.875   4.287   6.321
  564WAT  HW2   2255   1.772   4.202   6.391
  564WAT  MW    2256   1.836   4.261   6.394
  565WAT  OW    2257   3.246   6.299   4.321
  565WAT  HW1   2258   3.292   6.276   4.240
  565WAT  HW2   2259   3.158   6.323   4.292
  565WAT  MW    2260   3.240   6.299   4.306
  566WAT  OW    2261   4.599   2.388   1.628
  566WAT  HW1   2262   4.552   2.430   1.700
  566WAT  HW2   2263   4.551   2.415   1.550
  566WAT  MW    2264   4.586   2.397   1.627
  567WAT  OW    2265   4.321   1.375   2.270
  567WAT  HW1   2266   4.368   1.347   2.349
  567WAT  HW2   2267   4.385   1.362   2.199
  567WAT  MW    2268   4.336   1.369   2.271
  568WAT  OW    2269   3.842   0.897   0.412
  568WAT  HW1   2270   3.862   0.810   0.447
  568WAT  HW2   2271   3.782   0.935   0.476
  568WAT  MW    2272   3.837   0.891   0.425
  569WAT  OW    2273   6.088   1.696   6.018
  569WAT  HW1   2274   6.048   1.729   5.938
  569WAT  HW2   2275   6.160   1.641   5.989
  569WAT  MW    2276   6.092   1.693   6.004
  570WAT  OW    2277   2.784   5.537   3.214
  570WAT  HW1   2278   2.825   5.452   3.199
  570WAT  HW2   2279   2.805   5.588   3.136
  570WAT  MW    2280   2.792   5.533   3.202
  571WAT  OW    2281   1.770   1.236   1.378
  571WAT  HW1   2282   1.854   1.202   1.346
  571WAT  HW2   2283   1.727   1.271   1.299
  571WAT  MW    2284   1.776   1.236   1.363
  572WAT  OW    2285   1.040   4.888   1.167
  572WAT  HW1   2286   1.123   4.931   1.150
  572WAT  HW2   2287   1.062   4.813   1.222
  572WAT  MW    2288   1.054   4.884   1.172
  573WAT  OW    2289   3.827   3.102   5.421
  573WAT  HW1   2290   3.799   3.154   5.496
  573WAT  HW2   2291   3.913   3.136   5.399
  573WAT  MW    2292   3.834   3.113   5.428
  574WAT  OW    2293   4.470   4.211   0.107
  574WAT  HW1   2294   4.500   4.146   0.043
  574WAT  HW2   2295   4.543   4.271   0.115
  574WAT  MW    2296   4.484   4.210   0.099
  575WAT  OW    2297   1.492   0.282   5.682
  575WAT  HW1   2298   1.576   0.316   5.714
  575WAT  HW2   2299   1.473   0.208   5.739
  575WAT  MW    2300   1.501   0.277   5.694
  576WAT  OW    2301   6.459   5.048   6.536
  576WAT  HW1   2302   6.466   5.083   6.447
  576WAT  HW2   2303   6.549   5.042   6.567
  576WAT  MW    2304   6.472   5.052   6.528
  577WAT  OW    2305   1.707   4.027   1.369
  577WAT  HW1   2306   1.624   4.038   1.416
  577WAT  HW2   2307   1.731   4.116   1.343
  577WAT  MW    2308   1.699   4.041   1.372
  578WAT  OW    2309   4.139   0.879   2.911
  578WAT  HW1   2310   4.091   0.906   2.989
  578WAT  HW2   2311   4.164   0.962   2.869
  578WAT  MW    2312   4.136   0.894   2.916
  579WAT  OW    2313   3.967   3.976   3.001
  579WAT  HW1   2314   4.029   3.930   3.058
  579WAT  HW2   2315   4.013   4.055   2.974
  579WAT  MW    2316   3.981   3.980   3.005
  580WAT  OW    2317   6.601   0.200   0.174
  580WAT  HW1   2318   6.656   0.252   0.116
  580WAT  HW2   2319   6.604   0.112   0.138
  580WAT  MW    2320   6.609   0.196   0.162
  581WAT  OW    2321   5.492   0.948   2.615
  581WAT  HW1   2322   5.523   0.898   2.690
  581WAT  HW2   2323   5.566   1.005   2.593
  581WAT  MW    2324   5.506   0.949   2.622
  582WAT  OW    2325   2.126   0.562   6.596
  582WAT  HW1   2326   2.092   0.481   6.633
  582WAT  HW2   2327   2.191   0.593   6.658
  582WAT  MW    2328   2.130   0.556   6.609
  583WAT  OW    2329   2.451   3.742   2.222
  583WAT  HW1   2330   2.506   3.666   2.199
  583WAT  HW2   2331   2.510   3.817   2.216
  583WAT  MW    2332   2.466   3.742   2.218
  584WAT  OW    2333   3.472   5.840   6.594
  584WAT  HW1   2334   3.558   5.799   6.579
  584WAT  HW2   2335   3.414   5.767   6.614
  584WAT  MW    2336   3.476   5.825   6.594
  585WAT  OW    2337   3.792   0.014   0.361
  585WAT  HW1   2338   3.834  -0.070   0.376
  585WAT  HW2   2339   3.840   0.051   0.286
  585WAT  MW    2340   3.804   0.008   0.353
  586WAT  OW    2341   1.670   0.824   3.308
  586WAT  HW1   2342   1.691   0.782   3.225
  586WAT  HW2   2343   1.575   0.812   3.318
  586WAT  MW    2344   1.660   0.817   3.299
  587WAT  OW    2345   0.423   3.140   0.057
  587WAT  HW1   2346   0.413   3.185   0.140
  587WAT  HW2   2347   0.350   3.077   0.055
  587WAT  MW    2348   0.412   3.138   0.067
  588WAT  OW    2349   2.867   4.046   0.505
  588WAT  HW1   2350   2.851   4.060   0.412
  588WAT  HW2   2351   2.780   4.028   0.541
  588WAT  MW    2352   2.853   4.045   0.498
  589WAT  OW    2353   2.725   0.813   5.546
  589WAT  HW1   2354   2.648   0.824   5.602
  589WAT  HW2   2355   2.795   0.859   5.592
  589WAT  MW    2356   2.724   0.820   5.560
  590WAT  OW    2357   1.610   2.307   6.178
  590WAT  HW1   2358   1.680   2.308   6.244
  590WAT  HW2   2359   1.533   2.340   6.224
  590WAT  MW    2360   1.609   2.311   6.193
  591WAT  OW    2361   1.139   2.248   5.283
  591WAT  HW1   2362   1.091   2.313   5.231
  591WAT  HW2   2363   1.215   2.295   5.316
  591WAT  MW    2364   1.142   2.263   5.280
  592WAT  OW    2365   5.211   3.607   0.738
  592WAT  HW1   2366   5.206   3.700   0.714
  592WAT  HW2   2367   5.156   3.599   0.816
  592WAT  MW    2368   5.203   3.619   0.745
  593WAT  OW    2369   4.206   1.919   4.356
  593WAT  HW1   2370   4.291   1.876   4.348
  593WAT  HW2   2371   4.204   1.980   4.282
  593WAT  MW    2372   4.217   1.921   4.345
  594WAT  OW    2373   0.432   5.523   1.953
  594WAT  HW1   2374   0.419   5.561   1.866
  594WAT  HW2   2375   0.454   5.431   1.935
  594WAT  MW    2376   0.433   5.516   1.939
  595WAT  OW    2377   1.585   1.324   2.376
  595WAT  HW1   2378   1.497   1.358   2.360
  595WAT  HW2   2379   1.579   1.231   2.354
  595WAT  MW    2380   1.573   1.317   2.371
  596WAT  OW    2381   5.299   5.924   2.136
  596WAT  HW1   2382   5.204   5.930   2.139
  596WAT  HW2   2383   5.328   5.966   2.217
  596WAT  MW    2384   5.291   5.930   2.147
  597WAT  OW    2385   2.217   1.395   4.926
  597WAT  HW1   2386   2.228   1.466   4.989
  597WAT  HW2   2387   2.303   1.382   4.888
  597WAT  MW    2388   2.230   1.403   4.929
  598WAT  OW    2389   4.345   5.744   3.532
  598WAT  HW1   2390   4.276   5.684   3.505
  598WAT  HW2   2391   4.404   5.691   3.585
  598WAT  MW    2392   4.344   5.729   3.535
  599WAT  OW    2393   1.896   2.582   4.557
  599WAT  HW1   2394   1.845   2.583   4.638
  599WAT  HW2   2395   1.966   2.646   4.572
  599WAT  MW    2396   1.899   2.591   4.570
  600WAT  OW    2397   0.343   0.409   6.276
  600WAT  HW1   2398   0.295   0.403   6.193
  600WAT  HW2   2399   0.434   0.391   6.252
  600WAT  MW    2400   0.348   0.406   6.262
  601WAT  OW    2401   0.556   0.846   0.885
  601WAT  HW1   2402   0.585   0.896   0.809
  601WAT  HW2   2403   0.499   0.778   0.848
  601WAT  MW    2404   0.552   0.843   0.870
  602WAT  OW    2405   1.183   2.153   3.244
  602WAT  HW1   2406   1.274   2.126   3.232
  602WAT  HW2   2407   1.161   2.196   3.161
  602WAT  MW    2408   1.192   2.155   3.231
  603WAT  OW    2409   4.738   3.697   3.667
  603WAT  HW1   2410   4.785   3.778   3.648
  603WAT  HW2   2411   4.709   3.706   3.757
  603WAT  MW    2412   4.741   3.709   3.676
  604WAT  OW    2413   4.946   2.957   4.419
  604WAT  HW1   2414   5.035   2.990   4.404
  604WAT  HW2   2415   4.956   2.862   4.419
  604WAT  MW    2416   4.959   2.949   4.417
  605WAT  OW    2417   0.712   6.459   0.438
  605WAT  HW1   2418   0.706   6.497   0.350
  605WAT  HW2   2419   0.801   6.424   0.443
  605WAT  MW    2420   0.723   6.459   0.427
  606WAT  OW    2421   0.081   0.127   5.497
  606WAT  HW1   2422   0.141   0.053   5.505
  606WAT  HW2   2423   0.064   0.134   5.403
  606WAT  MW    2424   0.087   0.118   5.485
  607WAT  OW    2425   4.956   3.240   4.607
  607WAT  HW1   2426   5.006   3.215   4.684
  607WAT  HW2   2427   4.938   3.158   4.562
  607WAT  MW    2428   4.960   3.226   4.611
  608WAT  OW    2429   5.094   1.296   1.409
  608WAT  HW1   2430   5.071   1.250   1.490
  608WAT  HW2   2431   5.077   1.388   1.427
  608WAT  MW    2432   5.089   1.302   1.422
  609WAT  OW    2433   2.199   2.274   3.321
  609WAT  HW1   2434   2.163   2.211   3.259
  609WAT  HW2   2435   2.196   2.358   3.275
  609WAT  MW    2436   2.194   2.277   3.307
  610WAT  OW    2437   5.061   1.697   4.426
  610WAT  HW1   2438   4.988   1.645   4.458
  610WAT  HW2   2439   5.114   1.715   4.504
  610WAT  MW    2440   5.058   1.692   4.440
  611WAT  OW    2441   4.177   3.092   5.728
  611WAT  HW1   2442   4.273   3.093   5.729
  611WAT  HW2   2443   4.154   3.088   5.636
  611WAT  MW    2444   4.187   3.092   5.716
  612WAT  OW    2445   2.337   4.017   5.938
  612WAT  HW1   2446   2.374   3.960   5.870
  612WAT  HW2   2447   2.261   3.968   5.970
  612WAT  MW    2448   2.332   4.003   5.933
  613WAT  OW    2449   4.316   5.174   5.947
  613WAT  HW1   2450   4.255   5.134   5.885
  613WAT  HW2   2451   4.285   5.263   5.957
  613WAT  MW    2452   4.304   5.180   5.940
  614WAT  OW    2453   5.367   1.643   5.005
  614WAT  HW1   2454   5.442   1.682   5.050
  614WAT  HW2   2455   5.380   1.549   5.013
  614WAT  MW    2456   5.379   1.636   5.012
  615WAT  OW    2457   5.978   4.826   2.682
  615WAT  HW1   2458   6.012   4.754   2.629
  615WAT  HW2   2459   6.036   4.900   2.663
  615WAT  MW    2460   5.990   4.826   2.673
  616WAT  OW    2461   3.293   1.436   0.169
  616WAT  HW1   2462   3.255   1.418   0.255
  616WAT  HW2   2463   3.226   1.406   0.106
  616WAT  MW    2464   3.279   1.430   0.172
  617WAT  OW    2465   1.766   4.545   4.361
  617WAT  HW1   2466   1.731   4.465   4.321
  617WAT  HW2   2467   1.708   4.562   4.435
  617WAT  MW    2468   1.753   4.537   4.365
  618WAT  OW    2469   0.602   4.130   6.657
  618WAT  HW1   2470   0.614   4.171   6.572
  618WAT  HW2   2471   0.593   4.036   6.637
  618WAT  MW    2472   0.602   4.123   6.643
  619WAT  OW    2473   5.116   3.423   3.401
  619WAT  HW1   2474   5.121   3.378   3.317
  619WAT  HW2   2475   5.037   3.478   3.393
  619WAT  MW    2476   5.106   3.425   3.389
  620WAT  OW    2477   1.398   0.590   3.867
  620WAT  HW1   2478   1.392   0.620   3.777
  620WAT  HW2   2479   1.328   0.525   3.876
  620WAT  MW    2480   1.388   0.585   3.857
  621WAT  OW    2481   3.185   2.010   2.404
  621WAT  HW1   2482   3.107   2.052   2.440
  621WAT  HW2   2483   3.236   2.082   2.366
  621WAT  MW    2484   3.181   2.025   2.404
  622WAT  OW    2485   0.730   5.017   0.608
  622WAT  HW1   2486   0.690   5.065   0.681
  622WAT  HW2   2487   0.803   4.969   0.647
  622WAT  MW    2488   0.734   5.017   0.622
  623WAT  OW    2489   3.711   5.267   2.645
  623WAT  HW1   2490   3.670   5.184   2.667
  623WAT  HW2   2491   3.639   5.331   2.648
  623WAT  MW    2492   3.696   5.265   2.648
  624WAT  OW    2493   4.922   3.356   1.495
  624WAT  HW1   2494   5.003   3.390   1.533
  624WAT  HW2   2495   4.939   3.353   1.401
  624WAT  MW    2496   4.935   3.360   1.487
  625WAT  OW    2497   5.357   4.645   0.869
  625WAT  HW1   2498   5.420   4.691   0.815
  625WAT  HW2   2499   5.305   4.714   0.910
  625WAT  MW    2500   5.358   4.660   0.868
  626WAT  OW    2501   3.354   6.469   1.636
  626WAT  HW1   2502   3.443   6.435   1.639
  626WAT  HW2   2503   3.323   6.446   1.548
  626WAT  MW    2504   3.362   6.462   1.624
  627WAT  OW    2505   3.392   4.736   3.725
  627WAT  HW1   2506   3.485   4.735   3.749
  627WAT  HW2   2507   3.391   4.725   3.630
  627WAT  MW    2508   3.404   4.734   3.716
  628WAT  OW    2509   3.951   2.034   4.601
  628WAT  HW1   2510   3.924   2.077   4.520
  628WAT  HW2   2511   4.011   2.097   4.642
  628WAT  MW    2512   3.955   2.048   4.596
  629WAT  OW    2513   2.248   1.169   5.662
  629WAT  HW1   2514   2.272   1.077   5.678
  629WAT  HW2   2515   2.153   1.171   5.673
  629WAT  MW    2516   2.239   1.157   5.665
  630WAT  OW    2517   2.240   4.015   4.667
  630WAT  HW1   2518   2.229   4.066   4.747
  630WAT  HW2   2519   2.284   3.935   4.695
  630WAT  MW    2520   2.245   4.011   4.681
  631WAT  OW    2521   2.771   0.816   3.195
  631WAT  HW1   2522   2.763   0.722   3.180
  631WAT  HW2   2523   2.834   0.824   3.267
  631WAT  MW    2524   2.778   0.805   3.203
  632WAT  OW    2525   1.838   6.604   1.544
  632WAT  HW1   2526   1.923   6.598   1.500
  632WAT  HW2   2527   1.853   6.662   1.618
  632WAT  MW    2528   1.851   6.611   1.548
  633WAT  OW    2529   2.368   3.976   3.862
  633WAT  HW1   2530   2.289   4.008   3.906
  633WAT  HW2   2531   2.339   3.900   3.812
  633WAT  MW    2532   2.354   3.970   3.861
  634WAT  OW    2533   5.921   3.269   6.095
  634WAT  HW1   2534   5.971   3.330   6.149
  634WAT  HW2   2535   5.973   3.188   6.095
  634WAT  MW    2536   5.935   3.266   6.102
  635WAT  OW    2537   5.565   0.059   3.690
  635WAT  HW1   2538   5.654   0.093   3.702
  635WAT  HW2   2539   5.550   0.004   3.766
  635WAT  MW    2540   5.575   0.057   3.701
  636WAT  OW    2541   2.516   6.320   3.203
  636WAT  HW1   2542   2.424   6.293   3.209
  636WAT  HW2   2543   2.534   6.322   3.109
  636WAT  MW    2544   2.506   6.316   3.191
  637WAT  OW    2545   5.465   2.523   5.212
  637WAT  HW1   2546   5.554   2.529   5.178
  637WAT  HW2   2547   5.412   2.495   5.138
  637WAT  MW    2548   5.470   2.520   5.198
  638WAT  OW    2549   4.735   5.758   6.208
  638WAT  HW1   2550   4.648   5.736   6.241
  638WAT  HW2   2551   4.719   5.801   6.124
  638WAT  MW    2552   4.721   5.761   6.202
  639WAT  OW    2553   0.113   0.799   0.276
  639WAT  HW1   2554   0.114   0.889   0.244
  639WAT  HW2   2555   0.021   0.783   0.298
  639WAT  MW    2556   0.101   0.809   0.275
  640WAT  OW    2557   1.711   4.199   4.466
  640WAT  HW1   2558   1.712   4.103   4.468
  640WAT  HW2   2559   1.773   4.222   4.397
  640WAT  MW    2560   1.719   4.189   4.457
  641WAT  OW    2561   2.071   3.609   5.699
  641WAT  HW1   2562   2.042   3.669   5.768
  641WAT  HW2   2563   2.014   3.627   5.625
  641WAT  MW    2564   2.060   3.619   5.699
  642WAT  OW    2565   2.153   6.291   0.020
  642WAT  HW1   2566   2.226   6.249   0.065
  642WAT  HW2   2567   2.152   6.380   0.056
  642WAT  MW    2568   2.163   6.297   0.031
  643WAT  OW    2569   3.587   3.730   6.471
  643WAT  HW1   2570   3.572   3.656   6.530
  643WAT  HW2   2571   3.643   3.695   6.402
  643WAT  MW    2572   3.592   3.715   6.470
  644WAT  OW    2573   1.148   4.294   4.337
  644WAT  HW1   2574   1.238   4.283   4.368
  644WAT  HW2   2575   1.102   4.216   4.369
  644WAT  MW    2576   1.154   4.282   4.345
  645WAT  OW    2577   5.436   1.249   3.865
  645WAT  HW1   2578   5.345   1.276   3.878
  645WAT  HW2   2579   5.429   1.162   3.826
  645WAT  MW    2580   5.423   1.241   3.862
  646WAT  OW    2581   6.414   0.233   0.770
  646WAT  HW1   2582   6.333   0.257   0.815
  646WAT  HW2   2583   6.476   0.214   0.840
  646WAT  MW    2584   6.411   0.234   0.785
  647WAT  OW    2585   2.322   1.944   6.179
  647WAT  HW1   2586   2.332   2.039   6.193
  647WAT  HW2   2587   2.296   1.936   6.087
  647WAT  MW    2588   2.320   1.956   6.168
  648WAT  OW    2589   1.218   6.314   4.858
  648WAT  HW1   2590   1.125   6.293   4.868
  648WAT  HW2   2591   1.264   6.238   4.892
  648WAT  MW    2592   1.212   6.301   4.864
  649WAT  OW    2593   0.511   2.111   0.125
  649WAT  HW1   2594   0.576   2.101   0.055
  649WAT  HW2   2595   0.561   2.142   0.200
  649WAT  MW    2596   0.527   2.113   0.125
  650WAT  OW    2597   1.969   0.135   2.242
  650WAT  HW1   2598   1.960   0.067   2.175
  650WAT  HW2   2599   1.951   0.090   2.324
  650WAT  MW    2600   1.965   0.120   2.244
  651WAT  OW    2601   0.394   0.239   0.204
  651WAT  HW1   2602   0.412   0.261   0.112
  651WAT  HW2   2603   0.307   0.200   0.202
  651WAT  MW    2604   0.384   0.237   0.192
  652WAT  OW    2605   4.304   0.616   4.477
  652WAT  HW1   2606   4.355   0.536   4.466
  652WAT  HW2   2607   4.369   0.686   4.482
  652WAT  MW    2608   4.319   0.615   4.476
  653WAT  OW    2609   1.390   6.583   2.651
  653WAT  HW1   2610   1.423   6.671   2.634
  653WAT  HW2   2611   1.310   6.576   2.599
  653WAT  MW    2612   1.384   6.594   2.642
  654WAT  OW    2613   5.680   0.545   3.571
  654WAT  HW1   2614   5.679   0.530   3.666
  654WAT  HW2   2615   5.699   0.459   3.534
  654WAT  MW    2616   5.682   0.532   3.579
  655WAT  OW    2617   4.245   1.894   0.049
  655WAT  HW1   2618   4.335   1.880   0.018
  655WAT  HW2   2619   4.194   1.825   0.005
  655WAT  MW    2620   4.250   1.883   0.039
  656WAT  OW    2621   4.544   0.342   1.366
  656WAT  HW1   2622   4.518   0.434   1.367
  656WAT  HW2   2623   4.472   0.296   1.408
  656WAT  MW    2624   4.531   0.348   1.371
  657WAT  OW    2625   6.512   0.718   5.414
  657WAT  HW1   2626   6.495   0.745   5.324
  657WAT  HW2   2627   6.503   0.623   5.413
  657WAT  MW    2628   6.509   0.709   5.402
  658WAT  OW    2629   2.333   1.053   6.683
  658WAT  HW1   2630   2.402   1.070   6.618
  658WAT  HW2   2631   2.312   1.139   6.718
  658WAT  MW    2632   2.340   1.067   6.679
  659WAT  OW    2633   4.393   6.695   4.667
  659WAT  HW1   2634   4.343   6.752   4.609
  659WAT  HW2   2635   4.440   6.755   4.725
  659WAT  MW    2636   4.392   6.710   4.667
  660WAT  OW    2637   4.751   1.175   3.701
  660WAT  HW1   2638   4.752   1.269   3.686
  660WAT  HW2   2639   4.692   1.140   3.634
  660WAT  MW    2640   4.744   1.183   3.691
  661WAT  OW    2641   3.218   2.344   5.610
  661WAT  HW1   2642   3.155   2.321   5.542
  661WAT  HW2   2643   3.227   2.439   5.603
  661WAT  MW    2644   3.211   2.353   5.600
  662WAT  OW    2645   6.076   4.250   0.968
  662WAT  HW1   2646   6.011   4.262   1.037
  662WAT  HW2   2647   6.160   4.245   1.013
  662WAT  MW    2648   6.078   4.251   0.983
  663WAT  OW    2649   6.264   4.475   6.166
  663WAT  HW1   2650   6.189   4.521   6.129
  663WAT  HW2   2651   6.251   4.478   6.260
  663WAT  MW    2652   6.253   4.482   6.173
  664WAT  OW    2653   3.282   0.376   3.334
  664WAT  HW1   2654   3.372   0.387   3.303
  664WAT  HW2   2655   3.255   0.462   3.365
  664WAT  MW    2656   3.290   0.389   3.334
  665WAT  OW    2657   6.472   6.592   3.221
  665WAT  HW1   2658   6.419   6.616   3.145
  665WAT  HW2   2659   6.427   6.517   3.259
  665WAT  MW    2660   6.459   6.585   3.216
  666WAT  OW    2661   5.319   3.826   3.499
  666WAT  HW1   2662   5.388   3.838   3.564
  666WAT  HW2   2663   5.288   3.915   3.481
  666WAT  MW    2664   5.324   3.839   3.505
  667WAT  OW    2665   6.435   5.411   4.462
  667WAT  HW1   2666   6.521   5.453   4.468
  667WAT  HW2   2667   6.425   5.366   4.545
  667WAT  MW    2668   6.445   5.411   4.474
  668WAT  OW    2669   0.339   6.107   0.559
  668WAT  HW1   2670   0.257   6.060   0.571
  668WAT  HW2   2671   0.384   6.060   0.489
  668WAT  MW    2672   0.334   6.095   0.552
  669WAT  OW    2673   0.790   4.511   4.376
  669WAT  HW1   2674   0.802   4.431   4.427
  669WAT  HW2   2675   0.704   4.500   4.335
  669WAT  MW    2676   0.780   4.499   4.377
  670WAT  OW    2677   5.290   1.570   6.695
  670WAT  HW1   2678   5.322   1.481   6.704
  670WAT  HW2   2679   5.344   1.607   6.625
  670WAT  MW    2680   5.301   1.563   6.687
  671WAT  OW    2681   2.285   0.501   1.597
  671WAT  HW1   2682   2.338   0.539   1.667
  671WAT  HW2   2683   2.283   0.407   1.615
  671WAT  MW    2684   2.291   0.494   1.608
  672WAT  OW    2685   2.224   4.900   6.591
  672WAT  HW1   2686   2.214   4.944   6.507
  672WAT  HW2   2687   2.137   4.907   6.632
  672WAT  MW    2688   2.211   4.907   6.585
  673WAT  OW    2689   4.756   1.594   0.476
  673WAT  HW1   2690   4.692   1.563   0.540
  673WAT  HW2   2691   4.813   1.653   0.525
  673WAT  MW    2692   4.755   1.598   0.491
  674WAT  OW    2693   0.240   4.117   2.000
  674WAT  HW1   2694   0.284   4.175   2.062
  674WAT  HW2   2695   0.203   4.047   2.055
  674WAT  MW    2696   0.241   4.115   2.015
  675WAT  OW    2697   3.079   0.247   3.191
  675WAT  HW1   2698   3.087   0.290   3.106
  675WAT  HW2   2699   3.137   0.296   3.249
  675WAT  MW    2700   3.088   0.259   3.188
  676WAT  OW    2701   5.113   6.237   0.989
  676WAT  HW1   2702   5.166   6.158   0.978
  676WAT  HW2   2703   5.025   6.211   0.962
  676WAT  MW    2704   5.108   6.223   0.984
  677WAT  OW    2705   5.330   5.389   2.205
  677WAT  HW1   2706   5.257   5.363   2.149
  677WAT  HW2   2707   5.325   5.485   2.207
  677WAT  MW    2708   5.320   5.399   2.198
  678WAT  OW    2709   3.871   0.915   4.322
  678WAT  HW1   2710   3.923   0.858   4.378
  678WAT  HW2   2711   3.908   0.903   4.234
  678WAT  MW    2712   3.882   0.906   4.318
  679WAT  OW    2713   6.637   2.045   1.716
  679WAT  HW1   2714   6.699   2.037   1.789
  679WAT  HW2   2715   6.602   1.957   1.705
  679WAT  MW    2716   6.641   2.032   1.724
  680WAT  OW    2717   2.870   5.560   4.878
  680WAT  HW1   2718   2.850   5.617   4.804
  680WAT  HW2   2719   2.788   5.514   4.896
  680WAT  MW    2720   2.856   5.561   4.871
  681WAT  OW    2721   2.399   5.231   1.840
  681WAT  HW1   2722   2.326   5.225   1.902
  681WAT  HW2   2723   2.431   5.321   1.850
  681WAT  MW    2724   2.393   5.242   1.850
  682WAT  OW    2725   4.577   5.142   2.259
  682WAT  HW1   2726   4.535   5.226   2.276
  682WAT  HW2   2727   4.668   5.154   2.287
  682WAT  MW    2728   4.584   5.155   2.265
  683WAT  OW    2729   5.687   0.021   5.954
  683WAT  HW1   2730   5.688   0.011   6.050
  683WAT  HW2   2731   5.598  -0.005   5.929
  683WAT  MW    2732   5.675   0.016   5.964
  684WAT  OW    2733   0.625   2.885   5.417
  684WAT  HW1   2734   0.652   2.808   5.369
  684WAT  HW2   2735   0.549   2.856   5.468
  684WAT  MW    2736   0.618   2.871   5.418
  685WAT  OW    2737   2.052   5.842   1.878
  685WAT  HW1   2738   2.063   5.845   1.783
  685WAT  HW2   2739   2.124   5.894   1.912
  685WAT  MW    2740   2.063   5.849   1.870
  686WAT  OW    2741   2.254   1.802   3.529
  686WAT  HW1   2742   2.219   1.819   3.442
  686WAT  HW2   2743   2.305   1.880   3.550
  686WAT  MW    2744   2.256   1.814   3.520
  687WAT  OW    2745   4.275   6.134   4.008
  687WAT  HW1   2746   4.180   6.135   4.020
  687WAT  HW2   2747   4.310   6.153   4.095
  687WAT  MW    2748   4.267   6.136   4.021
  688WAT  OW    2749   2.731   0.555   3.139
  688WAT  HW1   2750   2.762   0.531   3.052
  688WAT  HW2   2751   2.636   0.542   3.135
  688WAT  MW    2752   2.722   0.550   3.127
  689WAT  OW    2753   2.883   3.948   3.562
  689WAT  HW1   2754   2.912   3.861   3.535
  689WAT  HW2   2755   2.879   3.943   3.658
  689WAT  MW    2756   2.886   3.936   3.571
  690WAT  OW    2757   0.047   6.083   2.703
  690WAT  HW1   2758   0.012   6.045   2.784
  690WAT  HW2   2759  -0.028   6.086   2.644
  690WAT  MW    2760   0.033   6.078   2.706
  691WAT  OW    2761   1.250   6.353   6.497
  691WAT  HW1   2762   1.331   6.403   6.495
  691WAT  HW2   2763   1.183   6.417   6.472
  691WAT  MW    2764   1.251   6.368   6.493
  692WAT  OW    2765   2.454   3.310   0.540
  692WAT  HW1   2766   2.505   3.301   0.621
  692WAT  HW2   2767   2.363   3.316   0.569
  692WAT  MW    2768   2.449   3.309   0.555
  693WAT  OW    2769   5.823   0.777   3.596
  693WAT  HW1   2770   5.763   0.703   3.602
  693WAT  HW2   2771   5.872   0.775   3.678
  693WAT  MW    2772   5.821   0.767   3.607
  694WAT  OW    2773   3.516   3.311   1.688
  694WAT  HW1   2774   3.493   3.334   1.598
  694WAT  HW2   2775   3.598   3.261   1.679
  694WAT  MW    2776   3.524   3.307   1.675
  695WAT  OW    2777   1.613   5.580   6.626
  695WAT  HW1   2778   1.695   5.608   6.586
  695WAT  HW2   2779   1.566   5.536   6.555
  695WAT  MW    2780   1.618   5.578   6.612
  696WAT  OW    2781   0.506   5.133   5.977
  696WAT  HW1   2782   0.479   5.140   5.885
  696WAT  HW2   2783   0.574   5.066   5.977
  696WAT  MW    2784   0.511   5.125   5.965
  697WAT  OW    2785   1.707   3.919   1.128
  697WAT  HW1   2786   1.631   3.862   1.112
  697WAT  HW2   2787   1.697   3.948   1.218
  697WAT  MW    2788   1.696   3.915   1.138
  698WAT  OW    2789   0.164   5.228   0.346
  698WAT  HW1   2790   0.224   5.270   0.408
  698WAT  HW2   2791   0.222   5.192   0.278
  698WAT  MW    2792   0.180   5.229   0.345
  699WAT  OW    2793   4.479   3.989   1.848
  699WAT  HW1   2794   4.416   3.929   1.807
  699WAT  HW2   2795   4.548   3.999   1.782
  699WAT  MW    2796   4.479   3.982   1.834
  700WAT  OW    2797   5.366   2.496   6.000
  700WAT  HW1   2798   5.357   2.434   6.072
  700WAT  HW2   2799   5.412   2.447   5.932
  700WAT  MW    2800   5.371   2.481   6.001
  701WAT  OW    2801   4.760   2.365   4.395
  701WAT  HW1   2802   4.764   2.424   4.319
  701WAT  HW2   2803   4.849   2.367   4.431
  701WAT  MW    2804   4.772   2.373   4.389
  702WAT  OW    2805   4.245   2.596   5.352
  702WAT  HW1   2806   4.165   2.544   5.363
  702WAT  HW2   2807   4.252   2.610   5.258
  702WAT  MW    2808   4.235   2.591   5.341
  703WAT  OW    2809   2.781   6.601   3.737
  703WAT  HW1   2810   2.875   6.598   3.758
  703WAT  HW2   2811   2.766   6.690   3.708
  703WAT  MW    2812   2.792   6.612   3.736
  704WAT  OW    2813   1.778   4.516   5.850
  704WAT  HW1   2814   1.792   4.437   5.799
  704WAT  HW2   2815   1.683   4.520   5.863
  704WAT  MW    2816   1.767   4.506   5.845
  705WAT  OW    2817   1.379   0.994   1.388
  705WAT  HW1   2818   1.406   0.925   1.449
  705WAT  HW2   2819   1.304   1.036   1.430
  705WAT  MW    2820   1.373   0.990   1.401
  706WAT  OW    2821   2.624   5.956   2.589
  706WAT  HW1   2822   2.636   5.868   2.623
  706WAT  HW2   2823   2.533   5.977   2.608
  706WAT  MW    2824   2.614   5.947   2.596
  707WAT  OW    2825   3.726   3.403   4.414
  707WAT  HW1   2826   3.693   3.492   4.414
  707WAT  HW2   2827   3.729   3.377   4.322
  707WAT  MW    2828   3.722   3.411   4.402
  708WAT  OW    2829   3.188   2.875   0.499
  708WAT  HW1   2830   3.178   2.846   0.589
  708WAT  HW2   2831   3.247   2.951   0.504
  708WAT  MW    2832   3.194   2.881   0.511
  709WAT  OW    2833   4.717   5.894   0.184
  709WAT  HW1   2834   4.809   5.891   0.209
  709WAT  HW2   2835   4.717   5.874   0.091
  709WAT  MW    2836   4.729   5.891   0.175
  710WAT  OW    2837   2.849   2.623   0.612
  710WAT  HW1   2838   2.941   2.616   0.587
  710WAT  HW2   2839   2.807   2.664   0.536
  710WAT  MW    2840   2.856   2.628   0.599
  711WAT  OW    2841   5.860   6.205   4.707
  711WAT  HW1   2842   5.813   6.198   4.790
  711WAT  HW2   2843   5.791   6.225   4.643
  711WAT  MW    2844   5.844   6.207   4.710
  712WAT  OW    2845   3.393   6.278   6.525
  712WAT  HW1   2846   3.402   6.222   6.602
  712WAT  HW2   2847   3.395   6.367   6.559
  712WAT  MW    2848   3.394   6.282   6.539
  713WAT  OW    2849   2.843   1.125   4.956
  713WAT  HW1   2850   2.862   1.031   4.958
  713WAT  HW2   2851   2.927   1.166   4.937
  713WAT  MW    2852   2.857   1.118   4.954
  714WAT  OW    2853   0.990   0.503   3.730
  714WAT  HW1   2854   0.957   0.433   3.674
  714WAT  HW2   2855   1.059   0.463   3.783
  714WAT  MW    2856   0.994   0.488   3.730
  715WAT  OW    2857   5.412   2.502   3.578
  715WAT  HW1   2858   5.469   2.564   3.625
  715WAT  HW2   2859   5.457   2.485   3.496
  715WAT  MW    2860   5.425   2.508   3.574
  716WAT  OW    2861   5.701   1.032   5.227
  716WAT  HW1   2862   5.668   1.122   5.233
  716WAT  HW2   2863   5.740   1.028   5.139
  716WAT  MW    2864   5.702   1.044   5.216
  717WAT  OW    2865   1.285   4.473   4.090
  717WAT  HW1   2866   1.190   4.472   4.095
  717WAT  HW2   2867   1.309   4.564   4.106
  717WAT  MW    2868   1.276   4.484   4.093
  718WAT  OW    2869   3.527   0.332   3.920
  718WAT  HW1   2870   3.575   0.324   4.003
  718WAT  HW2   2871   3.441   0.293   3.939
  718WAT  MW    2872   3.522   0.326   3.934
  719WAT  OW    2873   1.373   2.471   1.151
  719WAT  HW1   2874   1.417   2.393   1.118
  719WAT  HW2   2875   1.377   2.534   1.079
  719WAT  MW    2876   1.379   2.469   1.137
  720WAT  OW    2877   5.079   5.113   4.752
  720WAT  HW1   2878   5.033   5.048   4.806
  720WAT  HW2   2879   5.064   5.085   4.662
  720WAT  MW    2880   5.071   5.101   4.747
  721WAT  OW    2881   0.547   5.840   0.148
  721WAT  HW1   2882   0.631   5.884   0.139
  721WAT  HW2   2883   0.492   5.901   0.197
  721WAT  MW    2884   0.551   5.854   0.153
  722WAT  OW    2885   0.979   5.929   6.411
  722WAT  HW1   2886   1.065   5.966   6.389
  722WAT  HW2   2887   0.976   5.933   6.507
  722WAT  MW    2888   0.990   5.934   6.421
  723WAT  OW    2889   2.698   2.174   6.219
  723WAT  HW1   2890   2.635   2.221   6.165
  723WAT  HW2   2891   2.650   2.150   6.298
  723WAT  MW    2892   2.683   2.177   6.223
  724WAT  OW    2893   4.129   5.109   5.748
  724WAT  HW1   2894   4.135   5.029   5.696
  724WAT  HW2   2895   4.037   5.112   5.775
  724WAT  MW    2896   4.117   5.099   5.744
  725WAT  OW    2897   4.054   0.439   0.895
  725WAT  HW1   2898   4.087   0.526   0.918
  725WAT  HW2   2899   4.090   0.381   0.963
  725WAT  MW    2900   4.063   0.443   0.907
  726WAT  OW    2901   5.660   0.380   1.188
  726WAT  HW1   2902   5.579   0.394   1.139
  726WAT  HW2   2903   5.679   0.465   1.228
  726WAT  MW    2904   5.652   0.393   1.187
  727WAT  OW    2905   5.034   6.186   2.646
  727WAT  HW1   2906   4.960   6.247   2.654
  727WAT  HW2   2907   5.055   6.162   2.736
  727WAT  MW    2908   5.027   6.191   2.659
  728WAT  OW    2909   0.812   6.396   2.614
  728WAT  HW1   2910   0.868   6.318   2.613
  728WAT  HW2   2911   0.829   6.438   2.529
  728WAT  MW    2912   0.822   6.391   2.602
  729WAT  OW    2913   5.932   5.685   1.224
  729WAT  HW1   2914   5.897   5.704   1.138
  729WAT  HW2   2915   5.856   5.684   1.282
  729WAT  MW    2916   5.918   5.687   1.220
  730WAT  OW    2917   2.490   2.292   0.400
  730WAT  HW1   2918   2.483   2.217   0.341
  730WAT  HW2   2919   2.454   2.365   0.350
  730WAT  MW    2920   2.484   2.292   0.386
  731WAT  OW    2921   6.086   0.529   2.306
  731WAT  HW1   2922   6.036   0.542   2.387
  731WAT  HW2   2923   6.026   0.555   2.236
  731WAT  MW    2924   6.071   0.534   2.308
  732WAT  OW    2925   6.688   3.154   3.400
  732WAT  HW1   2926   6.766   3.180   3.351
  732WAT  HW2   2927   6.689   3.058   3.397
  732WAT  MW    2928   6.698   3.145   3.393
  733WAT  OW    2929   2.224   1.099   2.309
  733WAT  HW1   2930   2.302   1.046   2.293
  733WAT  HW2   2931   2.218   1.105   2.404
  733WAT  MW    2932   2.234   1.093   2.319
  734WAT  OW    2933   1.439   4.621   6.400
  734WAT  HW1   2934   1.518   4.613   6.347
  734WAT  HW2   2935   1.450   4.554   6.468
  734WAT  MW    2936   1.451   4.611   6.402
  735WAT  OW    2937   5.359   4.433   3.720
  735WAT  HW1   2938   5.448   4.457   3.747
  735WAT  HW2   2939   5.354   4.461   3.629
  735WAT  MW    2940   5.370   4.440   3.712
  736WAT  OW    2941   4.454   1.777   6.056
  736WAT  HW1   2942   4.434   1.840   5.987
  736WAT  HW2   2943   4.375   1.774   6.110
  736WAT  MW    2944   4.441   1.785   6.054
  737WAT  OW    2945   4.059   1.376   2.372
  737WAT  HW1   2946   4.150   1.390   2.346
  737WAT  HW2   2947   4.013   1.454   2.342
  737WAT  MW    2948   4.065   1.388   2.364
  738WAT  OW    2949   5.246   5.513   2.669
  738WAT  HW1   2950   5.163   5.544   2.706
  738WAT  HW2   2951   5.263   5.573   2.596
  738WAT  MW    2952   5.237   5.525   2.664
  739WAT  OW    2953   1.444   0.152   1.882
  739WAT  HW1   2954   1.377   0.157   1.814
  739WAT  HW2   2955   1.396   0.164   1.964
  739WAT  MW    2956   1.429   0.154   1.884
  740WAT  OW    2957   5.449   4.427   3.292
  740WAT  HW1   2958   5.460   4.349   3.347
  740WAT  HW2   2959   5.538   4.459   3.278
  740WAT  MW    2960   5.462   4.421   3.298
  741WAT  OW    2961   1.227   1.805   5.606
  741WAT  HW1   2962   1.315   1.803   5.644
  741WAT  HW2   2963   1.215   1.718   5.568
  741WAT  MW    2964   1.237   1.793   5.606
  742WAT  OW    2965   0.482   5.332   2.345
  742WAT  HW1   2966   0.493   5.329   2.440
  742WAT  HW2   2967   0.555   5.279   2.311
  742WAT  MW    2968   0.493   5.324   2.353
  743WAT  OW    2969   0.913   2.602   4.990
  743WAT  HW1   2970   0.849   2.672   4.975
  743WAT  HW2   2971   0.861   2.521   4.985
  743WAT  MW    2972   0.898   2.600   4.988
  744WAT  OW    2973   2.601   3.418   4.213
  744WAT  HW1   2974   2.532   3.451   4.271
  744WAT  HW2   2975   2.668   3.386   4.273
  744WAT  MW    2976   2.601   3.418   4.229
  745WAT  OW    2977   2.731   4.928   0.767
  745WAT  HW1   2978   2.672   5.003   0.759
  745WAT  HW2   2979   2.762   4.913   0.678
  745WAT  MW    2980   2.727   4.936   0.754
  746WAT  OW    2981   1.796   6.116   0.434
  746WAT  HW1   2982   1.759   6.201   0.459
  746WAT  HW2   2983   1.870   6.104   0.493
  746WAT  MW    2984   1.801   6.126   0.445
  747WAT  OW    2985   2.017   1.544   3.887
  747WAT  HW1   2986   2.047   1.626   3.926
  747WAT  HW2   2987   2.065   1.538   3.805
  747WAT  MW    2988   2.027   1.554   3.882
  748WAT  OW    2989   3.476   2.364   3.730
  748WAT  HW1   2990   3.467   2.324   3.816
  748WAT  HW2   2991   3.401   2.424   3.723
  748WAT  MW    2992   3.465   2.367   3.740
  749WAT  OW    2993   1.103   0.965   0.769
  749WAT  HW1   2994   1.024   0.915   0.787
  749WAT  HW2   2995   1.166   0.901   0.735
  749WAT  MW    2996   1.101   0.950   0.767
  750WAT  OW    2997   3.688   1.736   1.364
  750WAT  HW1   2998   3.727   1.812   1.406
  750WAT  HW2   2999   3.616   1.771   1.311
  750WAT  MW    3000   3.683   1.751   1.363
  751WAT  OW    3001   4.000   0.387   1.883
  751WAT  HW1   3002   3.984   0.460   1.944
  751WAT  HW2   3003   4.067   0.421   1.824
  751WAT  MW    3004   4.007   0.401   1.883
  752WAT  OW    3005   6.571   3.615   0.890
  752WAT  HW1   3006   6.541   3.575   0.809
  752WAT  HW2   3007   6.510   3.688   0.904
  752WAT  MW    3008   6.559   3.620   0.881
  753WAT  OW    3009   3.406   1.630   5.875
  753WAT  HW1   3010   3.318   1.594   5.875
  753WAT  HW2   3011   3.447   1.591   5.797
  753WAT  MW    3012   3.400   1.620   5.865
  754WAT  OW    3013   0.979   2.799   0.753
  754WAT  HW1   3014   0.953   2.870   0.693
  754WAT  HW2   3015   1.054   2.834   0.801
  754WAT  MW    3016   0.985   2.813   0.751
  755WAT  OW    3017   5.828   5.801   5.666
  755WAT  HW1   3018   5.920   5.821   5.681
  755WAT  HW2   3019   5.788   5.887   5.650
  755WAT  MW    3020   5.835   5.815   5.666
  756WAT  OW    3021   2.231   4.386   5.023
  756WAT  HW1   3022   2.255   4.336   5.101
  756WAT  HW2   3023   2.190   4.465   5.056
  756WAT  MW    3024   2.229   4.390   5.038
  757WAT  OW    3025   0.600   1.496   0.202
  757WAT  HW1   3026   0.580   1.537   0.286
  757WAT  HW2   3027   0.514   1.481   0.162
  757WAT  MW    3028   0.586   1.500   0.208
  758WAT  OW    3029   0.955   0.537   6.139
  758WAT  HW1   3030   0.924   0.471   6.077
  758WAT  HW2   3031   0.960   0.491   6.223
  758WAT  MW    3032   0.952   0.522   6.142
  759WAT  OW    3033   2.245   2.469   0.764
  759WAT  HW1   3034   2.293   2.461   0.847
  759WAT  HW2   3035   2.296   2.532   0.713
  759WAT  MW    3036   2.258   2.476   0.768
  760WAT  OW    3037   3.329   4.117   0.652
  760WAT  HW1   3038   3.386   4.108   0.576
  760WAT  HW2   3039   3.316   4.027   0.683
  760WAT  MW    3040   3.335   4.104   0.646
  761WAT  OW    3041   4.523   3.708   1.685
  761WAT  HW1   3042   4.573   3.697   1.605
  761WAT  HW2   3043   4.494   3.619   1.708
  761WAT  MW    3044   4.525   3.695   1.678
  762WAT  OW    3045   4.999   5.769   2.371
  762WAT  HW1   3046   4.982   5.847   2.317
  762WAT  HW2   3047   4.918   5.718   2.367
  762WAT  MW    3048   4.986   5.773   2.363
  763WAT  OW    3049   0.581   0.071   2.415
  763WAT  HW1   3050   0.541  -0.002   2.371
  763WAT  HW2   3051   0.597   0.040   2.504
  763WAT  MW    3052   0.578   0.058   2.421
  764WAT  OW    3053   3.855   4.551   4.644
  764WAT  HW1   3054   3.770   4.572   4.684
  764WAT  HW2   3055   3.920   4.579   4.709
  764WAT  MW    3056   3.852   4.558   4.658
  765WAT  OW    3057   6.189   1.520   5.237
  765WAT  HW1   3058   6.259   1.580   5.264
  765WAT  HW2   3059   6.111   1.575   5.233
  765WAT  MW    3060   6.188   1.536   5.240
  766WAT  OW    3061   5.998   2.040   2.630
  766WAT  HW1   3062   6.055   2.069   2.701
  766WAT  HW2   3063   6.036   2.078   2.551
  766WAT  MW    3064   6.011   2.049   2.629
  767WAT  OW    3065   0.091   5.131   6.000
  767WAT  HW1   3066   0.135   5.095   6.078
  767WAT  HW2   3067   0.105   5.065   5.932
  767WAT  MW    3068   0.099   5.117   6.002
  768WAT  OW    3069   2.491   1.212   1.086
  768WAT  HW1   3070   2.396   1.220   1.093
  768WAT  HW2   3071   2.519   1.194   1.176
  768WAT  MW    3072   2.482   1.211   1.099
  769WAT  OW    3073   6.134   3.407   0.853
  769WAT  HW1   3074   6.047   3.422   0.890
  769WAT  HW2   3075   6.136   3.314   0.833
  769WAT  MW    3076   6.122   3.397   0.855
  770WAT  OW    3077   5.756   3.107   6.383
  770WAT  HW1   3078   5.750   3.201   6.365
  770WAT  HW2   3079   5.717   3.066   6.305
  770WAT  MW    3080   5.750   3.114   6.370
  771WAT  OW    3081   5.039   4.048   3.862
  771WAT  HW1   3082   5.082   4.132   3.846
  771WAT  HW2   3083   5.030   4.043   3.957
  771WAT  MW    3084   5.043   4.059   3.872
  772WAT  OW    3085   3.358   3.409   0.269
  772WAT  HW1   3086   3.443   3.373   0.245
  772WAT  HW2   3087   3.376   3.501   0.290
  772WAT  MW    3088   3.372   3.417   0.269
  773WAT  OW    3089   1.699   1.869   0.044
  773WAT  HW1   3090   1.625   1.864  -0.016
  773WAT  HW2   3091   1.663   1.910   0.123
  773WAT  MW    3092   1.685   1.873   0.047
  774WAT  OW    3093   1.194   0.131   5.995
  774WAT  HW1   3094   1.127   0.145   6.061
  774WAT  HW2   3095   1.146   0.135   5.912
  774WAT  MW    3096   1.179   0.134   5.993
  775WAT  OW    3097   5.878   3.809   3.538
  775WAT  HW1   3098   5.854   3.730   3.586
  775WAT  HW2   3099   5.964   3.789   3.500
  775WAT  MW    3100   5.886   3.796   3.539
  776WAT  OW    3101   6.457   1.326   4.218
  776WAT  HW1   3102   6.504   1.401   4.181
  776WAT  HW2   3103   6.484   1.252   4.165
  776WAT  MW    3104   6.467   1.326   4.206
  777WAT  OW    3105   1.078   4.191   3.352
  777WAT  HW1   3106   1.020   4.115   3.347
  777WAT  HW2   3107   1.050   4.247   3.279
  777WAT  MW    3108   1.066   4.189   3.342
  778WAT  OW    3109   6.613   0.749   3.445
  778WAT  HW1   3110   6.591   0.811   3.375
  778WAT  HW2   3111   6.654   0.675   3.400
  778WAT  MW    3112   6.615   0.747   3.430
  779WAT  OW    3113   4.493   6.238   6.611
  779WAT  HW1   3114   4.413   6.288   6.628
  779WAT  HW2   3115   4.511   6.193   6.693
  779WAT  MW    3116   4.485   6.239   6.624
  780WAT  OW    3117   2.715   2.457   3.564
  780WAT  HW1   3118   2.759   2.395   3.506
  780WAT  HW2   3119   2.767   2.537   3.557
  780WAT  MW    3120   2.728   2.459   3.556
  781WAT  OW    3121   1.726   2.610   0.938
  781WAT  HW1   3122   1.681   2.690   0.966
  781WAT  HW2   3123   1.746   2.565   1.020
  781WAT  MW    3124   1.723   2.615   0.953
  782WAT  OW    3125   1.875   1.744   1.494
  782WAT  HW1   3126   1.787   1.744   1.533
  782WAT  HW2   3127   1.874   1.816   1.432
  782WAT  MW    3128   1.863   1.753   1.491
  783WAT  OW    3129   2.068   5.573   5.800
  783WAT  HW1   3130   2.000   5.505   5.805
  783WAT  HW2   3131   2.132   5.537   5.739
  783WAT  MW    3132   2.067   5.559   5.793
  784WAT  OW    3133   2.568   5.566   3.997
  784WAT  HW1   3134   2.489   5.602   4.037
  784WAT  HW2   3135   2.542   5.547   3.907
  784WAT  MW    3136   2.554   5.569   3.990
  785WAT  OW    3137   1.549   2.765   4.868
  785WAT  HW1   3138   1.573   2.727   4.952
  785WAT  HW2   3139   1.530   2.689   4.812
  785WAT  MW    3140   1.550   2.750   4.871
  786WAT  OW    3141   6.167   5.371   6.079
  786WAT  HW1   3142   6.127   5.284   6.077
  786WAT  HW2   3143   6.258   5.356   6.053
  786WAT  MW    3144   6.174   5.358   6.075
  787WAT  OW    3145   5.297   5.161   3.048
  787WAT  HW1   3146   5.220   5.179   3.102
  787WAT  HW2   3147   5.300   5.233   2.985
  787WAT  MW    3148   5.288   5.173   3.047
  788WAT  OW    3149   3.629   6.339   3.669
  788WAT  HW1   3150   3.566   6.300   3.609
  788WAT  HW2   3151   3.713   6.299   3.645
  788WAT  MW    3152   3.632   6.329   3.658
  789WAT  OW    3153   2.939   2.628   3.020
  789WAT  HW1   3154   2.982   2.698   2.971
  789WAT  HW2   3155   2.979   2.632   3.107
  789WAT  MW    3156   2.950   2.638   3.025
  790WAT  OW    3157   4.316   1.654   3.859
  790WAT  HW1   3158   4.314   1.749   3.852
  790WAT  HW2   3159   4.409   1.632   3.857
  790WAT  MW    3160   4.328   1.663   3.858
  791WAT  OW    3161   0.098   1.213   5.306
  791WAT  HW1   3162   0.093   1.288   5.247
  791WAT  HW2   3163   0.179   1.226   5.354
  791WAT  MW    3164   0.108   1.225   5.304
  792WAT  OW    3165   4.907   4.146   0.246
  792WAT  HW1   3166   4.820   4.170   0.275
  792WAT  HW2   3167   4.912   4.175   0.156
  792WAT  MW    3168   4.897   4.153   0.238
  793WAT  OW    3169   1.383   3.950   3.423
  793WAT  HW1   3170   1.316   3.988   3.480
  793WAT  HW2   3171   1.447   4.020   3.412
  793WAT  MW    3172   1.382   3.964   3.429
  794WAT  OW    3173   2.429   2.109   1.991
  794WAT  HW1   3174   2.448   2.109   2.084
  794WAT  HW2   3175   2.334   2.111   1.985
  794WAT  MW    3176   2.419   2.109   2.002
  795WAT  OW    3177   5.572   3.753   1.066
  795WAT  HW1   3178   5.506   3.686   1.084
  795WAT  HW2   3179   5.635   3.711   1.008
  795WAT  MW    3180   5.571   3.739   1.061
  796WAT  OW    3181   5.610   5.860   5.199
  796WAT  HW1   3182   5.629   5.824   5.286
  796WAT  HW2   3183   5.587   5.951   5.216
  796WAT  MW    3184   5.610   5.867   5.213
  797WAT  OW    3185   3.998   5.772   4.311
  797WAT  HW1   3186   3.971   5.864   4.307
  797WAT  HW2   3187   4.092   5.775   4.329
  797WAT  MW    3188   4.007   5.784   4.313
  798WAT  OW    3189   4.813   5.099   0.772
  798WAT  HW1   3190   4.732   5.130   0.813
  798WAT  HW2   3191   4.786   5.066   0.686
  798WAT  MW    3192   4.799   5.099   0.766
  799WAT  OW    3193   1.228   2.171   3.819
  799WAT  HW1   3194   1.272   2.232   3.759
  799WAT  HW2   3195   1.135   2.178   3.797
  799WAT  MW    3196   1.222   2.180   3.808
  800WAT  OW    3197   4.950   5.434   6.407
  800WAT  HW1   3198   4.939   5.519   6.363
  800WAT  HW2   3199   4.872   5.384   6.382
  800WAT  MW    3200   4.938   5.439   6.398
  801WAT  OW    3201   2.762   2.964   4.629
  801WAT  HW1   3202   2.709   3.018   4.572
  801WAT  HW2   3203   2.811   3.026   4.683
  801WAT  MW    3204   2.762   2.979   4.629
  802WAT  OW    3205   2.347   5.419   2.190
  802WAT  HW1   3206   2.380   5.452   2.106
  802WAT  HW2   3207   2.254   5.403   2.175
  802WAT  MW    3208   2.339   5.421   2.177
  803WAT  OW    3209   5.019   0.384   5.979
  803WAT  HW1   3210   5.078   0.330   5.926
  803WAT  HW2   3211   4.965   0.320   6.026
  803WAT  MW    3212   5.020   0.368   5.979
  804WAT  OW    3213   1.412   2.839   3.623
  804WAT  HW1   3214   1.475   2.897   3.665
  804WAT  HW2   3215   1.347   2.822   3.692
  804WAT  MW    3216   1.411   2.845   3.638
  805WAT  OW    3217   2.913   2.886   1.118
  805WAT  HW1   3218   3.007   2.867   1.117
  805WAT  HW2   3219   2.878   2.837   1.043
  805WAT  MW    3220   2.921   2.877   1.108
  806WAT  OW    3221   3.156   0.154   4.413
  806WAT  HW1   3222   3.108   0.088   4.461
  806WAT  HW2   3223   3.217   0.192   4.477
  806WAT  MW    3224   3.158   0.150   4.428
  807WAT  OW    3225   4.253   1.015   2.475
  807WAT  HW1   3226   4.173   1.030   2.425
  807WAT  HW2   3227   4.228   1.030   2.566
  807WAT  MW    3228   4.239   1.019   2.481
  808WAT  OW    3229   2.036   1.493   1.980
  808WAT  HW1   3230   1.970   1.442   2.027
  808WAT  HW2   3231   2.094   1.526   2.049
  808WAT  MW    3232   2.035   1.490   1.995
  809WAT  OW    3233   2.663   4.332   4.059
  809WAT  HW1   3234   2.674   4.277   4.137
  809WAT  HW2   3235   2.747   4.377   4.050
  809WAT  MW    3236   2.676   4.331   4.068
  810WAT  OW    3237   0.864   4.932   3.336
  810WAT  HW1   3238   0.769   4.926   3.327
  810WAT  HW2   3239   0.895   4.842   3.321
  810WAT  MW    3240   0.856   4.919   3.333
  811WAT  OW    3241   6.527   0.727   1.471
  811WAT  HW1   3242   6.452   0.673   1.494
  811WAT  HW2   3243   6.553   0.768   1.554
  811WAT  MW    3244   6.521   0.725   1.485
  812WAT  OW    3245   3.324   3.960   2.710
  812WAT  HW1   3246   3.233   3.932   2.712
  812WAT  HW2   3247   3.370   3.892   2.661
  812WAT  MW    3248   3.318   3.948   2.704
  813WAT  OW    3249   3.147   3.546   6.074
  813WAT  HW1   3250   3.118   3.468   6.026
  813WAT  HW2   3251   3.169   3.514   6.161
  813WAT  MW    3252   3.146   3.532   6.079
  814WAT  OW    3253   0.433   1.341   3.164
  814WAT  HW1   3254   0.461   1.249   3.169
  814WAT  HW2   3255   0.352   1.338   3.112
  814WAT  MW    3256   0.426   1.328   3.157
  815WAT  OW    3257   1.025   0.271   1.546
  815WAT  HW1   3258   0.991   0.261   1.635
  815WAT  HW2   3259   1.036   0.366   1.536
  815WAT  MW    3260   1.022   0.282   1.557
  816WAT  OW    3261   0.883   5.310   4.612
  816WAT  HW1   3262   0.855   5.390   4.658
  816WAT  HW2   3263   0.801   5.264   4.594
  816WAT  MW    3264   0.868   5.315   4.616
  817WAT  OW    3265   0.164   2.433   2.256
  817WAT  HW1   3266   0.163   2.514   2.204
  817WAT  HW2   3267   0.110   2.452   2.332
  817WAT  MW    3268   0.157   2.446   2.259
  818WAT  OW    3269   2.876   2.298   2.667
  818WAT  HW1   3270   2.869   2.246   2.587
  818WAT  HW2   3271   2.858   2.237   2.738
  818WAT  MW    3272   2.873   2.283   2.665
  819WAT  OW    3273   3.645   4.655   4.781
  819WAT  HW1   3274   3.630   4.741   4.743
  819WAT  HW2   3275   3.724   4.665   4.833
  819WAT  MW    3276   3.654   4.667   4.783
  820WAT  OW    3277   4.402   4.805   6.164
  820WAT  HW1   3278   4.420   4.896   6.142
  820WAT  HW2   3279   4.444   4.792   6.249
  820WAT  MW    3280   4.410   4.816   6.173
  821WAT  OW    3281   1.341   4.519   0.456
  821WAT  HW1   3282   1.305   4.539   0.370
  821WAT  HW2   3283   1.436   4.522   0.444
  821WAT  MW    3284   1.349   4.522   0.443
  822WAT  OW    3285   2.002   1.146   1.289
  822WAT  HW1   3286   2.059   1.094   1.346
  822WAT  HW2   3287   1.959   1.082   1.232
  822WAT  MW    3288   2.004   1.131   1.289
  823WAT  OW    3289   4.114   1.537   6.448
  823WAT  HW1   3290   4.183   1.515   6.387
  823WAT  HW2   3291   4.052   1.464   6.442
  823WAT  MW    3292   4.115   1.524   6.439
  824WAT  OW    3293   3.988   6.368   1.418
  824WAT  HW1   3294   4.041   6.365   1.498
  824WAT  HW2   3295   3.903   6.333   1.444
  824WAT  MW    3296   3.984   6.363   1.432
  825WAT  OW    3297   5.603   0.978   6.646
  825WAT  HW1   3298   5.596   1.068   6.678
  825WAT  HW2   3299   5.553   0.926   6.709
  825WAT  MW    3300   5.595   0.983   6.659
  826WAT  OW    3301   2.609   6.528   3.397
  826WAT  HW1   3302   2.639   6.616   3.374
  826WAT  HW2   3303   2.614   6.480   3.314
  826WAT  MW    3304   2.614   6.533   3.383
  827WAT  OW    3305   0.117   5.579   1.448
  827WAT  HW1   3306   0.057   5.537   1.386
  827WAT  HW2   3307   0.186   5.615   1.393
  827WAT  MW    3308   0.118   5.578   1.432
  828WAT  OW    3309   0.321   3.152   1.443
  828WAT  HW1   3310   0.290   3.242   1.450
  828WAT  HW2   3311   0.309   3.129   1.351
  828WAT  MW    3312   0.315   3.160   1.431
  829WAT  OW    3313   0.886   4.150   0.423
  829WAT  HW1   3314   0.882   4.241   0.452
  829WAT  HW2   3315   0.853   4.151   0.333
  829WAT  MW    3316   0.881   4.162   0.415
  830WAT  OW    3317   2.919   5.422   1.036
  830WAT  HW1   3318   2.892   5.407   1.126
  830WAT  HW2   3319   3.014   5.418   1.038
  830WAT  MW    3320   2.928   5.420   1.048
  831WAT  OW    3321   3.853   5.667   4.887
  831WAT  HW1   3322   3.854   5.726   4.811
  831WAT  HW2   3323   3.796   5.595   4.860
  831WAT  MW    3324   3.845   5.666   4.873
  832WAT  OW    3325   4.881   4.870   5.337
  832WAT  HW1   3326   4.903   4.938   5.401
  832WAT  HW2   3327   4.793   4.893   5.307
  832WAT  MW    3328   4.872   4.882   5.342
  833WAT  OW    3329   0.774   3.426   1.780
  833WAT  HW1   3330   0.791   3.419   1.686
  833WAT  HW2   3331   0.771   3.521   1.796
  833WAT  MW    3332   0.776   3.438   1.770
  834WAT  OW    3333   1.417   2.325   0.463
  834WAT  HW1   3334   1.501   2.370   0.472
  834WAT  HW2   3335   1.408   2.275   0.544
  834WAT  MW    3336   1.427   2.325   0.475
  835WAT  OW    3337   2.255   5.997   1.982
  835WAT  HW1   3338   2.329   5.951   1.943
  835WAT  HW2   3339   2.278   6.004   2.075
  835WAT  MW    3340   2.268   5.992   1.990
  836WAT  OW    3341   0.314   1.216   0.287
  836WAT  HW1   3342   0.400   1.185   0.317
  836WAT  HW2   3343   0.332   1.302   0.249
  836WAT  MW    3344   0.328   1.223   0.286
  837WAT  OW    3345   0.067   3.679   1.824
  837WAT  HW1   3346   0.018   3.653   1.747
  837WAT  HW2   3347   0.018   3.642   1.898
  837WAT  MW    3348   0.054   3.671   1.824
  838WAT  OW    3349   5.200   1.887   5.756
  838WAT  HW1   3350   5.112   1.848   5.759
  838WAT  HW2   3351   5.187   1.970   5.710
  838WAT  MW    3352   5.187   1.893   5.750
  839WAT  OW    3353   1.368   2.517   3.193
  839WAT  HW1   3354   1.317   2.493   3.270
  839WAT  HW2   3355   1.350   2.610   3.180
  839WAT  MW    3356   1.359   2.526   3.201
  840WAT  OW    3357   1.854   1.998   5.751
  840WAT  HW1   3358   1.906   1.926   5.785
  840WAT  HW2   3359   1.793   2.019   5.822
  840WAT  MW    3360   1.852   1.991   5.765
  841WAT  OW    3361   1.584   4.669   2.012
  841WAT  HW1   3362   1.559   4.578   2.029
  841WAT  HW2   3363   1.509   4.721   2.041
  841WAT  MW    3364   1.571   4.664   2.018
  842WAT  OW    3365   4.781   4.218   3.699
  842WAT  HW1   3366   4.830   4.188   3.775
  842WAT  HW2   3367   4.706   4.265   3.735
  842WAT  MW    3368   4.777   4.220   3.714
  843WAT  OW    3369   5.414   5.122   4.080
  843WAT  HW1   3370   5.455   5.201   4.115
  843WAT  HW2   3371   5.381   5.148   3.995
  843WAT  MW    3372   5.415   5.136   4.074
  844WAT  OW    3373   5.342   6.259   0.723
  844WAT  HW1   3374   5.347   6.220   0.811
  844WAT  HW2   3375   5.422   6.311   0.716
  844WAT  MW    3376   5.353   6.261   0.734
  845WAT  OW    3377   1.826   0.090   6.162
  845WAT  HW1   3378   1.765   0.147   6.115
  845WAT  HW2   3379   1.912   0.127   6.143
  845WAT  MW    3380   1.829   0.102   6.153
  846WAT  OW    3381   2.238   6.248   3.449
  846WAT  HW1   3382   2.195   6.168   3.418
  846WAT  HW2   3383   2.166   6.308   3.466
  846WAT  MW    3384   2.222   6.245   3.447
  847WAT  OW    3385   5.682   3.945   0.205
  847WAT  HW1   3386   5.633   4.019   0.241
  847WAT  HW2   3387   5.614   3.888   0.167
  847WAT  MW    3388   5.666   3.947   0.205
  848WAT  OW    3389   5.993   4.817   2.175
  848WAT  HW1   3390   5.948   4.782   2.251
  848WAT  HW2   3391   6.003   4.910   2.194
  848WAT  MW    3392   5.988   4.825   2.187
  849WAT  OW    3393   1.022   3.923   1.549
  849WAT  HW1   3394   1.111   3.937   1.519
  849WAT  HW2   3395   1.012   3.827   1.552
  849WAT  MW    3396   1.032   3.912   1.545
  850WAT  OW    3397   0.543   4.763   1.350
  850WAT  HW1   3398   0.545   4.857   1.328
  850WAT  HW2   3399   0.474   4.727   1.295
  850WAT  MW    3400   0.534   4.771   1.340
  851WAT  OW    3401   1.082   4.713   3.575
  851WAT  HW1   3402   1.145   4.745   3.510
  851WAT  HW2   3403   1.126   4.638   3.615
  851WAT  MW    3404   1.096   4.708   3.572
  852WAT  OW    3405   2.729   4.462   4.530
  852WAT  HW1   3406   2.642   4.454   4.491
  852WAT  HW2   3407   2.770   4.377   4.514
  852WAT  MW    3408   2.723   4.450   4.523
  853WAT  OW    3409   0.173   3.740   5.086
  853WAT  HW1   3410   0.188   3.783   5.170
  853WAT  HW2   3411   0.217   3.655   5.095
  853WAT  MW    3412   0.181   3.735   5.098
  854WAT  OW    3413   0.362   4.999   6.428
  854WAT  HW1   3414   0.450   5.039   6.431
  854WAT  HW2   3415   0.377   4.907   6.446
  854WAT  MW    3416   0.376   4.992   6.430
  855WAT  OW    3417   2.767   4.675   4.195
  855WAT  HW1   3418   2.752   4.747   4.134
  855WAT  HW2   3419   2.800   4.604   4.139
  855WAT  MW    3420   2.769   4.675   4.179
  856WAT  OW    3421   2.323   2.212   1.610
  856WAT  HW1   3422   2.390   2.243   1.550
  856WAT  HW2   3423   2.366   2.144   1.662
  856WAT  MW    3424   2.337   2.207   1.609
  857WAT  OW    3425   5.758   1.801   3.567
  857WAT  HW1   3426   5.746   1.779   3.474
  857WAT  HW2   3427   5.819   1.735   3.599
  857WAT  MW    3428   5.765   1.789   3.559
  858WAT  OW    3429   3.175   1.318   2.596
  858WAT  HW1   3430   3.141   1.231   2.615
  858WAT  HW2   3431   3.108   1.360   2.542
  858WAT  MW    3432   3.162   1.312   2.591
  859WAT  OW    3433   5.160   4.168   0.378
  859WAT  HW1   3434   5.224   4.113   0.332
  859WAT  HW2   3435   5.083   4.167   0.322
  859WAT  MW    3436   5.158   4.161   0.364
  860WAT  OW    3437   6.627   1.922   0.876
  860WAT  HW1   3438   6.676   1.917   0.958
  860WAT  HW2   3439   6.576   1.841   0.872
  860WAT  MW    3440   6.627   1.911   0.886
  861WAT  OW    3441   5.649   6.039   1.931
  861WAT  HW1   3442   5.671   6.024   1.838
  861WAT  HW2   3443   5.556   6.062   1.930
  861WAT  MW    3444   5.640   6.040   1.918
  862WAT  OW    3445   5.388   2.428   5.646
  862WAT  HW1   3446   5.430   2.385   5.573
  862WAT  HW2   3447   5.381   2.360   5.713
  862WAT  MW    3448   5.393   2.414   5.646
  863WAT  OW    3449   1.996   3.794   2.248
  863WAT  HW1   3450   1.925   3.847   2.284
  863WAT  HW2   3451   2.076   3.840   2.273
  863WAT  MW    3452   1.997   3.807   2.256
  864WAT  OW    3453   3.704   2.222   6.400
  864WAT  HW1   3454   3.644   2.289   6.432
  864WAT  HW2   3455   3.791   2.255   6.422
  864WAT  MW    3456   3.708   2.235   6.407
  865WAT  OW    3457   1.700   4.399   6.100
  865WAT  HW1   3458   1.711   4.491   6.126
  865WAT  HW2   3459   1.621   4.371   6.146
  865WAT  MW    3460   1.691   4.408   6.109
  866WAT  OW    3461   0.314   0.403   5.200
  866WAT  HW1   3462   0.330   0.370   5.112
  866WAT  HW2   3463   0.376   0.476   5.210
  866WAT  MW    3464   0.325   0.409   5.190
  867WAT  OW    3465   4.184   1.748   3.079
  867WAT  HW1   3466   4.175   1.703   2.995
  867WAT  HW2   3467   4.271   1.724   3.110
  867WAT  MW    3468   4.194   1.739   3.072
  868WAT  OW    3469   3.979   3.659   3.257
  868WAT  HW1   3470   4.055   3.712   3.233
  868WAT  HW2   3471   3.930   3.651   3.176
  868WAT  MW    3472   3.983   3.665   3.243
  869WAT  OW    3473   1.329   3.550   3.799
  869WAT  HW1   3474   1.251   3.544   3.744
  869WAT  HW2   3475   1.314   3.626   3.855
  869WAT  MW    3476   1.317   3.559   3.800
  870WAT  OW    3477   1.146   0.892   2.759
  870WAT  HW1   3478   1.070   0.949   2.751
  870WAT  HW2   3479   1.109   0.807   2.783
  870WAT  MW    3480   1.131   0.888   2.761
  871WAT  OW    3481   2.264   6.694   2.923
  871WAT  HW1   3482   2.322   6.770   2.933
  871WAT  HW2   3483   2.199   6.704   2.992
  871WAT  MW    3484   2.263   6.705   2.933
  872WAT  OW    3485   5.856   3.367   4.757
  872WAT  HW1   3486   5.828   3.371   4.666
  872WAT  HW2   3487   5.877   3.458   4.779
  872WAT  MW    3488   5.855   3.380   4.748
  873WAT  OW    3489   1.739   2.734   6.438
  873WAT  HW1   3490   1.805   2.712   6.372
  873WAT  HW2   3491   1.657   2.737   6.390
  873WAT  MW    3492   1.737   2.732   6.423
  874WAT  OW    3493   5.073   4.918   5.946
  874WAT  HW1   3494   5.136   4.962   6.004
  874WAT  HW2   3495   5.000   4.979   5.938
  874WAT  MW    3496   5.072   4.932   5.953
  875WAT  OW    3497   1.448   1.436   4.606
  875WAT  HW1   3498   1.437   1.469   4.517
  875WAT  HW2   3499   1.386   1.364   4.613
  875WAT  MW    3500   1.438   1.431   4.595
  876WAT  OW    3501   1.275   5.302   0.580
  876WAT  HW1   3502   1.251   5.221   0.535
  876WAT  HW2   3503   1.195   5.332   0.622
  876WAT  MW    3504   1.262   5.295   0.580
  877WAT  OW    3505   4.838   6.123   0.388
  877WAT  HW1   3506   4.846   6.047   0.447
  877WAT  HW2   3507   4.900   6.104   0.317
  877WAT  MW    3508   4.847   6.110   0.387
  878WAT  OW    3509   5.502   2.773   5.641
  878WAT  HW1   3510   5.594   2.756   5.619
  878WAT  HW2   3511   5.502   2.781   5.736
  878WAT  MW    3512   5.514   2.772   5.651
  879WAT  OW    3513   0.601   6.227   0.330
  879WAT  HW1   3514   0.605   6.309   0.379
  879WAT  HW2   3515   0.507   6.212   0.317
  879WAT  MW    3516   0.589   6.236   0.335
  880WAT  OW    3517   5.057   6.190   5.424
  880WAT  HW1   3518   5.127   6.129   5.398
  880WAT  HW2   3519   5.066   6.264   5.363
  880WAT  MW    3520   5.068   6.192   5.412
  881WAT  OW    3521   1.131   1.912   4.121
  881WAT  HW1   3522   1.188   1.864   4.182
  881WAT  HW2   3523   1.141   1.866   4.038
  881WAT  MW    3524   1.140   1.899   4.118
  882WAT  OW    3525   6.041   1.264   1.614
  882WAT  HW1   3526   6.018   1.347   1.572
  882WAT  HW2   3527   6.136   1.260   1.609
  882WAT  MW    3528   6.050   1.274   1.608
  883WAT  OW    3529   3.661   6.678   4.057
  883WAT  HW1   3530   3.736   6.679   3.998
  883WAT  HW2   3531   3.585   6.678   4.000
  883WAT  MW    3532   3.661   6.678   4.042
  884WAT  OW    3533   0.927   1.904   0.776
  884WAT  HW1   3534   0.980   1.977   0.808
  884WAT  HW2   3535   0.837   1.931   0.795
  884WAT  MW    3536   0.922   1.917   0.783
  885WAT  OW    3537   2.535   3.483   6.043
  885WAT  HW1   3538   2.626   3.471   6.071
  885WAT  HW2   3539   2.541   3.531   5.961
  885WAT  MW    3540   2.548   3.487   6.036
  886WAT  OW    3541   0.605   6.380   6.155
  886WAT  HW1   3542   0.514   6.380   6.128
  886WAT  HW2   3543   0.620   6.467   6.191
  886WAT  MW    3544   0.595   6.391   6.157
  887WAT  OW    3545   5.548   3.041   4.620
  887WAT  HW1   3546   5.560   3.098   4.544
  887WAT  HW2   3547   5.462   3.065   4.654
  887WAT  MW    3548   5.538   3.051   4.614
  888WAT  OW    3549   3.063   2.486   3.568
  888WAT  HW1   3550   3.102   2.415   3.518
  888WAT  HW2   3551   3.136   2.526   3.614
  888WAT  MW    3552   3.078   2.482   3.568
  889WAT  OW    3553   4.941   0.509   1.868
  889WAT  HW1   3554   4.850   0.491   1.889
  889WAT  HW2   3555   4.939   0.543   1.778
  889WAT  MW    3556   4.929   0.511   1.859
  890WAT  OW    3557   5.104   2.621   6.455
  890WAT  HW1   3558   5.069   2.600   6.369
  890WAT  HW2   3559   5.058   2.563   6.515
  890WAT  MW    3560   5.094   2.611   6.452
  891WAT  OW    3561   4.344   3.220   2.091
  891WAT  HW1   3562   4.337   3.158   2.164
  891WAT  HW2   3563   4.401   3.289   2.125
  891WAT  MW    3564   4.351   3.221   2.105
  892WAT  OW    3565   5.017   5.340   0.913
  892WAT  HW1   3566   5.097   5.362   0.865
  892WAT  HW2   3567   4.959   5.303   0.846
  892WAT  MW    3568   5.020   5.338   0.898
  893WAT  OW    3569   5.729   4.019   3.449
  893WAT  HW1   3570   5.775   4.084   3.502
  893WAT  HW2   3571   5.764   3.935   3.479
  893WAT  MW    3572   5.740   4.017   3.460
  894WAT  OW    3573   6.397   1.786   1.177
  894WAT  HW1   3574   6.342   1.714   1.209
  894WAT  HW2   3575   6.405   1.770   1.083
  894WAT  MW    3576   6.391   1.774   1.169
  895WAT  OW    3577   3.161   6.252   4.790
  895WAT  HW1   3578   3.164   6.302   4.871
  895WAT  HW2   3579   3.215   6.174   4.808
  895WAT  MW    3580   3.168   6.248   4.803
  896WAT  OW    3581   0.225   1.435   4.851
  896WAT  HW1   3582   0.240   1.340   4.851
  896WAT  HW2   3583   0.266   1.465   4.770
  896WAT  MW    3584   0.232   1.426   4.840
  897WAT  OW    3585   3.962   0.988   2.403
  897WAT  HW1   3586   3.899   0.937   2.454
  897WAT  HW2   3587   3.918   1.005   2.320
  897WAT  MW    3588   3.948   0.983   2.398
  898WAT  OW    3589   6.199   3.976   6.034
  898WAT  HW1   3590   6.235   4.058   6.068
  898WAT  HW2   3591   6.228   3.909   6.097
  898WAT  MW    3592   6.207   3.978   6.047
  899WAT  OW    3593   4.445   3.592   3.695
  899WAT  HW1   3594   4.357   3.592   3.656
  899WAT  HW2   3595   4.493   3.526   3.647
  899WAT  MW    3596   4.440   3.583   3.684
  900WAT  OW    3597   0.535   5.012   5.210
  900WAT  HW1   3598   0.579   5.093   5.236
  900WAT  HW2   3599   0.464   5.040   5.154
  900WAT  MW    3600   0.532   5.026   5.206
  901WAT  OW    3601   2.909   1.451   2.666
  901WAT  HW1   3602   2.919   1.539   2.630
  901WAT  HW2   3603   2.833   1.457   2.725
  901WAT  MW    3604   2.900   1.463   2.669
  902WAT  OW    3605   5.897   0.673   4.223
  902WAT  HW1   3606   5.992   0.666   4.221
  902WAT  HW2   3607   5.872   0.693   4.133
  902WAT  MW    3608   5.906   0.675   4.211
  903WAT  OW    3609   6.187   0.824   2.583
  903WAT  HW1   3610   6.166   0.770   2.659
  903WAT  HW2   3611   6.282   0.820   2.576
  903WAT  MW    3612   6.197   0.816   2.592
  904WAT  OW    3613   3.081   5.092   4.504
  904WAT  HW1   3614   3.019   5.061   4.570
  904WAT  HW2   3615   3.035   5.165   4.461
  904WAT  MW    3616   3.066   5.098   4.507
  905WAT  OW    3617   4.142   3.243   2.981
  905WAT  HW1   3618   4.061   3.258   3.028
  905WAT  HW2   3619   4.174   3.330   2.957
  905WAT  MW    3620   4.136   3.256   2.984
  906WAT  OW    3621   3.304   3.693   6.395
  906WAT  HW1   3622   3.259   3.778   6.399
  906WAT  HW2   3623   3.391   3.710   6.431
  906WAT  MW    3624   3.309   3.707   6.400
  907WAT  OW    3625   0.132   0.807   1.557
  907WAT  HW1   3626   0.220   0.823   1.591
  907WAT  HW2   3627   0.144   0.790   1.464
  907WAT  MW    3628   0.145   0.807   1.549
  908WAT  OW    3629   3.457   0.027   3.857
  908WAT  HW1   3630   3.418  -0.060   3.848
  908WAT  HW2   3631   3.452   0.065   3.769
  908WAT  MW    3632   3.451   0.021   3.845
  909WAT  OW    3633   6.199   5.954   1.915
  909WAT  HW1   3634   6.234   6.018   1.854
  909WAT  HW2   3635   6.236   5.978   2.000
  909WAT  MW    3636   6.208   5.965   1.918
  910WAT  OW    3637   1.080   2.993   0.379
  910WAT  HW1   3638   1.074   2.899   0.365
  910WAT  HW2   3639   1.059   3.032   0.294
  910WAT  MW    3640   1.076   2.986   0.366
  911WAT  OW    3641   2.231   3.682   2.098
  911WAT  HW1   3642   2.303   3.720   2.148
  911WAT  HW2   3643   2.165   3.659   2.165
  911WAT  MW    3644   2.231   3.684   2.113
  912WAT  OW    3645   5.338   6.262   3.060
  912WAT  HW1   3646   5.255   6.300   3.029
  912WAT  HW2   3647   5.404   6.325   3.031
  912WAT  MW    3648   5.335   6.276   3.052
  913WAT  OW    3649   6.597   6.116   2.293
  913WAT  HW1   3650   6.686   6.146   2.311
  913WAT  HW2   3651   6.609   6.041   2.234
  913WAT  MW    3652   6.610   6.110   2.287
  914WAT  OW    3653   0.526   1.820   4.281
  914WAT  HW1   3654   0.586   1.746   4.281
  914WAT  HW2   3655   0.581   1.895   4.260
  914WAT  MW    3656   0.541   1.820   4.278
  915WAT  OW    3657   0.336   2.210   5.494
  915WAT  HW1   3658   0.432   2.214   5.486
  915WAT  HW2   3659   0.320   2.185   5.585
  915WAT  MW    3660   0.347   2.207   5.505
  916WAT  OW    3661   2.372   0.858   1.484
  916WAT  HW1   3662   2.422   0.825   1.559
  916WAT  HW2   3663   2.280   0.843   1.509
  916WAT  MW    3664   2.366   0.852   1.497
  917WAT  OW    3665   0.544   6.470   6.475
  917WAT  HW1   3666   0.630   6.438   6.501
  917WAT  HW2   3667   0.507   6.506   6.556
  917WAT  MW    3668   0.550   6.471   6.489
  918WAT  OW    3669   6.644   6.076   4.298
  918WAT  HW1   3670   6.718   6.080   4.358
  918WAT  HW2   3671   6.683   6.086   4.211
  918WAT  MW    3672   6.659   6.078   4.294
  919WAT  OW    3673   5.465   1.716   2.618
  919WAT  HW1   3674   5.390   1.704   2.560
  919WAT  HW2   3675   5.527   1.768   2.568
  919WAT  MW    3676   5.463   1.721   2.604
  920WAT  OW    3677   6.629   1.280   0.025
  920WAT  HW1   3678   6.698   1.227   0.064
  920WAT  HW2   3679   6.668   1.314  -0.055
  920WAT  MW    3680   6.643   1.278   0.020
  921WAT  OW    3681   6.286   3.883   5.795
  921WAT  HW1   3682   6.263   3.926   5.877
  921WAT  HW2   3683   6.382   3.883   5.795
  921WAT  MW    3684   6.296   3.889   5.806
  922WAT  OW    3685   4.628   2.013   3.521
  922WAT  HW1   3686   4.667   1.927   3.533
  922WAT  HW2   3687   4.661   2.065   3.595
  922WAT  MW    3688   4.637   2.009   3.532
  923WAT  OW    3689   2.949   4.807   2.073
  923WAT  HW1   3690   3.006   4.735   2.100
  923WAT  HW2   3691   2.861   4.768   2.071
  923WAT  MW    3692   2.945   4.792   2.076
  924WAT  OW    3693   3.563   0.616   1.742
  924WAT  HW1   3694   3.614   0.672   1.800
  924WAT  HW2   3695   3.581   0.527   1.773
  924WAT  MW    3696   3.572   0.612   1.754
  925WAT  OW    3697   0.471   3.451   3.304
  925WAT  HW1   3698   0.564   3.452   3.327
  925WAT  HW2   3699   0.439   3.537   3.332
  925WAT  MW    3700   0.479   3.463   3.310
  926WAT  OW    3701   4.775   6.605   2.502
  926WAT  HW1   3702   4.704   6.636   2.559
  926WAT  HW2   3703   4.807   6.526   2.545
  926WAT  MW    3704   4.770   6.599   2.515
  927WAT  OW    3705   5.453   2.527   4.776
  927WAT  HW1   3706   5.394   2.602   4.763
  927WAT  HW2   3707   5.396   2.450   4.768
  927WAT  MW    3708   5.437   2.527   4.773
  928WAT  OW    3709   5.629   1.915   0.246
  928WAT  HW1   3710   5.705   1.873   0.206
  928WAT  HW2   3711   5.628   2.004   0.211
  928WAT  MW    3712   5.639   1.921   0.236
  929WAT  OW    3713   6.516   0.227   4.401
  929WAT  HW1   3714   6.457   0.200   4.472
  929WAT  HW2   3715   6.579   0.284   4.444
  929WAT  MW    3716   6.516   0.231   4.416
  930WAT  OW    3717   0.081   1.425   1.755
  930WAT  HW1   3718   0.101   1.487   1.685
  930WAT  HW2   3719   0.083   1.479   1.835
  930WAT  MW    3720   0.084   1.440   1.756
  931WAT  OW    3721   6.414   2.070   0.990
  931WAT  HW1   3722   6.431   2.149   0.938
  931WAT  HW2   3723   6.498   2.025   0.993
  931WAT  MW    3724   6.427   2.075   0.983
  932WAT  OW    3725   4.576   4.025   5.850
  932WAT  HW1   3726   4.636   3.966   5.896
  932WAT  HW2   3727   4.500   4.032   5.908
  932WAT  MW    3728   4.574   4.018   5.864
  933WAT  OW    3729   5.468   3.511   0.654
  933WAT  HW1   3730   5.381   3.550   0.664
  933WAT  HW2   3731   5.529   3.585   0.663
  933WAT  MW    3732   5.465   3.526   0.657
  934WAT  OW    3733   4.958   1.297   1.982
  934WAT  HW1   3734   4.890   1.297   2.049
  934WAT  HW2   3735   5.012   1.220   2.003
  934WAT  MW    3736   4.956   1.286   1.994
  935WAT  OW    3737   2.224   5.297   2.428
  935WAT  HW1   3738   2.188   5.348   2.356
  935WAT  HW2   3739   2.256   5.216   2.387
  935WAT  MW    3740   2.224   5.293   2.413
  936WAT  OW    3741   5.424   0.960   5.569
  936WAT  HW1   3742   5.464   0.875   5.588
  936WAT  HW2   3743   5.351   0.967   5.630
  936WAT  MW    3744   5.419   0.950   5.580
  937WAT  OW    3745   0.453   4.701   3.025
  937WAT  HW1   3746   0.497   4.783   3.003
  937WAT  HW2   3747   0.457   4.698   3.121
  937WAT  MW    3748   0.460   4.712   3.035
  938WAT  OW    3749   0.124   4.435   6.675
  938WAT  HW1   3750   0.121   4.356   6.729
  938WAT  HW2   3751   0.124   4.507   6.738
  938WAT  MW    3752   0.124   4.434   6.691
  939WAT  OW    3753   5.269   3.845   4.150
  939WAT  HW1   3754   5.337   3.885   4.203
  939WAT  HW2   3755   5.287   3.875   4.061
  939WAT  MW    3756   5.280   3.854   4.145
  940WAT  OW    3757   3.285   5.334   2.605
  940WAT  HW1   3758   3.276   5.239   2.598
  940WAT  HW2   3759   3.212   5.362   2.660
  940WAT  MW    3760   3.274   5.325   2.612
  941WAT  OW    3761   6.090   4.378   4.736
  941WAT  HW1   3762   6.089   4.367   4.831
  941WAT  HW2   3763   6.027   4.447   4.719
  941WAT  MW    3764   6.082   4.385   4.746
  942WAT  OW    3765   1.873   3.499   1.491
  942WAT  HW1   3766   1.927   3.574   1.519
  942WAT  HW2   3767   1.787   3.537   1.475
  942WAT  MW    3768   1.869   3.514   1.493
  943WAT  OW    3769   6.153   1.696   2.383
  943WAT  HW1   3770   6.073   1.726   2.425
  943WAT  HW2   3771   6.203   1.654   2.454
  943WAT  MW    3772   6.149   1.694   2.398
  944WAT  OW    3773   6.154   3.004   5.557
  944WAT  HW1   3774   6.203   2.923   5.567
  944WAT  HW2   3775   6.073   2.990   5.606
  944WAT  MW    3776   6.149   2.992   5.565
  945WAT  OW    3777   0.795   0.940   2.146
  945WAT  HW1   3778   0.715   0.955   2.196
  945WAT  HW2   3779   0.770   0.961   2.055
  945WAT  MW    3780   0.781   0.945   2.140
  946WAT  OW    3781   2.300   0.382   5.354
  946WAT  HW1   3782   2.391   0.364   5.378
  946WAT  HW2   3783   2.301   0.470   5.316
  946WAT  MW    3784   2.312   0.391   5.352
  947WAT  OW    3785   2.007   3.871   4.526
  947WAT  HW1   3786   2.062   3.794   4.537
  947WAT  HW2   3787   2.053   3.941   4.573
  947WAT  MW    3788   2.020   3.870   4.534
  948WAT  OW    3789   2.939   3.531   0.724
  948WAT  HW1   3790   2.968   3.441   0.738
  948WAT  HW2   3791   2.910   3.533   0.633
  948WAT  MW    3792   2.939   3.520   0.713
  949WAT  OW    3793   1.850   3.957   1.602
  949WAT  HW1   3794   1.780   3.995   1.548
  949WAT  HW2   3795   1.868   4.025   1.667
  949WAT  MW    3796   1.843   3.971   1.603
  950WAT  OW    3797   3.762   4.780   3.435
  950WAT  HW1   3798   3.693   4.723   3.402
  950WAT  HW2   3799   3.717   4.862   3.458
  950WAT  MW    3800   3.747   4.783   3.434
  951WAT  OW    3801   3.661   5.550   0.182
  951WAT  HW1   3802   3.708   5.529   0.263
  951WAT  HW2   3803   3.731   5.567   0.118
  951WAT  MW    3804   3.677   5.550   0.184
  952WAT  OW    3805   1.348   0.533   3.137
  952WAT  HW1   3806   1.362   0.586   3.058
  952WAT  HW2   3807   1.256   0.506   3.132
  952WAT  MW    3808   1.338   0.536   3.126
  953WAT  OW    3809   4.614   1.357   6.574
  953WAT  HW1   3810   4.691   1.400   6.537
  953WAT  HW2   3811   4.574   1.312   6.499
  953WAT  MW    3812   4.619   1.356   6.559
  954WAT  OW    3813   4.844   5.089   6.182
  954WAT  HW1   3814   4.870   5.119   6.095
  954WAT  HW2   3815   4.925   5.064   6.225
  954WAT  MW    3816   4.858   5.090   6.176
  955WAT  OW    3817   3.084   1.678   1.183
  955WAT  HW1   3818   3.050   1.766   1.164
  955WAT  HW2   3819   3.006   1.627   1.205
  955WAT  MW    3820   3.069   1.683   1.183
  956WAT  OW    3821   6.285   6.602   0.176
  956WAT  HW1   3822   6.204   6.591   0.225
  956WAT  HW2   3823   6.270   6.682   0.124
  956WAT  MW    3824   6.272   6.611   0.175
  957WAT  OW    3825   5.477   0.733   2.029
  957WAT  HW1   3826   5.450   0.642   2.042
  957WAT  HW2   3827   5.435   0.759   1.947
  957WAT  MW    3828   5.468   0.724   2.020
  958WAT  OW    3829   4.493   3.258   1.184
  958WAT  HW1   3830   4.420   3.268   1.123
  958WAT  HW2   3831   4.458   3.201   1.253
  958WAT  MW    3832   4.478   3.252   1.185
  959WAT  OW    3833   1.367   2.240   6.381
  959WAT  HW1   3834   1.365   2.331   6.351
  959WAT  HW2   3835   1.430   2.241   6.453
  959WAT  MW    3836   1.375   2.253   6.387
  960WAT  OW    3837   2.761   4.710   3.579
  960WAT  HW1   3838   2.800   4.796   3.559
  960WAT  HW2   3839   2.832   4.661   3.620
  960WAT  MW    3840   2.776   4.715   3.582
  961WAT  OW    3841   3.597   4.924   4.731
  961WAT  HW1   3842   3.666   4.985   4.707
  961WAT  HW2   3843   3.516   4.974   4.719
  961WAT  MW    3844   3.595   4.938   4.726
  962WAT  OW    3845   2.620   3.929   0.542
  962WAT  HW1   3846   2.570   3.987   0.600
  962WAT  HW2   3847   2.584   3.948   0.455
  962WAT  MW    3848   2.608   3.939   0.538
  963WAT  OW    3849   2.697   6.608   5.693
  963WAT  HW1   3850   2.700   6.524   5.647
  963WAT  HW2   3851   2.632   6.659   5.646
  963WAT  MW    3852   2.689   6.603   5.681
  964WAT  OW    3853   2.801   0.548   5.524
  964WAT  HW1   3854   2.894   0.566   5.515
  964WAT  HW2   3855   2.762   0.632   5.548
  964WAT  MW    3856   2.808   0.561   5.526
  965WAT  OW    3857   2.995   6.396   1.408
  965WAT  HW1   3858   2.977   6.304   1.428
  965WAT  HW2   3859   2.909   6.434   1.391
  965WAT  MW    3860   2.982   6.388   1.408
  966WAT  OW    3861   5.330   6.512   2.159
  966WAT  HW1   3862   5.323   6.570   2.083
  966WAT  HW2   3863   5.419   6.476   2.153
  966WAT  MW    3864   5.341   6.515   2.148
  967WAT  OW    3865   6.235   6.314   4.010
  967WAT  HW1   3866   6.161   6.254   4.018
  967WAT  HW2   3867   6.312   6.259   4.020
  967WAT  MW    3868   6.235   6.299   4.012
  968WAT  OW    3869   6.049   2.580   4.172
  968WAT  HW1   3870   6.073   2.487   4.165
  968WAT  HW2   3871   6.079   2.618   4.090
  968WAT  MW    3872   6.056   2.572   4.160
  969WAT  OW    3873   0.670   2.692   1.880
  969WAT  HW1   3874   0.722   2.645   1.815
  969WAT  HW2   3875   0.722   2.768   1.902
  969WAT  MW    3876   0.683   2.696   1.875
  970WAT  OW    3877   4.344   6.642   0.896
  970WAT  HW1   3878   4.313   6.637   0.806
  970WAT  HW2   3879   4.416   6.579   0.900
  970WAT  MW    3880   4.349   6.633   0.885
  971WAT  OW    3881   1.495   6.534   0.933
  971WAT  HW1   3882   1.423   6.582   0.891
  971WAT  HW2   3883   1.452   6.482   1.001
  971WAT  MW    3884   1.479   6.534   0.936
  972WAT  OW    3885   4.484   1.905   6.625
  972WAT  HW1   3886   4.444   1.892   6.539
  972WAT  HW2   3887   4.465   1.996   6.646
  972WAT  MW    3888   4.476   1.915   6.616
  973WAT  OW    3889   2.537   2.703   3.284
  973WAT  HW1   3890   2.579   2.649   3.217
  973WAT  HW2   3891   2.507   2.641   3.349
  973WAT  MW    3892   2.539   2.688   3.283
  974WAT  OW    3893   2.765   0.166   2.888
  974WAT  HW1   3894   2.827   0.160   2.816
  974WAT  HW2   3895   2.773   0.256   2.920
  974WAT  MW    3896   2.774   0.177   2.883
  975WAT  OW    3897   4.411   5.637   5.673
  975WAT  HW1   3898   4.320   5.663   5.662
  975WAT  HW2   3899   4.459   5.719   5.677
  975WAT  MW    3900   4.405   5.651   5.672
  976WAT  OW    3901   4.639   1.806   3.095
  976WAT  HW1   3902   4.663   1.720   3.131
  976WAT  HW2   3903   4.661   1.799   3.002
  976WAT  MW    3904   4.645   1.794   3.087
  977WAT  OW    3905   2.944   2.172   4.666
  977WAT  HW1   3906   2.979   2.205   4.749
  977WAT  HW2   3907   3.006   2.105   4.639
  977WAT  MW    3908   2.957   2.168   4.674
  978WAT  OW    3909   3.475   3.568   6.200
  978WAT  HW1   3910   3.441   3.581   6.112
  978WAT  HW2   3911   3.399   3.581   6.257
  978WAT  MW    3912   3.461   3.571   6.196
  979WAT  OW    3913   1.411   0.054   0.461
  979WAT  HW1   3914   1.395   0.108   0.538
  979WAT  HW2   3915   1.411   0.116   0.388
  979WAT  MW    3916   1.409   0.070   0.461
  980WAT  OW    3917   2.369   3.159   3.710
  980WAT  HW1   3918   2.330   3.241   3.680
  980WAT  HW2   3919   2.376   3.168   3.805
  980WAT  MW    3920   2.365   3.171   3.719
  981WAT  OW    3921   6.668   1.081   3.446
  981WAT  HW1   3922   6.612   1.082   3.523
  981WAT  HW2   3923   6.751   1.045   3.477
  981WAT  MW    3924   6.672   1.076   3.460
  982WAT  OW    3925   6.196   5.725   1.279
  982WAT  HW1   3926   6.104   5.750   1.270
  982WAT  HW2   3927   6.208   5.714   1.373
  982WAT  MW    3928   6.185   5.727   1.290
  983WAT  OW    3929   5.413   5.133   1.430
  983WAT  HW1   3930   5.426   5.215   1.477
  983WAT  HW2   3931   5.471   5.071   1.473
  983WAT  MW    3932   5.422   5.136   1.442
  984WAT  OW    3933   1.534   3.934   4.754
  984WAT  HW1   3934   1.575   3.853   4.725
  984WAT  HW2   3935   1.525   3.986   4.674
  984WAT  MW    3936   1.538   3.930   4.740
  985WAT  OW    3937   2.200   2.688   5.198
  985WAT  HW1   3938   2.224   2.655   5.285
  985WAT  HW2   3939   2.246   2.771   5.190
  985WAT  MW    3940   2.209   2.694   5.209
  986WAT  OW    3941   6.565   6.631   5.533
  986WAT  HW1   3942   6.626   6.694   5.494
  986WAT  HW2   3943   6.567   6.556   5.473
  986WAT  MW    3944   6.574   6.629   5.520
  987WAT  OW    3945   5.061   1.644   1.669
  987WAT  HW1   3946   5.090   1.735   1.668
  987WAT  HW2   3947   5.111   1.604   1.741
  987WAT  MW    3948   5.072   1.651   1.678
  988WAT  OW    3949   6.503   4.363   0.408
  988WAT  HW1   3950   6.509   4.454   0.379
  988WAT  HW2   3951   6.575   4.318   0.364
  988WAT  MW    3952   6.513   4.369   0.399
  989WAT  OW    3953   5.062   2.404   4.444
  989WAT  HW1   3954   5.149   2.403   4.404
  989WAT  HW2   3955   5.072   2.352   4.524
  989WAT  MW    3956   5.075   2.397   4.449
  990WAT  OW    3957   4.474   6.382   5.906
  990WAT  HW1   3958   4.483   6.322   5.832
  990WAT  HW2   3959   4.484   6.469   5.869
  990WAT  MW    3960   4.477   6.386   5.892
  991WAT  OW    3961   2.959   5.276   4.355
  991WAT  HW1   3962   2.865   5.265   4.372
  991WAT  HW2   3963   2.977   5.219   4.281
  991WAT  MW    3964   2.949   5.267   4.348
  992WAT  OW    3965   5.526   6.433   0.632
  992WAT  HW1   3966   5.453   6.459   0.577
  992WAT  HW2   3967   5.584   6.383   0.573
  992WAT  MW    3968   5.524   6.430   0.617
  993WAT  OW    3969   5.981   0.630   3.407
  993WAT  HW1   3970   5.919   0.664   3.473
  993WAT  HW2   3971   6.011   0.546   3.443
  993WAT  MW    3972   5.977   0.623   3.421
  994WAT  OW    3973   3.573   4.955   5.041
  994WAT  HW1   3974   3.610   4.881   5.089
  994WAT  HW2   3975   3.594   4.937   4.950
  994WAT  MW    3976   3.581   4.943   5.036
  995WAT  OW    3977   5.115   4.577   1.171
  995WAT  HW1   3978   5.055   4.647   1.146
  995WAT  HW2   3979   5.080   4.499   1.127
  995WAT  MW    3980   5.102   4.576   1.162
  996WAT  OW    3981   5.671   6.306   1.929
  996WAT  HW1   3982   5.651   6.212   1.926
  996WAT  HW2   3983   5.655   6.337   1.840
  996WAT  MW    3984   5.666   6.298   1.917
  997WAT  OW    3985   3.113   1.871   5.667
  997WAT  HW1   3986   3.194   1.900   5.709
  997WAT  HW2   3987   3.056   1.845   5.739
  997WAT  MW    3988   3.116   1.871   5.682
  998WAT  OW    3989   0.316   5.253   5.291
  998WAT  HW1   3990   0.340   5.187   5.356
  998WAT  HW2   3991   0.223   5.236   5.273
  998WAT  MW    3992   0.307   5.242   5.297
  999WAT  OW    3993   4.919   2.264   1.384
  999WAT  HW1   3994   4.855   2.194   1.372
  999WAT  HW2   3995   4.951   2.252   1.474
  999WAT  MW    3996   4.915   2.253   1.395
 1000WAT  OW    3997   1.286   0.366   6.348
 1000WAT  HW1   3998   1.297   0.348   6.255
 1000WAT  HW2   3999   1.294   0.281   6.390
 1000WAT  MW    4000   1.288   0.353   6.341
 1001WAT  OW    4001   2.150   0.686   0.850
 1001WAT  HW1   4002   2.153   0.612   0.910
 1001WAT  HW2   4003   2.075   0.737   0.879
 1001WAT  MW    4004   2.141   0.683   0.862
 1002WAT  OW    4005   6.582   6.118   3.058
 1002WAT  HW1   4006   6.626   6.057   2.999
 1002WAT  HW2   4007   6.644   6.132   3.129
 1002WAT  MW    4008   6.596   6.111   3.059
 1003WAT  OW    4009   3.845   0.049   5.579
 1003WAT  HW1   4010   3.938   0.030   5.563
 1003WAT  HW2   4011   3.803   0.039   5.494
 1003WAT  MW    4012   3.852   0.045   5.566
 1004WAT  OW    4013   1.814   1.576   3.398
 1004WAT  HW1   4014   1.904   1.550   3.419
 1004WAT  HW2   4015   1.799   1.544   3.309
 1004WAT  MW    4016   1.824   1.568   3.389
 1005WAT  OW    4017   6.313   1.133   5.832
 1005WAT  HW1   4018   6.299   1.111   5.924
 1005WAT  HW2   4019   6.403   1.167   5.829
 1005WAT  MW    4020   6.323   1.134   5.843
 1006WAT  OW    4021   3.870   5.363   3.328
 1006WAT  HW1   4022   3.827   5.442   3.297
 1006WAT  HW2   4023   3.802   5.296   3.330
 1006WAT  MW    4024   3.856   5.364   3.324
 1007WAT  OW    4025   6.421   1.346   2.155
 1007WAT  HW1   4026   6.374   1.423   2.124
 1007WAT  HW2   4027   6.352   1.288   2.189
 1007WAT  MW    4028   6.405   1.348   2.155
 1008WAT  OW    4029   4.402   0.879   4.409
 1008WAT  HW1   4030   4.479   0.915   4.366
 1008WAT  HW2   4031   4.333   0.884   4.343
 1008WAT  MW    4032   4.403   0.884   4.395
 1009WAT  OW    4033   3.353   2.956   4.435
 1009WAT  HW1   4034   3.415   2.995   4.373
 1009WAT  HW2   4035   3.406   2.895   4.486
 1009WAT  MW    4036   3.368   2.953   4.433
 1010WAT  OW    4037   1.848   0.145   4.936
 1010WAT  HW1   4038   1.854   0.191   4.852
 1010WAT  HW2   4039   1.876   0.056   4.916
 1010WAT  MW    4040   1.853   0.140   4.922
 1011WAT  OW    4041   5.576   1.958   2.845
 1011WAT  HW1   4042   5.511   2.014   2.887
 1011WAT  HW2   4043   5.614   1.908   2.917
 1011WAT  MW    4044   5.572   1.959   2.860
 1012WAT  OW    4045   0.175   1.713   6.165
 1012WAT  HW1   4046   0.223   1.731   6.246
 1012WAT  HW2   4047   0.240   1.674   6.106
 1012WAT  MW    4048   0.190   1.710   6.168
 1013WAT  OW    4049   3.797   5.010   0.445
 1013WAT  HW1   4050   3.864   4.952   0.408
 1013WAT  HW2   4051   3.777   4.972   0.530
 1013WAT  MW    4052   3.804   4.998   0.451
 1014WAT  OW    4053   5.950   0.109   2.708
 1014WAT  HW1   4054   5.877   0.047   2.703
 1014WAT  HW2   4055   6.021   0.066   2.662
 1014WAT  MW    4056   5.950   0.095   2.701
 1015WAT  OW    4057   6.506   3.639   3.292
 1015WAT  HW1   4058   6.600   3.656   3.287
 1015WAT  HW2   4059   6.468   3.696   3.226
 1015WAT  MW    4060   6.514   3.649   3.283
 1016WAT  OW    4061   1.741   6.327   2.295
 1016WAT  HW1   4062   1.689   6.276   2.356
 1016WAT  HW2   4063   1.793   6.262   2.247
 1016WAT  MW    4064   1.741   6.312   2.296
 1017WAT  OW    4065   0.554   1.932   5.507
 1017WAT  HW1   4066   0.557   1.902   5.598
 1017WAT  HW2   4067   0.470   1.900   5.474
 1017WAT  MW    4068   0.543   1.924   5.515
 1018WAT  OW    4069   0.454   0.613   0.746
 1018WAT  HW1   4070   0.393   0.564   0.692
 1018WAT  HW2   4071   0.441   0.578   0.834
 1018WAT  MW    4072   0.445   0.602   0.751
 1019WAT  OW    4073   4.956   2.716   5.753
 1019WAT  HW1   4074   4.983   2.669   5.832
 1019WAT  HW2   4075   4.973   2.808   5.772
 1019WAT  MW    4076   4.961   2.722   5.766
 1020WAT  OW    4077   2.866   6.146   4.858
 1020WAT  HW1   4078   2.879   6.218   4.796
 1020WAT  HW2   4079   2.834   6.188   4.937
 1020WAT  MW    4080   2.863   6.161   4.860
 1021WAT  OW    4081   4.153   4.909   6.366
 1021WAT  HW1   4082   4.128   4.920   6.274
 1021WAT  HW2   4083   4.100   4.835   6.396
 1021WAT  MW    4084   4.142   4.901   6.358
 1022WAT  OW    4085   0.953   0.715   3.267
 1022WAT  HW1   4086   0.878   0.742   3.212
 1022WAT  HW2   4087   0.952   0.776   3.340
 1022WAT  MW    4088   0.943   0.727   3.269
 1023WAT  OW    4089   5.328   1.301   6.616
 1023WAT  HW1   4090   5.365   1.237   6.555
 1023WAT  HW2   4091   5.239   1.269   6.634
 1023WAT  MW    4092   5.321   1.288   6.610
 1024WAT  OW    4093   1.499   1.943   6.502
 1024WAT  HW1   4094   1.541   2.022   6.468
 1024WAT  HW2   4095   1.478   1.892   6.423
 1024WAT  MW    4096   1.502   1.947   6.487
 1025WAT  OW    4097   4.576   5.651   0.340
 1025WAT  HW1   4098   4.659   5.674   0.298
 1025WAT  HW2   4099   4.554   5.729   0.391
 1025WAT  MW    4100   4.584   5.664   0.342
 1026WAT  OW    4101   3.291   1.432   1.304
 1026WAT  HW1   4102   3.383   1.410   1.317
 1026WAT  HW2   4103   3.243   1.363   1.350
 1026WAT  MW    4104   3.297   1.420   1.312
 1027WAT  OW    4105   2.637   1.962   1.365
 1027WAT  HW1   4106   2.689   1.937   1.289
 1027WAT  HW2   4107   2.682   2.040   1.400
 1027WAT  MW    4108   2.650   1.969   1.360
 1028WAT  OW    4109   1.914   0.480   6.332
 1028WAT  HW1   4110   1.998   0.438   6.350
 1028WAT  HW2   4111   1.913   0.492   6.237
 1028WAT  MW    4112   1.925   0.476   6.322
 1029WAT  OW    4113   4.633   6.143   4.675
 1029WAT  HW1   4114   4.605   6.206   4.609
 1029WAT  HW2   4115   4.711   6.183   4.714
 1029WAT  MW    4116   4.640   6.157   4.671
 1030WAT  OW    4117   3.988   1.503   2.694
 1030WAT  HW1   4118   3.903   1.506   2.738
 1030WAT  HW2   4119   4.003   1.410   2.678
 1030WAT  MW    4120   3.979   1.492   2.698
 1031WAT  OW    4121   1.256   2.653   5.402
 1031WAT  HW1   4122   1.282   2.732   5.354
 1031WAT  HW2   4123   1.189   2.612   5.346
 1031WAT  MW    4124   1.251   2.658   5.388
 1032WAT  OW    4125   4.558   2.322   3.210
 1032WAT  HW1   4126   4.465   2.301   3.205
 1032WAT  HW2   4127   4.602   2.237   3.211
 1032WAT  MW    4128   4.552   2.308   3.209
 1033WAT  OW    4129   4.406   1.545   4.534
 1033WAT  HW1   4130   4.477   1.482   4.544
 1033WAT  HW2   4131   4.329   1.499   4.568
 1033WAT  MW    4132   4.405   1.531   4.540
 1034WAT  OW    4133   1.110   4.841   3.824
 1034WAT  HW1   4134   1.105   4.804   3.736
 1034WAT  HW2   4135   1.054   4.785   3.877
 1034WAT  MW    4136   1.102   4.829   3.819
 1035WAT  OW    4137   2.721   0.257   1.080
 1035WAT  HW1   4138   2.703   0.258   0.986
 1035WAT  HW2   4139   2.639   0.226   1.119
 1035WAT  MW    4140   2.708   0.253   1.072
 1036WAT  OW    4141   6.009   4.099   1.808
 1036WAT  HW1   4142   6.043   4.130   1.724
 1036WAT  HW2   4143   6.076   4.038   1.839
 1036WAT  MW    4144   6.023   4.095   1.801
 1037WAT  OW    4145   3.138   0.244   3.847
 1037WAT  HW1   4146   3.082   0.319   3.826
 1037WAT  HW2   4147   3.204   0.243   3.778
 1037WAT  MW    4148   3.139   0.253   3.836
 1038WAT  OW    4149   3.285   4.841   5.744
 1038WAT  HW1   4150   3.318   4.760   5.705
 1038WAT  HW2   4151   3.362   4.883   5.781
 1038WAT  MW    4152   3.299   4.836   5.744
 1039WAT  OW    4153   6.127   3.742   3.185
 1039WAT  HW1   4154   6.207   3.762   3.137
 1039WAT  HW2   4155   6.098   3.658   3.149
 1039WAT  MW    4156   6.134   3.733   3.174
 1040WAT  OW    4157   6.020   4.478   2.110
 1040WAT  HW1   4158   5.954   4.544   2.088
 1040WAT  HW2   4159   5.979   4.395   2.089
 1040WAT  MW    4160   6.006   4.476   2.104
 1041WAT  OW    4161   3.816   4.966   0.922
 1041WAT  HW1   4162   3.832   5.033   0.855
 1041WAT  HW2   4163   3.721   4.956   0.923
 1041WAT  MW    4164   3.806   4.974   0.913
 1042WAT  OW    4165   3.046   3.272   0.721
 1042WAT  HW1   4166   2.982   3.225   0.669
 1042WAT  HW2   4167   3.071   3.211   0.790
 1042WAT  MW    4168   3.041   3.258   0.723
 1043WAT  OW    4169   0.494   5.999   2.202
 1043WAT  HW1   4170   0.576   6.030   2.239
 1043WAT  HW2   4171   0.519   5.926   2.145
 1043WAT  MW    4172   0.508   5.993   2.199
 1044WAT  OW    4173   4.735   5.858   6.613
 1044WAT  HW1   4174   4.821   5.894   6.591
 1044WAT  HW2   4175   4.675   5.905   6.555
 1044WAT  MW    4176   4.739   5.869   6.602
 1045WAT  OW    4177   5.172   5.929   1.584
 1045WAT  HW1   4178   5.116   5.854   1.603
 1045WAT  HW2   4179   5.261   5.893   1.581
 1045WAT  MW    4180   5.177   5.915   1.586
 1046WAT  OW    4181   5.227   5.169   5.197
 1046WAT  HW1   4182   5.155   5.114   5.167
 1046WAT  HW2   4183   5.216   5.173   5.292
 1046WAT  MW    4184   5.216   5.162   5.205
 1047WAT  OW    4185   0.415   0.330   5.568
 1047WAT  HW1   4186   0.327   0.367   5.566
 1047WAT  HW2   4187   0.451   0.349   5.482
 1047WAT  MW    4188   0.408   0.337   5.556
 1048WAT  OW    4189   3.800   2.166   3.932
 1048WAT  HW1   4190   3.864   2.225   3.972
 1048WAT  HW2   4191   3.849   2.084   3.918
 1048WAT  MW    4192   3.815   2.163   3.935
 1049WAT  OW    4193   2.537   4.666   3.772
 1049WAT  HW1   4194   2.603   4.677   3.704
 1049WAT  HW2   4195   2.457   4.703   3.734
 1049WAT  MW    4196   2.535   4.673   3.758
 1050WAT  OW    4197   2.118   1.270   3.289
 1050WAT  HW1   4198   2.115   1.364   3.304
 1050WAT  HW2   4199   2.045   1.235   3.339
 1050WAT  MW    4200   2.108   1.278   3.298
 1051WAT  OW    4201   1.019   3.132   6.519
 1051WAT  HW1   4202   0.999   3.226   6.515
 1051WAT  HW2   4203   0.962   3.093   6.453
 1051WAT  MW    4204   1.008   3.139   6.510
 1052WAT  OW    4205   4.712   1.080   1.030
 1052WAT  HW1   4206   4.663   1.161   1.018
 1052WAT  HW2   4207   4.804   1.106   1.023
 1052WAT  MW    4208   4.718   1.094   1.027
 1053WAT  OW    4209   3.589   4.985   3.520
 1053WAT  HW1   4210   3.496   4.989   3.498
 1053WAT  HW2   4211   3.598   5.043   3.596
 1053WAT  MW    4212   3.578   4.993   3.527
 1054WAT  OW    4213   3.098   1.855   0.008
 1054WAT  HW1   4214   3.174   1.811   0.045
 1054WAT  HW2   4215   3.027   1.792   0.014
 1054WAT  MW    4216   3.099   1.841   0.013
 1055WAT  OW    4217   0.126   6.311   5.637
 1055WAT  HW1   4218   0.125   6.306   5.732
 1055WAT  HW2   4219   0.155   6.224   5.609
 1055WAT  MW    4220   0.130   6.299   5.646
 1056WAT  OW    4221   6.462   3.805   6.689
 1056WAT  HW1   4222   6.531   3.776   6.629
 1056WAT  HW2   4223   6.408   3.727   6.703
 1056WAT  MW    4224   6.464   3.791   6.683
 1057WAT  OW    4225   0.793   4.852   0.989
 1057WAT  HW1   4226   0.862   4.886   1.047
 1057WAT  HW2   4227   0.747   4.930   0.958
 1057WAT  MW    4228   0.796   4.867   0.993
 1058WAT  OW    4229   2.281   2.040   4.426
 1058WAT  HW1   4230   2.197   2.026   4.382
 1058WAT  HW2   4231   2.257   2.072   4.513
 1058WAT  MW    4232   2.267   2.043   4.431
 1059WAT  OW    4233   6.644   0.226   0.962
 1059WAT  HW1   4234   6.699   0.165   0.912
 1059WAT  HW2   4235   6.620   0.177   1.040
 1059WAT  MW    4236   6.648   0.212   0.965
 1060WAT  OW    4237   3.920   3.212   5.914
 1060WAT  HW1   4238   4.005   3.250   5.891
 1060WAT  HW2   4239   3.865   3.287   5.937
 1060WAT  MW    4240   3.924   3.227   5.914
 1061WAT  OW    4241   5.478   0.493   2.147
 1061WAT  HW1   4242   5.430   0.540   2.215
 1061WAT  HW2   4243   5.478   0.402   2.176
 1061WAT  MW    4244   5.472   0.487   2.160
 1062WAT  OW    4245   1.555   1.069   5.360
 1062WAT  HW1   4246   1.633   1.119   5.383
 1062WAT  HW2   4247   1.501   1.130   5.309
 1062WAT  MW    4248   1.558   1.084   5.356
 1063WAT  OW    4249   5.483   6.010   3.985
 1063WAT  HW1   4250   5.408   6.005   3.926
 1063WAT  HW2   4251   5.521   6.096   3.969
 1063WAT  MW    4252   5.478   6.020   3.975
 1064WAT  OW    4253   5.961   6.373   1.675
 1064WAT  HW1   4254   6.011   6.438   1.626
 1064WAT  HW2   4255   6.008   6.291   1.661
 1064WAT  MW    4256   5.974   6.371   1.666
 1065WAT  OW    4257   4.248   4.184   1.065
 1065WAT  HW1   4258   4.185   4.227   1.123
 1065WAT  HW2   4259   4.215   4.094   1.056
 1065WAT  MW    4260   4.235   4.178   1.072
 1066WAT  OW    4261   1.644   4.617   5.051
 1066WAT  HW1   4262   1.698   4.587   5.124
 1066WAT  HW2   4263   1.695   4.596   4.973
 1066WAT  MW    4264   1.658   4.610   5.050
 1067WAT  OW    4265   4.075   4.269   4.698
 1067WAT  HW1   4266   4.143   4.315   4.649
 1067WAT  HW2   4267   4.116   4.248   4.781
 1067WAT  MW    4268   4.089   4.272   4.702
 1068WAT  OW    4269   0.885   5.523   0.109
 1068WAT  HW1   4270   0.911   5.512   0.018
 1068WAT  HW2   4271   0.791   5.503   0.110
 1068WAT  MW    4272   0.876   5.519   0.097
 1069WAT  OW    4273   5.328   2.631   2.713
 1069WAT  HW1   4274   5.278   2.551   2.693
 1069WAT  HW2   4275   5.374   2.611   2.794
 1069WAT  MW    4276   5.327   2.617   2.721
 1070WAT  OW    4277   0.152   4.262   2.384
 1070WAT  HW1   4278   0.147   4.188   2.445
 1070WAT  HW2   4279   0.241   4.257   2.348
 1070WAT  MW    4280   0.163   4.251   2.387
 1071WAT  OW    4281   0.236   2.449   1.689
 1071WAT  HW1   4282   0.189   2.532   1.699
 1071WAT  HW2   4283   0.257   2.422   1.779
 1071WAT  MW    4284   0.233   2.456   1.702
 1072WAT  OW    4285   2.579   0.828   2.727
 1072WAT  HW1   4286   2.660   0.879   2.724
 1072WAT  HW2   4287   2.606   0.742   2.760
 1072WAT  MW    4288   2.593   0.823   2.731
 1073WAT  OW    4289   4.728   5.770   5.653
 1073WAT  HW1   4290   4.822   5.787   5.643
 1073WAT  HW2   4291   4.714   5.688   5.607
 1073WAT  MW    4292   4.739   5.761   5.646
 1074WAT  OW    4293   0.477   3.857   5.552
 1074WAT  HW1   4294   0.444   3.767   5.556
 1074WAT  HW2   4295   0.569   3.850   5.576
 1074WAT  MW    4296   0.484   3.844   5.556
 1075WAT  OW    4297   1.897   5.069   3.156
 1075WAT  HW1   4298   1.901   5.131   3.228
 1075WAT  HW2   4299   1.907   5.122   3.077
 1075WAT  MW    4300   1.899   5.084   3.155
 1076WAT  OW    4301   4.773   3.312   1.018
 1076WAT  HW1   4302   4.726   3.236   0.983
 1076WAT  HW2   4303   4.707   3.359   1.070
 1076WAT  MW    4304   4.758   3.308   1.020
 1077WAT  OW    4305   5.580   5.282   2.137
 1077WAT  HW1   4306   5.500   5.326   2.165
 1077WAT  HW2   4307   5.650   5.342   2.162
 1077WAT  MW    4308   5.579   5.296   2.144
 1078WAT  OW    4309   0.917   5.032   1.398
 1078WAT  HW1   4310   1.003   5.063   1.427
 1078WAT  HW2   4311   0.934   4.978   1.321
 1078WAT  MW    4312   0.930   5.029   1.392
 1079WAT  OW    4313   5.084   5.324   3.944
 1079WAT  HW1   4314   5.051   5.258   4.006
 1079WAT  HW2   4315   5.174   5.296   3.926
 1079WAT  MW    4316   5.091   5.311   3.950
 1080WAT  OW    4317   2.164   4.969   1.835
 1080WAT  HW1   4318   2.159   4.902   1.903
 1080WAT  HW2   4319   2.244   4.949   1.788
 1080WAT  MW    4320   2.174   4.957   1.838
 1081WAT  OW    4321   0.791   1.716   5.687
 1081WAT  HW1   4322   0.851   1.789   5.694
 1081WAT  HW2   4323   0.768   1.712   5.594
 1081WAT  MW    4324   0.796   1.725   5.675
 1082WAT  OW    4325   2.435   4.132   1.204
 1082WAT  HW1   4326   2.359   4.073   1.210
 1082WAT  HW2   4327   2.402   4.209   1.158
 1082WAT  MW    4328   2.421   4.134   1.199
 1083WAT  OW    4329   3.302   4.720   4.904
 1083WAT  HW1   4330   3.225   4.719   4.961
 1083WAT  HW2   4331   3.305   4.809   4.869
 1083WAT  MW    4332   3.292   4.732   4.907
 1084WAT  OW    4333   0.672   4.375   0.776
 1084WAT  HW1   4334   0.707   4.286   0.784
 1084WAT  HW2   4335   0.637   4.378   0.687
 1084WAT  MW    4336   0.672   4.364   0.765
 1085WAT  OW    4337   3.029   2.119   3.426
 1085WAT  HW1   4338   2.989   2.041   3.465
 1085WAT  HW2   4339   3.095   2.146   3.489
 1085WAT  MW    4340   3.032   2.112   3.440
 1086WAT  OW    4341   4.144   5.306   3.968
 1086WAT  HW1   4342   4.190   5.390   3.968
 1086WAT  HW2   4343   4.056   5.326   3.999
 1086WAT  MW    4344   4.139   5.320   3.972
 1087WAT  OW    4345   3.620   6.398   1.687
 1087WAT  HW1   4346   3.655   6.358   1.767
 1087WAT  HW2   4347   3.651   6.488   1.690
 1087WAT  MW    4348   3.629   6.404   1.698
 1088WAT  OW    4349   3.128   1.833   3.694
 1088WAT  HW1   4350   3.099   1.914   3.735
 1088WAT  HW2   4351   3.195   1.861   3.631
 1088WAT  MW    4352   3.133   1.847   3.691
 1089WAT  OW    4353   5.694   1.133   2.557
 1089WAT  HW1   4354   5.708   1.196   2.628
 1089WAT  HW2   4355   5.723   1.178   2.478
 1089WAT  MW    4356   5.699   1.147   2.556
 1090WAT  OW    4357   1.586   1.232   5.698
 1090WAT  HW1   4358   1.554   1.223   5.788
 1090WAT  HW2   4359   1.518   1.281   5.652
 1090WAT  MW    4360   1.573   1.237   5.704
 1091WAT  OW    4361   5.433   1.196   4.311
 1091WAT  HW1   4362   5.479   1.148   4.242
 1091WAT  HW2   4363   5.341   1.174   4.296
 1091WAT  MW    4364   5.427   1.187   4.300
 1092WAT  OW    4365   4.085   0.588   5.712
 1092WAT  HW1   4366   4.063   0.634   5.793
 1092WAT  HW2   4367   4.075   0.495   5.734
 1092WAT  MW    4368   4.081   0.582   5.725
 1093WAT  OW    4369   1.392   0.233   4.725
 1093WAT  HW1   4370   1.298   0.218   4.719
 1093WAT  HW2   4371   1.404   0.279   4.808
 1093WAT  MW    4372   1.382   0.237   4.735
 1094WAT  OW    4373   4.804   1.569   6.021
 1094WAT  HW1   4374   4.781   1.505   6.089
 1094WAT  HW2   4375   4.770   1.652   6.054
 1094WAT  MW    4376   4.796   1.571   6.034
 1095WAT  OW    4377   2.981   6.065   2.797
 1095WAT  HW1   4378   3.001   6.038   2.887
 1095WAT  HW2   4379   3.013   5.993   2.743
 1095WAT  MW    4380   2.988   6.052   2.802
 1096WAT  OW    4381   5.398   3.838   1.565
 1096WAT  HW1   4382   5.315   3.833   1.518
 1096WAT  HW2   4383   5.373   3.841   1.657
 1096WAT  MW    4384   5.384   3.838   1.571
 1097WAT  OW    4385   2.989   2.465   1.652
 1097WAT  HW1   4386   2.958   2.466   1.562
 1097WAT  HW2   4387   2.968   2.377   1.684
 1097WAT  MW    4388   2.982   2.454   1.645
 1098WAT  OW    4389   6.239   1.473   0.068
 1098WAT  HW1   4390   6.220   1.440  -0.019
 1098WAT  HW2   4391   6.169   1.537   0.086
 1098WAT  MW    4392   6.227   1.477   0.059
 1099WAT  OW    4393   0.811   2.176   6.691
 1099WAT  HW1   4394   0.797   2.268   6.715
 1099WAT  HW2   4395   0.743   2.159   6.626
 1099WAT  MW    4396   0.800   2.186   6.686
 1100WAT  OW    4397   6.429   1.348   6.087
 1100WAT  HW1   4398   6.370   1.274   6.099
 1100WAT  HW2   4399   6.507   1.310   6.045
 1100WAT  MW    4400   6.432   1.333   6.083
 1101WAT  OW    4401   0.618   1.540   6.430
 1101WAT  HW1   4402   0.667   1.585   6.498
 1101WAT  HW2   4403   0.609   1.604   6.360
 1101WAT  MW    4404   0.623   1.554   6.430
 1102WAT  OW    4405   1.982   2.617   5.598
 1102WAT  HW1   4406   2.065   2.621   5.550
 1102WAT  HW2   4407   1.927   2.559   5.546
 1102WAT  MW    4408   1.986   2.610   5.585
 1103WAT  OW    4409   0.721   3.800   2.476
 1103WAT  HW1   4410   0.803   3.782   2.522
 1103WAT  HW2   4411   0.658   3.819   2.546
 1103WAT  MW    4412   0.723   3.800   2.491
 1104WAT  OW    4413   0.010   4.958   5.245
 1104WAT  HW1   4414   0.022   5.052   5.234
 1104WAT  HW2   4415   0.073   4.918   5.186
 1104WAT  MW    4416   0.020   4.965   5.236
 1105WAT  OW    4417   5.608   4.757   4.746
 1105WAT  HW1   4418   5.513   4.743   4.750
 1105WAT  HW2   4419   5.622   4.799   4.661
 1105WAT  MW    4420   5.597   4.760   4.735
 1106WAT  OW    4421   5.643   1.533   0.212
 1106WAT  HW1   4422   5.593   1.473   0.268
 1106WAT  HW2   4423   5.731   1.496   0.210
 1106WAT  MW    4424   5.648   1.520   0.219
 1107WAT  OW    4425   4.952   5.821   5.928
 1107WAT  HW1   4426   4.860   5.825   5.903
 1107WAT  HW2   4427   4.966   5.902   5.978
 1107WAT  MW    4428   4.942   5.832   5.931
 1108WAT  OW    4429   2.462   2.570   5.061
 1108WAT  HW1   4430   2.433   2.528   4.980
 1108WAT  HW2   4431   2.442   2.663   5.047
 1108WAT  MW    4432   2.455   2.577   5.048
 1109WAT  OW    4433   3.117   0.142   2.459
 1109WAT  HW1   4434   3.209   0.123   2.478
 1109WAT  HW2   4435   3.105   0.232   2.488
 1109WAT  MW    4436   3.127   0.151   2.465
 1110WAT  OW    4437   0.247   1.905   1.411
 1110WAT  HW1   4438   0.280   1.914   1.500
 1110WAT  HW2   4439   0.153   1.922   1.419
 1110WAT  MW    4440   0.239   1.909   1.424
 1111WAT  OW    4441   4.689   3.174   2.024
 1111WAT  HW1   4442   4.648   3.161   2.109
 1111WAT  HW2   4443   4.699   3.269   2.016
 1111WAT  MW    4444   4.685   3.185   2.034
 1112WAT  OW    4445   5.511   2.990   1.547
 1112WAT  HW1   4446   5.534   2.912   1.597
 1112WAT  HW2   4447   5.465   3.046   1.610
 1112WAT  MW    4448   5.508   2.987   1.562
 1113WAT  OW    4449   3.827   1.703   6.441
 1113WAT  HW1   4450   3.831   1.731   6.350
 1113WAT  HW2   4451   3.782   1.774   6.486
 1113WAT  MW    4452   3.821   1.716   6.435
 1114WAT  OW    4453   0.469   2.531   3.034
 1114WAT  HW1   4454   0.385   2.530   2.989
 1114WAT  HW2   4455   0.461   2.601   3.099
 1114WAT  MW    4456   0.457   2.540   3.037
 1115WAT  OW    4457   3.637   2.747   4.954
 1115WAT  HW1   4458   3.626   2.660   4.914
 1115WAT  HW2   4459   3.547   2.779   4.965
 1115WAT  MW    4460   3.623   2.739   4.950
 1116WAT  OW    4461   0.958   4.464   3.419
 1116WAT  HW1   4462   1.013   4.394   3.455
 1116WAT  HW2   4463   0.967   4.536   3.480
 1116WAT  MW    4464   0.966   4.464   3.431
 1117WAT  OW    4465   2.584   3.537   2.154
 1117WAT  HW1   4466   2.653   3.498   2.207
 1117WAT  HW2   4467   2.502   3.502   2.190
 1117WAT  MW    4468   2.582   3.527   2.165
 1118WAT  OW    4469   2.402   4.994   0.795
 1118WAT  HW1   4470   2.440   4.915   0.757
 1118WAT  HW2   4471   2.457   5.065   0.763
 1118WAT  MW    4472   2.414   4.993   0.786
 1119WAT  OW    4473   0.782   0.344   4.430
 1119WAT  HW1   4474   0.708   0.395   4.397
 1119WAT  HW2   4475   0.848   0.351   4.361
 1119WAT  MW    4476   0.781   0.351   4.416
 1120WAT  OW    4477   4.544   6.417   1.322
 1120WAT  HW1   4478   4.557   6.402   1.228
 1120WAT  HW2   4479   4.621   6.467   1.349
 1120WAT  MW    4480   4.556   6.421   1.313
 1121WAT  OW    4481   4.730   0.734   1.536
 1121WAT  HW1   4482   4.749   0.820   1.499
 1121WAT  HW2   4483   4.656   0.748   1.594
 1121WAT  MW    4484   4.723   0.747   1.539
 1122WAT  OW    4485   6.220   4.670   1.464
 1122WAT  HW1   4486   6.288   4.731   1.494
 1122WAT  HW2   4487   6.140   4.723   1.463
 1122WAT  MW    4488   6.218   4.685   1.468
 1123WAT  OW    4489   6.260   1.434   0.810
 1123WAT  HW1   4490   6.237   1.428   0.903
 1123WAT  HW2   4491   6.270   1.528   0.794
 1123WAT  MW    4492   6.258   1.446   0.820
 1124WAT  OW    4493   2.171   3.418   3.037
 1124WAT  HW1   4494   2.179   3.507   3.073
 1124WAT  HW2   4495   2.214   3.422   2.952
 1124WAT  MW    4496   2.178   3.430   3.031
 1125WAT  OW    4497   3.222   3.235   6.441
 1125WAT  HW1   4498   3.178   3.168   6.389
 1125WAT  HW2   4499   3.197   3.318   6.401
 1125WAT  MW    4500   3.213   3.237   6.429
 1126WAT  OW    4501   5.655   2.214   3.328
 1126WAT  HW1   4502   5.571   2.237   3.288
 1126WAT  HW2   4503   5.638   2.129   3.371
 1126WAT  MW    4504   5.641   2.206   3.329
 1127WAT  OW    4505   6.204   5.113   4.986
 1127WAT  HW1   4506   6.141   5.150   5.048
 1127WAT  HW2   4507   6.152   5.089   4.910
 1127WAT  MW    4508   6.189   5.115   4.984
 1128WAT  OW    4509   2.127   1.187   6.049
 1128WAT  HW1   4510   2.128   1.098   6.015
 1128WAT  HW2   4511   2.095   1.178   6.139
 1128WAT  MW    4512   2.123   1.174   6.056
 1129WAT  OW    4513   0.550   4.295   5.245
 1129WAT  HW1   4514   0.546   4.385   5.278
 1129WAT  HW2   4515   0.542   4.241   5.324
 1129WAT  MW    4516   0.549   4.300   5.260
 1130WAT  OW    4517   0.156   0.486   4.209
 1130WAT  HW1   4518   0.223   0.422   4.235
 1130WAT  HW2   4519   0.205   0.552   4.160
 1130WAT  MW    4520   0.171   0.486   4.206
 1131WAT  OW    4521   4.272   0.192   4.522
 1131WAT  HW1   4522   4.324   0.260   4.479
 1131WAT  HW2   4523   4.195   0.182   4.466
 1131WAT  MW    4524   4.268   0.200   4.509
 1132WAT  OW    4525   5.366   3.381   3.510
 1132WAT  HW1   4526   5.388   3.300   3.555
 1132WAT  HW2   4527   5.274   3.372   3.486
 1132WAT  MW    4528   5.357   3.369   3.513
 1133WAT  OW    4529   1.040   5.352   3.431
 1133WAT  HW1   4530   1.101   5.389   3.367
 1133WAT  HW2   4531   1.018   5.426   3.488
 1133WAT  MW    4532   1.045   5.367   3.430
 1134WAT  OW    4533   5.099   2.007   2.893
 1134WAT  HW1   4534   5.136   2.076   2.948
 1134WAT  HW2   4535   5.017   2.044   2.860
 1134WAT  MW    4536   5.093   2.021   2.896
 1135WAT  OW    4537   4.748   4.953   1.313
 1135WAT  HW1   4538   4.681   4.915   1.370
 1135WAT  HW2   4539   4.784   4.879   1.265
 1135WAT  MW    4540   4.744   4.938   1.314
 1136WAT  OW    4541   1.273   0.539   2.641
 1136WAT  HW1   4542   1.192   0.492   2.626
 1136WAT  HW2   4543   1.267   0.616   2.585
 1136WAT  MW    4544   1.262   0.543   2.632
 1137WAT  OW    4545   6.611   3.552   3.014
 1137WAT  HW1   4546   6.636   3.577   3.104
 1137WAT  HW2   4547   6.565   3.469   3.024
 1137WAT  MW    4548   6.608   3.545   3.027
 1138WAT  OW    4549   6.685   5.586   3.283
 1138WAT  HW1   4550   6.748   5.655   3.261
 1138WAT  HW2   4551   6.600   5.624   3.262
 1138WAT  MW    4552   6.682   5.600   3.277
 1139WAT  OW    4553   3.150   6.583   1.817
 1139WAT  HW1   4554   3.219   6.539   1.768
 1139WAT  HW2   4555   3.183   6.586   1.907
 1139WAT  MW    4556   3.163   6.578   1.822
 1140WAT  OW    4557   2.489   1.772   4.758
 1140WAT  HW1   4558   2.452   1.758   4.671
 1140WAT  HW2   4559   2.568   1.718   4.759
 1140WAT  MW    4560   2.495   1.763   4.747
 1141WAT  OW    4561   1.132   3.537   6.061
 1141WAT  HW1   4562   1.148   3.628   6.086
 1141WAT  HW2   4563   1.038   3.526   6.070
 1141WAT  MW    4564   1.122   3.547   6.066
 1142WAT  OW    4565   4.370   1.411   3.208
 1142WAT  HW1   4566   4.276   1.429   3.217
 1142WAT  HW2   4567   4.379   1.318   3.229
 1142WAT  MW    4568   4.359   1.401   3.212
 1143WAT  OW    4569   5.797   2.591   4.263
 1143WAT  HW1   4570   5.888   2.589   4.232
 1143WAT  HW2   4571   5.803   2.572   4.356
 1143WAT  MW    4572   5.810   2.588   4.271
 1144WAT  OW    4573   6.025   0.563   1.246
 1144WAT  HW1   4574   6.044   0.499   1.177
 1144WAT  HW2   4575   6.085   0.635   1.227
 1144WAT  MW    4576   6.035   0.564   1.234
 1145WAT  OW    4577   2.396   2.528   6.315
 1145WAT  HW1   4578   2.377   2.552   6.406
 1145WAT  HW2   4579   2.491   2.539   6.308
 1145WAT  MW    4580   2.406   2.533   6.326
 1146WAT  OW    4581   4.173   3.845   3.151
 1146WAT  HW1   4582   4.225   3.827   3.072
 1146WAT  HW2   4583   4.228   3.905   3.201
 1146WAT  MW    4584   4.187   3.851   3.147
 1147WAT  OW    4585   1.440   6.317   0.222
 1147WAT  HW1   4586   1.415   6.367   0.299
 1147WAT  HW2   4587   1.454   6.383   0.154
 1147WAT  MW    4588   1.439   6.332   0.223
 1148WAT  OW    4589   4.983   4.323   5.936
 1148WAT  HW1   4590   5.063   4.352   5.979
 1148WAT  HW2   4591   4.941   4.404   5.907
 1148WAT  MW    4592   4.988   4.337   5.938
 1149WAT  OW    4593   2.257   2.591   5.471
 1149WAT  HW1   4594   2.333   2.621   5.521
 1149WAT  HW2   4595   2.240   2.503   5.504
 1149WAT  MW    4596   2.265   2.583   5.482
 1150WAT  OW    4597   0.486   3.532   1.555
 1150WAT  HW1   4598   0.511   3.611   1.603
 1150WAT  HW2   4599   0.461   3.469   1.623
 1150WAT  MW    4600   0.486   3.534   1.570
 1151WAT  OW    4601   4.071   3.502   4.821
 1151WAT  HW1   4602   4.029   3.555   4.889
 1151WAT  HW2   4603   4.092   3.419   4.864
 1151WAT  MW    4604   4.068   3.498   4.836
 1152WAT  OW    4605   4.262   0.840   5.971
 1152WAT  HW1   4606   4.326   0.828   5.901
 1152WAT  HW2   4607   4.291   0.919   6.016
 1152WAT  MW    4608   4.274   0.849   5.967
 1153WAT  OW    4609   4.915   5.303   5.415
 1153WAT  HW1   4610   4.925   5.302   5.319
 1153WAT  HW2   4611   4.903   5.211   5.438
 1153WAT  MW    4612   4.915   5.291   5.405
 1154WAT  OW    4613   6.131   6.676   3.323
 1154WAT  HW1   4614   6.170   6.753   3.282
 1154WAT  HW2   4615   6.036   6.691   3.318
 1154WAT  MW    4616   6.123   6.688   3.317
 1155WAT  OW    4617   4.851   4.073   2.335
 1155WAT  HW1   4618   4.891   4.145   2.385
 1155WAT  HW2   4619   4.761   4.101   2.320
 1155WAT  MW    4620   4.845   4.086   2.340
 1156WAT  OW    4621   4.602   0.528   4.724
 1156WAT  HW1   4622   4.578   0.618   4.748
 1156WAT  HW2   4623   4.525   0.495   4.678
 1156WAT  MW    4624   4.588   0.535   4.721
 1157WAT  OW    4625   2.814   5.333   2.100
 1157WAT  HW1   4626   2.728   5.318   2.138
 1157WAT  HW2   4627   2.856   5.247   2.101
 1157WAT  MW    4628   2.808   5.320   2.105
 1158WAT  OW    4629   1.039   4.126   2.660
 1158WAT  HW1   4630   1.090   4.182   2.602
 1158WAT  HW2   4631   0.952   4.165   2.661
 1158WAT  MW    4632   1.034   4.139   2.653
 1159WAT  OW    4633   0.990   6.062   4.486
 1159WAT  HW1   4634   1.045   6.074   4.564
 1159WAT  HW2   4635   0.952   6.148   4.470
 1159WAT  MW    4636   0.992   6.075   4.495
 1160WAT  OW    4637   3.350   5.552   0.461
 1160WAT  HW1   4638   3.390   5.556   0.548
 1160WAT  HW2   4639   3.345   5.459   0.441
 1160WAT  MW    4640   3.355   5.540   0.470
 1161WAT  OW    4641   4.467   5.649   0.092
 1161WAT  HW1   4642   4.498   5.666   0.181
 1161WAT  HW2   4643   4.547   5.644   0.040
 1161WAT  MW    4644   4.482   5.651   0.097
 1162WAT  OW    4645   6.280   1.167   4.049
 1162WAT  HW1   4646   6.231   1.113   3.988
 1162WAT  HW2   4647   6.330   1.227   3.994
 1162WAT  MW    4648   6.280   1.168   4.034
 1163WAT  OW    4649   2.316   2.439   4.438
 1163WAT  HW1   4650   2.329   2.525   4.477
 1163WAT  HW2   4651   2.402   2.397   4.445
 1163WAT  MW    4652   2.329   2.445   4.444
 1164WAT  OW    4653   4.999   3.794   6.403
 1164WAT  HW1   4654   5.082   3.820   6.444
 1164WAT  HW2   4655   4.985   3.704   6.433
 1164WAT  MW    4656   5.008   3.786   6.412
 1165WAT  OW    4657   2.993   6.373   3.512
 1165WAT  HW1   4658   2.903   6.353   3.539
 1165WAT  HW2   4659   2.985   6.450   3.456
 1165WAT  MW    4660   2.980   6.380   3.508
 1166WAT  OW    4661   4.811   4.918   2.321
 1166WAT  HW1   4662   4.866   4.976   2.268
 1166WAT  HW2   4663   4.829   4.830   2.286
 1166WAT  MW    4664   4.821   4.914   2.309
 1167WAT  OW    4665   6.465   2.062   1.289
 1167WAT  HW1   4666   6.433   1.977   1.260
 1167WAT  HW2   4667   6.438   2.123   1.219
 1167WAT  MW    4668   6.458   2.059   1.276
 1168WAT  OW    4669   3.863   3.464   2.283
 1168WAT  HW1   4670   3.888   3.490   2.371
 1168WAT  HW2   4671   3.946   3.457   2.236
 1168WAT  MW    4672   3.877   3.467   2.288
 1169WAT  OW    4673   2.791   3.392   1.815
 1169WAT  HW1   4674   2.709   3.354   1.784
 1169WAT  HW2   4675   2.805   3.468   1.759
 1169WAT  MW    4676   2.782   3.397   1.804
 1170WAT  OW    4677   2.915   5.294   3.235
 1170WAT  HW1   4678   2.854   5.245   3.180
 1170WAT  HW2   4679   2.884   5.280   3.324
 1170WAT  MW    4680   2.903   5.285   3.239
 1171WAT  OW    4681   5.757   5.242   1.921
 1171WAT  HW1   4682   5.688   5.242   1.988
 1171WAT  HW2   4683   5.743   5.162   1.871
 1171WAT  MW    4684   5.746   5.231   1.923
 1172WAT  OW    4685   1.581   0.573   1.590
 1172WAT  HW1   4686   1.638   0.573   1.667
 1172WAT  HW2   4687   1.572   0.480   1.567
 1172WAT  MW    4688   1.587   0.561   1.597
 1173WAT  OW    4689   3.368   5.919   1.125
 1173WAT  HW1   4690   3.352   5.916   1.030
 1173WAT  HW2   4691   3.463   5.928   1.132
 1173WAT  MW    4692   3.379   5.920   1.113
 1174WAT  OW    4693   6.579   6.500   2.440
 1174WAT  HW1   4694   6.559   6.465   2.527
 1174WAT  HW2   4695   6.607   6.590   2.457
 1174WAT  MW    4696   6.580   6.507   2.454
 1175WAT  OW    4697   2.077   4.074   2.688
 1175WAT  HW1   4698   2.012   4.011   2.719
 1175WAT  HW2   4699   2.038   4.113   2.610
 1175WAT  MW    4700   2.063   4.071   2.682
 1176WAT  OW    4701   3.922   4.525   0.439
 1176WAT  HW1   4702   3.979   4.502   0.513
 1176WAT  HW2   4703   3.970   4.495   0.362
 1176WAT  MW    4704   3.936   4.518   0.439
 1177WAT  OW    4705   1.161   2.609   4.890
 1177WAT  HW1   4706   1.075   2.623   4.929
 1177WAT  HW2   4707   1.208   2.691   4.905
 1177WAT  MW    4708   1.156   2.622   4.897
 1178WAT  OW    4709   6.409   2.828   3.560
 1178WAT  HW1   4710   6.418   2.739   3.526
 1178WAT  HW2   4711   6.409   2.818   3.655
 1178WAT  MW    4712   6.410   2.815   3.568
 1179WAT  OW    4713   5.654   3.145   4.400
 1179WAT  HW1   4714   5.579   3.169   4.346
 1179WAT  HW2   4715   5.684   3.062   4.363
 1179WAT  MW    4716   5.648   3.137   4.388
 1180WAT  OW    4717   0.898   4.760   6.280
 1180WAT  HW1   4718   0.884   4.830   6.344
 1180WAT  HW2   4719   0.898   4.804   6.196
 1180WAT  MW    4720   0.896   4.775   6.278
 1181WAT  OW    4721   2.850   2.857   6.084
 1181WAT  HW1   4722   2.922   2.917   6.065
 1181WAT  HW2   4723   2.882   2.802   6.155
 1181WAT  MW    4724   2.863   2.858   6.091
 1182WAT  OW    4725   3.134   4.486   5.225
 1182WAT  HW1   4726   3.161   4.397   5.202
 1182WAT  HW2   4727   3.102   4.524   5.143
 1182WAT  MW    4728   3.133   4.479   5.211
 1183WAT  OW    4729   6.583   3.859   5.329
 1183WAT  HW1   4730   6.576   3.764   5.325
 1183WAT  HW2   4731   6.518   3.885   5.394
 1183WAT  MW    4732   6.574   3.850   5.337
 1184WAT  OW    4733   5.490   5.660   1.384
 1184WAT  HW1   4734   5.487   5.574   1.426
 1184WAT  HW2   4735   5.399   5.687   1.376
 1184WAT  MW    4736   5.478   5.653   1.388
 1185WAT  OW    4737   6.074   3.128   0.353
 1185WAT  HW1   4738   6.007   3.104   0.289
 1185WAT  HW2   4739   6.025   3.156   0.430
 1185WAT  MW    4740   6.059   3.128   0.355
 1186WAT  OW    4741   2.711   2.824   3.603
 1186WAT  HW1   4742   2.768   2.856   3.672
 1186WAT  HW2   4743   2.769   2.773   3.546
 1186WAT  MW    4744   2.726   2.821   3.604
 1187WAT  OW    4745   3.980   3.163   6.682
 1187WAT  HW1   4746   4.043   3.094   6.662
 1187WAT  HW2   4747   4.024   3.218   6.747
 1187WAT  MW    4748   3.994   3.161   6.688
 1188WAT  OW    4749   2.620   5.539   1.675
 1188WAT  HW1   4750   2.661   5.473   1.731
 1188WAT  HW2   4751   2.681   5.613   1.677
 1188WAT  MW    4752   2.634   5.540   1.683
 1189WAT  OW    4753   2.662   4.535   3.209
 1189WAT  HW1   4754   2.748   4.543   3.167
 1189WAT  HW2   4755   2.653   4.617   3.259
 1189WAT  MW    4756   2.672   4.547   3.210
 1190WAT  OW    4757   3.871   0.250   5.233
 1190WAT  HW1   4758   3.790   0.245   5.283
 1190WAT  HW2   4759   3.909   0.335   5.257
 1190WAT  MW    4760   3.865   0.261   5.243
 1191WAT  OW    4761   1.617   2.669   5.456
 1191WAT  HW1   4762   1.669   2.590   5.467
 1191WAT  HW2   4763   1.653   2.731   5.520
 1191WAT  MW    4764   1.628   2.667   5.466
 1192WAT  OW    4765   6.205   1.876   0.172
 1192WAT  HW1   4766   6.271   1.890   0.104
 1192WAT  HW2   4767   6.170   1.789   0.154
 1192WAT  MW    4768   6.209   1.866   0.160
 1193WAT  OW    4769   1.395   1.949   5.805
 1193WAT  HW1   4770   1.398   2.033   5.758
 1193WAT  HW2   4771   1.482   1.912   5.793
 1193WAT  MW    4772   1.407   1.955   5.798
 1194WAT  OW    4773   6.012   5.646   4.578
 1194WAT  HW1   4774   6.064   5.566   4.586
 1194WAT  HW2   4775   6.060   5.711   4.629
 1194WAT  MW    4776   6.026   5.644   4.586
 1195WAT  OW    4777   2.083   4.965   2.653
 1195WAT  HW1   4778   2.088   4.912   2.573
 1195WAT  HW2   4779   2.088   4.901   2.724
 1195WAT  MW    4780   2.084   4.950   2.652
 1196WAT  OW    4781   3.827   5.447   3.845
 1196WAT  HW1   4782   3.895   5.438   3.778
 1196WAT  HW2   4783   3.861   5.399   3.921
 1196WAT  MW    4784   3.841   5.439   3.846
 1197WAT  OW    4785   2.292   1.924   5.896
 1197WAT  HW1   4786   2.315   2.004   5.850
 1197WAT  HW2   4787   2.362   1.862   5.874
 1197WAT  MW    4788   2.304   1.926   5.887
 1198WAT  OW    4789   1.424   2.763   0.743
 1198WAT  HW1   4790   1.417   2.674   0.776
 1198WAT  HW2   4791   1.393   2.759   0.653
 1198WAT  MW    4792   1.419   2.751   0.736
 1199WAT  OW    4793   5.684   2.421   0.094
 1199WAT  HW1   4794   5.774   2.430   0.062
 1199WAT  HW2   4795   5.634   2.481   0.039
 1199WAT  MW    4796   5.690   2.430   0.082
 1200WAT  OW    4797   1.536   4.894   5.849
 1200WAT  HW1   4798   1.481   4.973   5.846
 1200WAT  HW2   4799   1.502   4.845   5.924
 1200WAT  MW    4800   1.524   4.898   5.858
 1201WAT  OW    4801   2.996   2.865   2.469
 1201WAT  HW1   4802   2.977   2.790   2.525
 1201WAT  HW2   4803   2.932   2.932   2.496
 1201WAT  MW    4804   2.985   2.864   2.480
 1202WAT  OW    4805   4.992   3.731   5.704
 1202WAT  HW1   4806   5.084   3.757   5.698
 1202WAT  HW2   4807   4.984   3.660   5.641
 1202WAT  MW    4808   5.003   3.725   5.695
 1203WAT  OW    4809   1.262   2.868   3.375
 1203WAT  HW1   4810   1.308   2.890   3.455
 1203WAT  HW2   4811   1.175   2.841   3.403
 1203WAT  MW    4812   1.257   2.867   3.389
 1204WAT  OW    4813   0.020   3.565   1.330
 1204WAT  HW1   4814   0.013   3.481   1.376
 1204WAT  HW2   4815   0.060   3.543   1.246
 1204WAT  MW    4816   0.024   3.551   1.325
 1205WAT  OW    4817   2.445   0.769   2.492
 1205WAT  HW1   4818   2.474   0.815   2.414
 1205WAT  HW2   4819   2.495   0.809   2.563
 1205WAT  MW    4820   2.456   0.780   2.491
 1206WAT  OW    4821   6.026   3.000   5.037
 1206WAT  HW1   4822   6.022   3.041   4.951
 1206WAT  HW2   4823   5.940   3.018   5.076
 1206WAT  MW    4824   6.014   3.008   5.031
 1207WAT  OW    4825   1.015   2.039   4.838
 1207WAT  HW1   4826   1.094   2.092   4.829
 1207WAT  HW2   4827   1.038   1.953   4.802
 1207WAT  MW    4828   1.028   2.035   4.832
 1208WAT  OW    4829   4.302   2.309   1.654
 1208WAT  HW1   4830   4.248   2.379   1.616
 1208WAT  HW2   4831   4.313   2.246   1.583
 1208WAT  MW    4832   4.296   2.310   1.640
 1209WAT  OW    4833   5.781   6.102   2.586
 1209WAT  HW1   4834   5.725   6.027   2.608
 1209WAT  HW2   4835   5.730   6.153   2.523
 1209WAT  MW    4836   5.767   6.099   2.581
 1210WAT  OW    4837   1.400   0.242   0.259
 1210WAT  HW1   4838   1.318   0.267   0.218
 1210WAT  HW2   4839   1.425   0.319   0.311
 1210WAT  MW    4840   1.392   0.256   0.261
 1211WAT  OW    4841   5.928   4.190   0.261
 1211WAT  HW1   4842   5.837   4.164   0.272
 1211WAT  HW2   4843   5.945   4.252   0.331
 1211WAT  MW    4844   5.918   4.194   0.272
 1212WAT  OW    4845   2.225   1.157   2.559
 1212WAT  HW1   4846   2.313   1.194   2.564
 1212WAT  HW2   4847   2.227   1.084   2.621
 1212WAT  MW    4848   2.237   1.152   2.568
 1213WAT  OW    4849   3.606   1.989   2.526
 1213WAT  HW1   4850   3.666   1.941   2.584
 1213WAT  HW2   4851   3.593   1.931   2.452
 1213WAT  MW    4852   3.612   1.975   2.524
 1214WAT  OW    4853   4.017   3.389   3.362
 1214WAT  HW1   4854   3.992   3.479   3.343
 1214WAT  HW2   4855   4.003   3.342   3.279
 1214WAT  MW    4856   4.012   3.394   3.349
 1215WAT  OW    4857   5.330   1.072   0.132
 1215WAT  HW1   4858   5.300   1.122   0.208
 1215WAT  HW2   4859   5.278   1.105   0.059
 1215WAT  MW    4860   5.319   1.083   0.132
 1216WAT  OW    4861   2.599   2.633   5.444
 1216WAT  HW1   4862   2.661   2.601   5.509
 1216WAT  HW2   4863   2.633   2.719   5.419
 1216WAT  MW    4864   2.612   2.640   5.449
 1217WAT  OW    4865   5.703   5.595   3.573
 1217WAT  HW1   4866   5.715   5.503   3.549
 1217WAT  HW2   4867   5.644   5.593   3.649
 1217WAT  MW    4868   5.697   5.582   3.580
 1218WAT  OW    4869   4.130   4.027   2.011
 1218WAT  HW1   4870   4.081   4.047   2.090
 1218WAT  HW2   4871   4.192   4.100   2.002
 1218WAT  MW    4872   4.132   4.040   2.020
 1219WAT  OW    4873   3.594   1.104   5.607
 1219WAT  HW1   4874   3.513   1.111   5.658
 1219WAT  HW2   4875   3.568   1.057   5.527
 1219WAT  MW    4876   3.580   1.099   5.603
 1220WAT  OW    4877   0.637   0.352   0.896
 1220WAT  HW1   4878   0.644   0.308   0.811
 1220WAT  HW2   4879   0.660   0.443   0.878
 1220WAT  MW    4880   0.641   0.358   0.882
 1221WAT  OW    4881   2.757   5.234   2.676
 1221WAT  HW1   4882   2.828   5.195   2.624
 1221WAT  HW2   4883   2.685   5.171   2.669
 1221WAT  MW    4884   2.757   5.220   2.668
 1222WAT  OW    4885   0.918   3.994   4.277
 1222WAT  HW1   4886   0.936   3.933   4.205
 1222WAT  HW2   4887   0.826   3.978   4.299
 1222WAT  MW    4888   0.908   3.984   4.270
 1223WAT  OW    4889   4.697   3.378   5.957
 1223WAT  HW1   4890   4.722   3.289   5.982
 1223WAT  HW2   4891   4.780   3.424   5.944
 1223WAT  MW    4892   4.711   3.372   5.958
 1224WAT  OW    4893   1.235   5.547   0.924
 1224WAT  HW1   4894   1.287   5.611   0.973
 1224WAT  HW2   4895   1.147   5.555   0.960
 1224WAT  MW    4896   1.230   5.557   0.935
 1225WAT  OW    4897   5.776   2.309   5.347
 1225WAT  HW1   4898   5.817   2.227   5.320
 1225WAT  HW2   4899   5.814   2.328   5.432
 1225WAT  MW    4900   5.786   2.300   5.354
 1226WAT  OW    4901   3.628   0.652   6.069
 1226WAT  HW1   4902   3.623   0.578   6.008
 1226WAT  HW2   4903   3.699   0.630   6.129
 1226WAT  MW    4904   3.637   0.639   6.069
 1227WAT  OW    4905   2.113   4.549   3.803
 1227WAT  HW1   4906   2.162   4.488   3.749
 1227WAT  HW2   4907   2.156   4.633   3.790
 1227WAT  MW    4908   2.125   4.552   3.794
 1228WAT  OW    4909   5.595   4.721   1.165
 1228WAT  HW1   4910   5.561   4.802   1.203
 1228WAT  HW2   4911   5.675   4.703   1.213
 1228WAT  MW    4912   5.601   4.729   1.176
 1229WAT  OW    4913   4.401   4.814   3.256
 1229WAT  HW1   4914   4.411   4.721   3.236
 1229WAT  HW2   4915   4.481   4.837   3.303
 1229WAT  MW    4916   4.413   4.805   3.259
 1230WAT  OW    4917   6.193   1.318   0.287
 1230WAT  HW1   4918   6.208   1.379   0.215
 1230WAT  HW2   4919   6.175   1.234   0.244
 1230WAT  MW    4920   6.192   1.315   0.272
 1231WAT  OW    4921   5.296   2.157   0.756
 1231WAT  HW1   4922   5.213   2.180   0.714
 1231WAT  HW2   4923   5.288   2.063   0.774
 1231WAT  MW    4924   5.284   2.148   0.753
 1232WAT  OW    4925   1.341   6.015   1.524
 1232WAT  HW1   4926   1.373   6.072   1.455
 1232WAT  HW2   4927   1.253   6.046   1.542
 1232WAT  MW    4928   1.334   6.027   1.517
 1233WAT  OW    4929   5.857   0.027   3.350
 1233WAT  HW1   4930   5.803   0.064   3.280
 1233WAT  HW2   4931   5.802  -0.039   3.390
 1233WAT  MW    4932   5.843   0.023   3.346
 1234WAT  OW    4933   3.844   0.858   5.414
 1234WAT  HW1   4934   3.920   0.830   5.466
 1234WAT  HW2   4935   3.871   0.940   5.374
 1234WAT  MW    4936   3.858   0.865   5.415
 1235WAT  OW    4937   6.614   2.922   5.619
 1235WAT  HW1   4938   6.668   2.965   5.553
 1235WAT  HW2   4939   6.664   2.932   5.700
 1235WAT  MW    4940   6.628   2.929   5.621
 1236WAT  OW    4941   1.385   2.430   2.812
 1236WAT  HW1   4942   1.466   2.432   2.762
 1236WAT  HW2   4943   1.352   2.520   2.809
 1236WAT  MW    4944   1.391   2.442   2.805
 1237WAT  OW    4945   4.987   6.506   0.179
 1237WAT  HW1   4946   4.974   6.426   0.129
 1237WAT  HW2   4947   4.981   6.576   0.114
 1237WAT  MW    4948   4.984   6.505   0.164
 1238WAT  OW    4949   2.975   2.911   2.012
 1238WAT  HW1   4950   2.996   2.819   2.027
 1238WAT  HW2   4951   3.058   2.957   2.019
 1238WAT  MW    4952   2.989   2.904   2.015
 1239WAT  OW    4953   3.990   1.393   3.506
 1239WAT  HW1   4954   4.066   1.338   3.487
 1239WAT  HW2   4955   3.930   1.335   3.554
 1239WAT  MW    4956   3.992   1.378   3.510
 1240WAT  OW    4957   4.125   6.027   6.387
 1240WAT  HW1   4958   4.145   5.964   6.319
 1240WAT  HW2   4959   4.042   6.067   6.359
 1240WAT  MW    4960   4.116   6.024   6.374
 1241WAT  OW    4961   0.747   4.069   3.900
 1241WAT  HW1   4962   0.760   4.155   3.939
 1241WAT  HW2   4963   0.757   4.082   3.806
 1241WAT  MW    4964   0.750   4.082   3.893
 1242WAT  OW    4965   6.068   3.263   5.107
 1242WAT  HW1   4966   6.078   3.177   5.066
 1242WAT  HW2   4967   6.112   3.255   5.191
 1242WAT  MW    4968   6.075   3.251   5.113
 1243WAT  OW    4969   2.098   1.018   6.522
 1243WAT  HW1   4970   2.182   1.036   6.565
 1243WAT  HW2   4971   2.032   1.033   6.589
 1243WAT  MW    4972   2.101   1.022   6.537
 1244WAT  OW    4973   2.801   3.077   5.559
 1244WAT  HW1   4974   2.880   3.039   5.597
 1244WAT  HW2   4975   2.831   3.154   5.510
 1244WAT  MW    4976   2.815   3.082   5.557
 1245WAT  OW    4977   3.470   1.871   2.864
 1245WAT  HW1   4978   3.420   1.943   2.902
 1245WAT  HW2   4979   3.438   1.863   2.774
 1245WAT  MW    4980   3.459   1.879   2.857
 1246WAT  OW    4981   0.624   1.473   1.253
 1246WAT  HW1   4982   0.704   1.463   1.305
 1246WAT  HW2   4983   0.645   1.543   1.191
 1246WAT  MW    4984   0.638   1.481   1.252
 1247WAT  OW    4985   0.612   3.543   2.794
 1247WAT  HW1   4986   0.629   3.452   2.819
 1247WAT  HW2   4987   0.591   3.538   2.700
 1247WAT  MW    4988   0.612   3.530   2.785
 1248WAT  OW    4989   3.680   4.079   2.216
 1248WAT  HW1   4990   3.639   4.075   2.129
 1248WAT  HW2   4991   3.774   4.075   2.198
 1248WAT  MW    4992   3.687   4.078   2.202
 1249WAT  OW    4993   2.210   4.775   5.048
 1249WAT  HW1   4994   2.250   4.764   5.135
 1249WAT  HW2   4995   2.148   4.703   5.042
 1249WAT  MW    4996   2.207   4.764   5.059
 1250WAT  OW    4997   2.341   6.082   3.100
 1250WAT  HW1   4998   2.250   6.112   3.088
 1250WAT  HW2   4999   2.371   6.062   3.012
 1250WAT  MW    5000   2.333   6.084   3.087
 1251WAT  OW    5001   6.374   0.566   4.518
 1251WAT  HW1   5002   6.404   0.653   4.545
 1251WAT  HW2   5003   6.423   0.547   4.438
 1251WAT  MW    5004   6.385   0.575   4.511
 1252WAT  OW    5005   5.844   4.032   1.493
 1252WAT  HW1   5006   5.775   4.061   1.434
 1252WAT  HW2   5007   5.815   4.058   1.580
 1252WAT  MW    5008   5.831   4.039   1.496
 1253WAT  OW    5009   1.612   5.903   2.963
 1253WAT  HW1   5010   1.539   5.843   2.978
 1253WAT  HW2   5011   1.578   5.989   2.987
 1253WAT  MW    5012   1.598   5.907   2.968
 1254WAT  OW    5013   4.159   3.501   4.048
 1254WAT  HW1   5014   4.204   3.426   4.011
 1254WAT  HW2   5015   4.149   3.480   4.141
 1254WAT  MW    5016   4.164   3.489   4.056
 1255WAT  OW    5017   3.650   1.138   2.987
 1255WAT  HW1   5018   3.630   1.055   2.945
 1255WAT  HW2   5019   3.637   1.204   2.919
 1255WAT  MW    5020   3.646   1.136   2.973
 1256WAT  OW    5021   6.663   5.815   4.713
 1256WAT  HW1   5022   6.616   5.755   4.771
 1256WAT  HW2   5023   6.702   5.880   4.771
 1256WAT  MW    5024   6.662   5.816   4.728
 1257WAT  OW    5025   4.300   4.297   2.347
 1257WAT  HW1   5026   4.341   4.382   2.333
 1257WAT  HW2   5027   4.373   4.235   2.350
 1257WAT  MW    5028   4.315   4.300   2.346
 1258WAT  OW    5029   3.696   6.524   1.180
 1258WAT  HW1   5030   3.607   6.547   1.206
 1258WAT  HW2   5031   3.751   6.589   1.225
 1258WAT  MW    5032   3.691   6.536   1.189
 1259WAT  OW    5033   1.795   6.553   3.642
 1259WAT  HW1   5034   1.722   6.603   3.607
 1259WAT  HW2   5035   1.847   6.529   3.566
 1259WAT  MW    5036   1.792   6.556   3.627
 1260WAT  OW    5037   5.563   5.388   0.943
 1260WAT  HW1   5038   5.512   5.378   0.863
 1260WAT  HW2   5039   5.645   5.428   0.915
 1260WAT  MW    5040   5.567   5.392   0.929
 1261WAT  OW    5041   1.123   0.794   3.976
 1261WAT  HW1   5042   1.204   0.835   4.007
 1261WAT  HW2   5043   1.132   0.793   3.881
 1261WAT  MW    5044   1.135   0.800   3.967
 1262WAT  OW    5045   4.614   2.847   1.372
 1262WAT  HW1   5046   4.638   2.808   1.288
 1262WAT  HW2   5047   4.594   2.939   1.352
 1262WAT  MW    5048   4.614   2.854   1.358
 1263WAT  OW    5049   1.260   6.630   3.646
 1263WAT  HW1   5050   1.343   6.641   3.601
 1263WAT  HW2   5051   1.283   6.591   3.730
 1263WAT  MW    5052   1.274   6.626   3.651
 1264WAT  OW    5053   0.744   1.673   2.460
 1264WAT  HW1   5054   0.732   1.593   2.409
 1264WAT  HW2   5055   0.685   1.736   2.419
 1264WAT  MW    5056   0.735   1.670   2.448
 1265WAT  OW    5057   1.317   5.111   2.976
 1265WAT  HW1   5058   1.264   5.086   2.900
 1265WAT  HW2   5059   1.401   5.139   2.939
 1265WAT  MW    5060   1.321   5.111   2.961
 1266WAT  OW    5061   4.495   2.055   4.867
 1266WAT  HW1   5062   4.460   1.984   4.813
 1266WAT  HW2   5063   4.491   2.022   4.956
 1266WAT  MW    5064   4.490   2.041   4.872
 1267WAT  OW    5065   1.583   5.071   1.421
 1267WAT  HW1   5066   1.602   5.003   1.356
 1267WAT  HW2   5067   1.555   5.023   1.498
 1267WAT  MW    5068   1.582   5.056   1.422
 1268WAT  OW    5069   3.124   4.966   0.579
 1268WAT  HW1   5070   3.058   5.036   0.577
 1268WAT  HW2   5071   3.208   5.011   0.581
 1268WAT  MW    5072   3.126   4.981   0.579
 1269WAT  OW    5073   4.998   1.024   2.998
 1269WAT  HW1   5074   4.923   0.966   2.986
 1269WAT  HW2   5075   5.067   0.968   3.033
 1269WAT  MW    5076   4.997   1.009   3.001
 1270WAT  OW    5077   5.212   3.180   6.168
 1270WAT  HW1   5078   5.290   3.206   6.216
 1270WAT  HW2   5079   5.213   3.236   6.090
 1270WAT  MW    5080   5.222   3.191   6.164
 1271WAT  OW    5081   5.285   4.219   5.628
 1271WAT  HW1   5082   5.273   4.146   5.689
 1271WAT  HW2   5083   5.196   4.248   5.608
 1271WAT  MW    5084   5.272   4.213   5.633
 1272WAT  OW    5085   2.807   3.705   1.105
 1272WAT  HW1   5086   2.900   3.688   1.093
 1272WAT  HW2   5087   2.764   3.647   1.042
 1272WAT  MW    5088   2.813   3.695   1.095
 1273WAT  OW    5089   2.696   3.610   0.868
 1273WAT  HW1   5090   2.766   3.582   0.809
 1273WAT  HW2   5091   2.635   3.657   0.812
 1273WAT  MW    5092   2.698   3.612   0.853
 1274WAT  OW    5093   5.493   1.199   5.672
 1274WAT  HW1   5094   5.449   1.119   5.643
 1274WAT  HW2   5095   5.581   1.171   5.696
 1274WAT  MW    5096   5.499   1.185   5.672
 1275WAT  OW    5097   6.405   1.186   2.495
 1275WAT  HW1   5098   6.492   1.214   2.522
 1275WAT  HW2   5099   6.351   1.197   2.573
 1275WAT  MW    5100   6.409   1.191   2.509
 1276WAT  OW    5101   6.177   4.886   1.961
 1276WAT  HW1   5102   6.129   4.851   2.036
 1276WAT  HW2   5103   6.243   4.819   1.942
 1276WAT  MW    5104   6.179   4.872   1.968
 1277WAT  OW    5105   6.362   1.822   2.771
 1277WAT  HW1   5106   6.282   1.793   2.816
 1277WAT  HW2   5107   6.332   1.887   2.708
 1277WAT  MW    5108   6.347   1.826   2.769
 1278WAT  OW    5109   2.256   5.174   5.465
 1278WAT  HW1   5110   2.234   5.083   5.444
 1278WAT  HW2   5111   2.178   5.207   5.512
 1278WAT  MW    5112   2.242   5.166   5.469
 1279WAT  OW    5113   4.537   2.429   0.037
 1279WAT  HW1   5114   4.610   2.433   0.098
 1279WAT  HW2   5115   4.462   2.405   0.091
 1279WAT  MW    5116   4.537   2.426   0.052
 1280WAT  OW    5117   4.669   1.739   4.493
 1280WAT  HW1   5118   4.600   1.730   4.558
 1280WAT  HW2   5119   4.660   1.829   4.460
 1280WAT  MW    5120   4.659   1.750   4.497
 1281WAT  OW    5121   6.299   3.847   6.252
 1281WAT  HW1   5122   6.386   3.887   6.247
 1281WAT  HW2   5123   6.315   3.759   6.286
 1281WAT  MW    5124   6.313   3.841   6.256
 1282WAT  OW    5125   3.493   3.063   6.098
 1282WAT  HW1   5126   3.560   3.110   6.148
 1282WAT  HW2   5127   3.542   2.995   6.050
 1282WAT  MW    5128   3.508   3.060   6.098
 1283WAT  OW    5129   2.457   4.661   0.194
 1283WAT  HW1   5130   2.449   4.717   0.117
 1283WAT  HW2   5131   2.433   4.718   0.267
 1283WAT  MW    5132   2.453   4.676   0.194
 1284WAT  OW    5133   4.489   3.445   2.102
 1284WAT  HW1   5134   4.581   3.464   2.116
 1284WAT  HW2   5135   4.443   3.522   2.134
 1284WAT  MW    5136   4.495   3.457   2.108
 1285WAT  OW    5137   5.854   1.426   4.940
 1285WAT  HW1   5138   5.870   1.519   4.957
 1285WAT  HW2   5139   5.941   1.387   4.942
 1285WAT  MW    5140   5.868   1.433   4.943
 1286WAT  OW    5141   0.242   0.037   2.812
 1286WAT  HW1   5142   0.249   0.012   2.904
 1286WAT  HW2   5143   0.187   0.115   2.812
 1286WAT  MW    5144   0.236   0.044   2.824
 1287WAT  OW    5145   1.443   0.034   5.790
 1287WAT  HW1   5146   1.486  -0.047   5.763
 1287WAT  HW2   5147   1.428   0.023   5.884
 1287WAT  MW    5148   1.447   0.022   5.798
 1288WAT  OW    5149   6.506   0.513   1.065
 1288WAT  HW1   5150   6.598   0.511   1.092
 1288WAT  HW2   5151   6.473   0.426   1.085
 1288WAT  MW    5152   6.514   0.502   1.071
 1289WAT  OW    5153   2.810   2.312   1.190
 1289WAT  HW1   5154   2.792   2.406   1.192
 1289WAT  HW2   5155   2.886   2.301   1.246
 1289WAT  MW    5156   2.817   2.323   1.198
 1290WAT  OW    5157   4.317   3.921   3.656
 1290WAT  HW1   5158   4.379   3.861   3.616
 1290WAT  HW2   5159   4.296   3.883   3.741
 1290WAT  MW    5160   4.322   3.908   3.662
 1291WAT  OW    5161   3.434   3.792   5.035
 1291WAT  HW1   5162   3.381   3.713   5.039
 1291WAT  HW2   5163   3.377   3.861   5.070
 1291WAT  MW    5164   3.419   3.791   5.040
 1292WAT  OW    5165   0.422   4.697   5.584
 1292WAT  HW1   5166   0.406   4.757   5.511
 1292WAT  HW2   5167   0.335   4.669   5.611
 1292WAT  MW    5168   0.409   4.702   5.578
 1293WAT  OW    5169   1.265   0.748   2.462
 1293WAT  HW1   5170   1.325   0.819   2.482
 1293WAT  HW2   5171   1.308   0.697   2.393
 1293WAT  MW    5172   1.278   0.751   2.455
 1294WAT  OW    5173   0.123   4.044   4.687
 1294WAT  HW1   5174   0.172   3.982   4.741
 1294WAT  HW2   5175   0.188   4.084   4.630
 1294WAT  MW    5176   0.138   4.041   4.687
 1295WAT  OW    5177   4.561   3.993   4.775
 1295WAT  HW1   5178   4.628   3.925   4.768
 1295WAT  HW2   5179   4.488   3.951   4.820
 1295WAT  MW    5180   4.560   3.978   4.780
 1296WAT  OW    5181   0.076   3.168   1.902
 1296WAT  HW1   5182   0.099   3.245   1.850
 1296WAT  HW2   5183   0.103   3.094   1.847
 1296WAT  MW    5184   0.082   3.168   1.888
 1297WAT  OW    5185   6.289   4.218   0.351
 1297WAT  HW1   5186   6.312   4.184   0.265
 1297WAT  HW2   5187   6.362   4.276   0.374
 1297WAT  MW    5188   6.302   4.221   0.343
 1298WAT  OW    5189   2.121   1.657   2.655
 1298WAT  HW1   5190   2.048   1.694   2.704
 1298WAT  HW2   5191   2.084   1.581   2.611
 1298WAT  MW    5192   2.107   1.652   2.655
 1299WAT  OW    5193   5.199   3.293   5.921
 1299WAT  HW1   5194   5.274   3.302   5.863
 1299WAT  HW2   5195   5.140   3.234   5.875
 1299WAT  MW    5196   5.201   3.287   5.908
 1300WAT  OW    5197   3.663   1.064   0.530
 1300WAT  HW1   5198   3.587   1.055   0.472
 1300WAT  HW2   5199   3.626   1.094   0.613
 1300WAT  MW    5200   3.648   1.067   0.533
 1301WAT  OW    5201   0.549   5.780   2.537
 1301WAT  HW1   5202   0.633   5.816   2.566
 1301WAT  HW2   5203   0.571   5.725   2.462
 1301WAT  MW    5204   0.563   5.777   2.531
 1302WAT  OW    5205   1.474   6.575   5.313
 1302WAT  HW1   5206   1.482   6.664   5.347
 1302WAT  HW2   5207   1.564   6.542   5.310
 1302WAT  MW    5208   1.487   6.582   5.317
 1303WAT  OW    5209   3.934   1.832   6.217
 1303WAT  HW1   5210   4.013   1.811   6.166
 1303WAT  HW2   5211   3.965   1.889   6.287
 1303WAT  MW    5212   3.949   1.837   6.219
 1304WAT  OW    5213   2.207   4.100   2.965
 1304WAT  HW1   5214   2.133   4.125   2.910
 1304WAT  HW2   5215   2.222   4.007   2.944
 1304WAT  MW    5216   2.199   4.091   2.955
 1305WAT  OW    5217   2.451   0.148   1.117
 1305WAT  HW1   5218   2.373   0.100   1.147
 1305WAT  HW2   5219   2.432   0.168   1.025
 1305WAT  MW    5220   2.438   0.144   1.109
 1306WAT  OW    5221   1.690   2.096   5.984
 1306WAT  HW1   5222   1.698   2.015   6.035
 1306WAT  HW2   5223   1.663   2.162   6.048
 1306WAT  MW    5224   1.687   2.094   5.999
 1307WAT  OW    5225   1.567   5.631   5.547
 1307WAT  HW1   5226   1.659   5.655   5.539
 1307WAT  HW2   5227   1.523   5.710   5.578
 1307WAT  MW    5228   1.573   5.644   5.550
 1308WAT  OW    5229   4.596   3.147   3.187
 1308WAT  HW1   5230   4.621   3.188   3.269
 1308WAT  HW2   5231   4.504   3.170   3.175
 1308WAT  MW    5232   4.587   3.155   3.196
 1309WAT  OW    5233   2.614   2.774   2.360
 1309WAT  HW1   5234   2.683   2.808   2.303
 1309WAT  HW2   5235   2.533   2.788   2.311
 1309WAT  MW    5236   2.612   2.780   2.346
 1310WAT  OW    5237   2.338   6.324   2.056
 1310WAT  HW1   5238   2.424   6.283   2.057
 1310WAT  HW2   5239   2.288   6.273   1.992
 1310WAT  MW    5240   2.343   6.312   2.048
 1311WAT  OW    5241   5.074   5.502   1.320
 1311WAT  HW1   5242   5.082   5.440   1.393
 1311WAT  HW2   5243   4.981   5.504   1.300
 1311WAT  MW    5244   5.063   5.494   1.327
 1312WAT  OW    5245   5.667   0.040   5.315
 1312WAT  HW1   5246   5.751   0.050   5.360
 1312WAT  HW2   5247   5.632  -0.043   5.346
 1312WAT  MW    5248   5.673   0.030   5.325
 1313WAT  OW    5249   3.167   0.544   6.686
 1313WAT  HW1   5250   3.108   0.469   6.702
 1313WAT  HW2   5251   3.211   0.522   6.604
 1313WAT  MW    5252   3.165   0.531   6.677
 1314WAT  OW    5253   6.510   2.495   5.714
 1314WAT  HW1   5254   6.527   2.504   5.621
 1314WAT  HW2   5255   6.595   2.471   5.752
 1314WAT  MW    5256   6.523   2.493   5.707
 1315WAT  OW    5257   5.920   3.524   5.428
 1315WAT  HW1   5258   5.985   3.531   5.497
 1315WAT  HW2   5259   5.910   3.430   5.414
 1315WAT  MW    5260   5.927   3.512   5.435
 1316WAT  OW    5261   5.400   6.440   6.197
 1316WAT  HW1   5262   5.492   6.446   6.220
 1316WAT  HW2   5263   5.398   6.384   6.119
 1316WAT  MW    5264   5.412   6.434   6.189
 1317WAT  OW    5265   2.385   2.101   1.048
 1317WAT  HW1   5266   2.304   2.075   1.092
 1317WAT  HW2   5267   2.449   2.035   1.074
 1317WAT  MW    5268   2.383   2.089   1.057
 1318WAT  OW    5269   3.937   0.908   4.660
 1318WAT  HW1   5270   3.907   0.830   4.707
 1318WAT  HW2   5271   3.983   0.874   4.584
 1318WAT  MW    5272   3.939   0.893   4.656
 1319WAT  OW    5273   2.990   2.761   4.819
 1319WAT  HW1   5274   3.026   2.734   4.904
 1319WAT  HW2   5275   2.928   2.691   4.796
 1319WAT  MW    5276   2.987   2.748   4.827
 1320WAT  OW    5277   6.287   5.624   3.454
 1320WAT  HW1   5278   6.296   5.656   3.543
 1320WAT  HW2   5279   6.303   5.530   3.460
 1320WAT  MW    5280   6.290   5.616   3.466
 1321WAT  OW    5281   0.053   2.874   4.604
 1321WAT  HW1   5282  -0.011   2.807   4.583
 1321WAT  HW2   5283   0.028   2.950   4.552
 1321WAT  MW    5284   0.041   2.875   4.595
 1322WAT  OW    5285   2.848   1.568   6.278
 1322WAT  HW1   5286   2.900   1.491   6.258
 1322WAT  HW2   5287   2.911   1.633   6.309
 1322WAT  MW    5288   2.863   1.566   6.279
 1323WAT  OW    5289   0.336   6.627   4.249
 1323WAT  HW1   5290   0.399   6.630   4.322
 1323WAT  HW2   5291   0.250   6.624   4.291
 1323WAT  MW    5292   0.333   6.627   4.264
 1324WAT  OW    5293   4.003   6.018   5.927
 1324WAT  HW1   5294   4.025   5.966   6.004
 1324WAT  HW2   5295   4.088   6.046   5.892
 1324WAT  MW    5296   4.017   6.015   5.932
 1325WAT  OW    5297   6.084   4.883   0.613
 1325WAT  HW1   5298   6.072   4.797   0.654
 1325WAT  HW2   5299   6.177   4.902   0.625
 1325WAT  MW    5300   6.095   4.874   0.620
 1326WAT  OW    5301   0.728   4.605   5.972
 1326WAT  HW1   5302   0.739   4.598   6.067
 1326WAT  HW2   5303   0.816   4.614   5.937
 1326WAT  MW    5304   0.741   4.605   5.980
 1327WAT  OW    5305   0.140   2.345   3.149
 1327WAT  HW1   5306   0.195   2.371   3.223
 1327WAT  HW2   5307   0.173   2.396   3.075
 1327WAT  MW    5308   0.151   2.355   3.149
 1328WAT  OW    5309   6.438   5.908   4.046
 1328WAT  HW1   5310   6.516   5.880   3.999
 1328WAT  HW2   5311   6.445   5.868   4.132
 1328WAT  MW    5312   6.449   5.899   4.051
 1329WAT  OW    5313   2.417   3.298   6.475
 1329WAT  HW1   5314   2.411   3.251   6.558
 1329WAT  HW2   5315   2.367   3.245   6.413
 1329WAT  MW    5316   2.410   3.285   6.478
 1330WAT  OW    5317   3.801   5.397   5.621
 1330WAT  HW1   5318   3.846   5.342   5.557
 1330WAT  HW2   5319   3.718   5.352   5.637
 1330WAT  MW    5320   3.796   5.384   5.615
 1331WAT  OW    5321   2.447   4.561   3.036
 1331WAT  HW1   5322   2.528   4.603   3.064
 1331WAT  HW2   5323   2.451   4.473   3.072
 1331WAT  MW    5324   2.458   4.555   3.045
 1332WAT  OW    5325   6.419   3.117   5.247
 1332WAT  HW1   5326   6.446   3.027   5.263
 1332WAT  HW2   5327   6.454   3.167   5.321
 1332WAT  MW    5328   6.427   3.112   5.259
 1333WAT  OW    5329   0.751   1.706   5.404
 1333WAT  HW1   5330   0.806   1.759   5.346
 1333WAT  HW2   5331   0.664   1.711   5.366
 1333WAT  MW    5332   0.747   1.714   5.391
 1334WAT  OW    5333   4.619   4.199   5.625
 1334WAT  HW1   5334   4.604   4.154   5.709
 1334WAT  HW2   5335   4.669   4.277   5.648
 1334WAT  MW    5336   4.624   4.203   5.639
 1335WAT  OW    5337   5.879   0.433   4.908
 1335WAT  HW1   5338   5.962   0.385   4.904
 1335WAT  HW2   5339   5.829   0.400   4.833
 1335WAT  MW    5340   5.884   0.422   4.897
 1336WAT  OW    5341   1.333   6.573   4.838
 1336WAT  HW1   5342   1.378   6.586   4.922
 1336WAT  HW2   5343   1.286   6.490   4.850
 1336WAT  MW    5344   1.333   6.563   4.851
 1337WAT  OW    5345   0.850   3.020   6.341
 1337WAT  HW1   5346   0.771   2.968   6.358
 1337WAT  HW2   5347   0.823   3.111   6.353
 1337WAT  MW    5348   0.836   3.025   6.344
 1338WAT  OW    5349   4.609   3.163   4.210
 1338WAT  HW1   5350   4.548   3.204   4.149
 1338WAT  HW2   5351   4.631   3.233   4.272
 1338WAT  MW    5352   4.604   3.178   4.210
 1339WAT  OW    5353   4.990   3.559   3.785
 1339WAT  HW1   5354   4.896   3.576   3.778
 1339WAT  HW2   5355   5.029   3.612   3.716
 1339WAT  MW    5356   4.982   3.568   3.775
 1340WAT  OW    5357   1.077   1.361   5.864
 1340WAT  HW1   5358   1.106   1.321   5.782
 1340WAT  HW2   5359   0.991   1.398   5.843
 1340WAT  MW    5360   1.070   1.361   5.850
 1341WAT  OW    5361   1.926   5.221   4.600
 1341WAT  HW1   5362   1.899   5.310   4.577
 1341WAT  HW2   5363   1.975   5.191   4.523
 1341WAT  MW    5364   1.928   5.229   4.587
 1342WAT  OW    5365   5.819   2.639   2.010
 1342WAT  HW1   5366   5.896   2.695   2.004
 1342WAT  HW2   5367   5.754   2.693   2.056
 1342WAT  MW    5368   5.821   2.654   2.016
 1343WAT  OW    5369   0.707   4.008   2.730
 1343WAT  HW1   5370   0.697   3.925   2.777
 1343WAT  HW2   5371   0.643   4.066   2.772
 1343WAT  MW    5372   0.697   4.005   2.742
 1344WAT  OW    5373   3.848   4.391   1.625
 1344WAT  HW1   5374   3.914   4.342   1.576
 1344WAT  HW2   5375   3.898   4.458   1.671
 1344WAT  MW    5376   3.863   4.393   1.624
 1345WAT  OW    5377   0.224   6.300   4.214
 1345WAT  HW1   5378   0.216   6.393   4.233
 1345WAT  HW2   5379   0.187   6.257   4.291
 1345WAT  MW    5380   0.218   6.306   4.227
 1346WAT  OW    5381   6.448   0.747   1.202
 1346WAT  HW1   5382   6.478   0.662   1.168
 1346WAT  HW2   5383   6.484   0.752   1.291
 1346WAT  MW    5384   6.457   0.736   1.210
 1347WAT  OW    5385   4.268   1.066   6.330
 1347WAT  HW1   5386   4.216   1.125   6.276
 1347WAT  HW2   5387   4.234   1.078   6.419
 1347WAT  MW    5388   4.257   1.075   6.335
 1348WAT  OW    5389   5.840   2.021   2.299
 1348WAT  HW1   5390   5.764   2.049   2.248
 1348WAT  HW2   5391   5.863   1.936   2.262
 1348WAT  MW    5392   5.833   2.014   2.287
 1349WAT  OW    5393   0.745   5.285   2.204
 1349WAT  HW1   5394   0.736   5.218   2.135
 1349WAT  HW2   5395   0.788   5.358   2.160
 1349WAT  MW    5396   0.749   5.285   2.189
 1350WAT  OW    5397   2.154   3.808   0.931
 1350WAT  HW1   5398   2.066   3.805   0.894
 1350WAT  HW2   5399   2.204   3.743   0.880
 1350WAT  MW    5400   2.149   3.799   0.919
 1351WAT  OW    5401   0.051   4.340   1.692
 1351WAT  HW1   5402   0.024   4.251   1.669
 1351WAT  HW2   5403   0.013   4.395   1.624
 1351WAT  MW    5404   0.042   4.335   1.680
 1352WAT  OW    5405   5.262   5.756   5.015
 1352WAT  HW1   5406   5.310   5.741   4.934
 1352WAT  HW2   5407   5.192   5.690   5.014
 1352WAT  MW    5408   5.259   5.745   5.004
 1353WAT  OW    5409   3.401   2.635   1.769
 1353WAT  HW1   5410   3.421   2.559   1.714
 1353WAT  HW2   5411   3.467   2.700   1.744
 1353WAT  MW    5412   3.412   2.634   1.758
 1354WAT  OW    5413   0.978   1.916   5.648
 1354WAT  HW1   5414   0.987   2.004   5.685
 1354WAT  HW2   5415   1.065   1.897   5.613
 1354WAT  MW    5416   0.991   1.925   5.648
 1355WAT  OW    5417   4.939   3.787   1.876
 1355WAT  HW1   5418   4.941   3.833   1.960
 1355WAT  HW2   5419   4.854   3.743   1.875
 1355WAT  MW    5420   4.928   3.788   1.887
 1356WAT  OW    5421   2.742   4.418   5.921
 1356WAT  HW1   5422   2.759   4.366   5.999
 1356WAT  HW2   5423   2.685   4.489   5.951
 1356WAT  MW    5424   2.737   4.420   5.935
 1357WAT  OW    5425   1.279   6.325   3.380
 1357WAT  HW1   5426   1.198   6.330   3.431
 1357WAT  HW2   5427   1.349   6.346   3.442
 1357WAT  MW    5428   1.278   6.328   3.395
 1358WAT  OW    5429   0.886   0.621   3.974
 1358WAT  HW1   5430   0.910   0.551   3.914
 1358WAT  HW2   5431   0.962   0.679   3.974
 1358WAT  MW    5432   0.899   0.620   3.966
 1359WAT  OW    5433   6.281   4.307   4.241
 1359WAT  HW1   5434   6.358   4.364   4.244
 1359WAT  HW2   5435   6.224   4.340   4.311
 1359WAT  MW    5436   6.284   4.319   4.251
 1360WAT  OW    5437   2.186   1.759   5.093
 1360WAT  HW1   5438   2.271   1.718   5.074
 1360WAT  HW2   5439   2.156   1.792   5.009
 1360WAT  MW    5440   2.193   1.758   5.079
 1361WAT  OW    5441   2.506   4.396   3.590
 1361WAT  HW1   5442   2.580   4.432   3.639
 1361WAT  HW2   5443   2.499   4.305   3.620
 1361WAT  MW    5444   2.515   4.389   3.601
 1362WAT  OW    5445   3.508   1.979   4.295
 1362WAT  HW1   5446   3.454   1.937   4.363
 1362WAT  HW2   5447   3.488   1.931   4.215
 1362WAT  MW    5448   3.498   1.967   4.294
 1363WAT  OW    5449   5.236   6.353   3.873
 1363WAT  HW1   5450   5.319   6.317   3.905
 1363WAT  HW2   5451   5.232   6.441   3.911
 1363WAT  MW    5452   5.247   6.360   3.883
 1364WAT  OW    5453   5.588   1.008   4.530
 1364WAT  HW1   5454   5.576   1.078   4.594
 1364WAT  HW2   5455   5.682   0.994   4.528
 1364WAT  MW    5456   5.599   1.015   4.539
 1365WAT  OW    5457   6.165   3.414   6.651
 1365WAT  HW1   5458   6.229   3.454   6.709
 1365WAT  HW2   5459   6.087   3.400   6.706
 1365WAT  MW    5460   6.163   3.417   6.666
 1366WAT  OW    5461   6.678   3.994   2.433
 1366WAT  HW1   5462   6.611   4.016   2.497
 1366WAT  HW2   5463   6.733   3.930   2.476
 1366WAT  MW    5464   6.677   3.989   2.447
 1367WAT  OW    5465   2.520   6.539   4.850
 1367WAT  HW1   5466   2.577   6.569   4.920
 1367WAT  HW2   5467   2.434   6.573   4.871
 1367WAT  MW    5468   2.516   6.547   4.862
 1368WAT  OW    5469   1.700   0.840   4.431
 1368WAT  HW1   5470   1.710   0.744   4.432
 1368WAT  HW2   5471   1.786   0.872   4.404
 1368WAT  MW    5472   1.713   0.831   4.428
 1369WAT  OW    5473   0.222   2.716   6.616
 1369WAT  HW1   5474   0.191   2.762   6.695
 1369WAT  HW2   5475   0.288   2.775   6.579
 1369WAT  MW    5476   0.227   2.730   6.622
 1370WAT  OW    5477   2.504   5.963   5.240
 1370WAT  HW1   5478   2.514   5.909   5.319
 1370WAT  HW2   5479   2.409   5.968   5.227
 1370WAT  MW    5480   2.492   5.956   5.249
 1371WAT  OW    5481   6.337   4.176   5.056
 1371WAT  HW1   5482   6.415   4.219   5.091
 1371WAT  HW2   5483   6.356   4.163   4.963
 1371WAT  MW    5484   6.350   4.180   5.049
 1372WAT  OW    5485   0.978   5.663   4.462
 1372WAT  HW1   5486   1.063   5.685   4.500
 1372WAT  HW2   5487   0.914   5.690   4.529
 1372WAT  MW    5488   0.981   5.669   4.476
 1373WAT  OW    5489   6.058   0.986   2.936
 1373WAT  HW1   5490   6.005   0.916   2.974
 1373WAT  HW2   5491   6.140   0.943   2.910
 1373WAT  MW    5492   6.062   0.971   2.938
 1374WAT  OW    5493   5.409   2.111   3.008
 1374WAT  HW1   5494   5.407   2.188   2.952
 1374WAT  HW2   5495   5.386   2.143   3.095
 1374WAT  MW    5496   5.406   2.125   3.012
 1375WAT  OW    5497   6.135   0.820   1.984
 1375WAT  HW1   5498   6.203   0.823   1.917
 1375WAT  HW2   5499   6.183   0.830   2.067
 1375WAT  MW    5500   6.151   0.822   1.987
 1376WAT  OW    5501   4.713   3.698   3.969
 1376WAT  HW1   5502   4.649   3.768   3.977
 1376WAT  HW2   5503   4.753   3.692   4.056
 1376WAT  MW    5504   4.710   3.706   3.982
 1377WAT  OW    5505   2.707   2.877   5.373
 1377WAT  HW1   5506   2.756   2.876   5.291
 1377WAT  HW2   5507   2.759   2.931   5.432
 1377WAT  MW    5508   2.720   2.884   5.370
 1378WAT  OW    5509   2.925   3.651   3.536
 1378WAT  HW1   5510   2.869   3.581   3.568
 1378WAT  HW2   5511   3.010   3.609   3.520
 1378WAT  MW    5512   2.929   3.636   3.538
 1379WAT  OW    5513   3.997   2.048   6.389
 1379WAT  HW1   5514   3.975   2.129   6.342
 1379WAT  HW2   5515   4.004   2.074   6.480
 1379WAT  MW    5516   3.995   2.062   6.395
 1380WAT  OW    5517   2.072   4.627   4.073
 1380WAT  HW1   5518   2.126   4.556   4.107
 1380WAT  HW2   5519   2.081   4.621   3.978
 1380WAT  MW    5520   2.080   4.617   4.065
 1381WAT  OW    5521   1.238   4.968   6.412
 1381WAT  HW1   5522   1.158   5.001   6.371
 1381WAT  HW2   5523   1.267   5.040   6.469
 1381WAT  MW    5524   1.231   4.982   6.414
 1382WAT  OW    5525   4.048   2.970   0.942
 1382WAT  HW1   5526   4.038   2.901   0.875
 1382WAT  HW2   5527   3.958   2.999   0.959
 1382WAT  MW    5528   4.034   2.964   0.935
 1383WAT  OW    5529   5.722   2.228   4.922
 1383WAT  HW1   5530   5.684   2.311   4.895
 1383WAT  HW2   5531   5.813   2.248   4.945
 1383WAT  MW    5532   5.729   2.241   4.922
 1384WAT  OW    5533   0.503   2.919   4.251
 1384WAT  HW1   5534   0.577   2.979   4.250
 1384WAT  HW2   5535   0.445   2.954   4.319
 1384WAT  MW    5536   0.505   2.932   4.260
 1385WAT  OW    5537   2.330   3.090   1.307
 1385WAT  HW1   5538   2.371   3.137   1.235
 1385WAT  HW2   5539   2.306   3.005   1.270
 1385WAT  MW    5540   2.332   3.085   1.293
 1386WAT  OW    5541   5.816   1.982   4.178
 1386WAT  HW1   5542   5.784   1.929   4.251
 1386WAT  HW2   5543   5.789   2.072   4.199
 1386WAT  MW    5544   5.808   1.987   4.190
 1387WAT  OW    5545   3.958   5.801   2.345
 1387WAT  HW1   5546   3.986   5.886   2.309
 1387WAT  HW2   5547   4.000   5.796   2.430
 1387WAT  MW    5548   3.967   5.812   2.351
 1388WAT  OW    5549   4.453   0.776   2.585
 1388WAT  HW1   5550   4.412   0.689   2.593
 1388WAT  HW2   5551   4.386   0.831   2.545
 1388WAT  MW    5552   4.439   0.771   2.581
 1389WAT  OW    5553   0.413   1.080   3.953
 1389WAT  HW1   5554   0.489   1.132   3.928
 1389WAT  HW2   5555   0.431   0.993   3.917
 1389WAT  MW    5556   0.425   1.075   3.945
 1390WAT  OW    5557   2.914   3.833   4.487
 1390WAT  HW1   5558   2.918   3.864   4.397
 1390WAT  HW2   5559   2.868   3.903   4.534
 1390WAT  MW    5560   2.908   3.846   4.481
 1391WAT  OW    5561   2.818   2.558   4.815
 1391WAT  HW1   5562   2.737   2.556   4.763
 1391WAT  HW2   5563   2.879   2.503   4.765
 1391WAT  MW    5564   2.815   2.551   4.801
 1392WAT  OW    5565   3.680   2.438   5.085
 1392WAT  HW1   5566   3.712   2.440   5.175
 1392WAT  HW2   5567   3.753   2.403   5.034
 1392WAT  MW    5568   3.694   2.434   5.090
 1393WAT  OW    5569   5.457   4.356   1.909
 1393WAT  HW1   5570   5.523   4.355   1.840
 1393WAT  HW2   5571   5.505   4.336   1.989
 1393WAT  MW    5572   5.472   4.354   1.910
 1394WAT  OW    5573   2.992   2.823   0.286
 1394WAT  HW1   5574   3.025   2.884   0.221
 1394WAT  HW2   5575   3.033   2.851   0.368
 1394WAT  MW    5576   3.002   2.834   0.289
 1395WAT  OW    5577   5.096   2.490   2.414
 1395WAT  HW1   5578   5.091   2.585   2.410
 1395WAT  HW2   5579   5.012   2.459   2.379
 1395WAT  MW    5580   5.084   2.498   2.409
 1396WAT  OW    5581   3.503   4.932   5.872
 1396WAT  HW1   5582   3.474   4.905   5.960
 1396WAT  HW2   5583   3.503   5.028   5.875
 1396WAT  MW    5584   3.499   4.941   5.884
 1397WAT  OW    5585   2.395   5.567   3.061
 1397WAT  HW1   5586   2.319   5.518   3.031
 1397WAT  HW2   5587   2.360   5.650   3.092
 1397WAT  MW    5588   2.381   5.571   3.061
 1398WAT  OW    5589   3.367   4.476   1.075
 1398WAT  HW1   5590   3.336   4.395   1.035
 1398WAT  HW2   5591   3.307   4.543   1.042
 1398WAT  MW    5592   3.355   4.474   1.065
 1399WAT  OW    5593   4.338   3.296   4.024
 1399WAT  HW1   5594   4.399   3.363   3.994
 1399WAT  HW2   5595   4.339   3.230   3.954
 1399WAT  MW    5596   4.346   3.296   4.011
 1400WAT  OW    5597   0.495   4.182   2.866
 1400WAT  HW1   5598   0.565   4.219   2.920
 1400WAT  HW2   5599   0.457   4.258   2.820
 1400WAT  MW    5600   0.499   4.197   2.867
 1401WAT  OW    5601   2.386   3.161   0.021
 1401WAT  HW1   5602   2.426   3.079   0.050
 1401WAT  HW2   5603   2.307   3.169   0.075
 1401WAT  MW    5604   2.381   3.151   0.032
 1402WAT  OW    5605   4.472   1.489   6.022
 1402WAT  HW1   5606   4.503   1.431   5.952
 1402WAT  HW2   5607   4.474   1.577   5.982
 1402WAT  MW    5608   4.477   1.493   6.007
 1403WAT  OW    5609   5.170   2.642   1.843
 1403WAT  HW1   5610   5.135   2.579   1.907
 1403WAT  HW2   5611   5.125   2.724   1.864
 1403WAT  MW    5612   5.159   2.645   1.854
 1404WAT  OW    5613   0.149   3.029   0.774
 1404WAT  HW1   5614   0.208   3.097   0.808
 1404WAT  HW2   5615   0.062   3.064   0.789
 1404WAT  MW    5616   0.146   3.043   0.780
 1405WAT  OW    5617   0.226   3.195   4.323
 1405WAT  HW1   5618   0.209   3.265   4.386
 1405WAT  HW2   5619   0.141   3.177   4.282
 1405WAT  MW    5620   0.213   3.202   4.326
 1406WAT  OW    5621   0.170   4.192   0.107
 1406WAT  HW1   5622   0.258   4.225   0.127
 1406WAT  HW2   5623   0.117   4.221   0.181
 1406WAT  MW    5624   0.175   4.200   0.120
 1407WAT  OW    5625   6.442   4.605   5.680
 1407WAT  HW1   5626   6.347   4.589   5.684
 1407WAT  HW2   5627   6.481   4.520   5.701
 1407WAT  MW    5628   6.434   4.592   5.683
 1408WAT  OW    5629   4.291   0.636   2.919
 1408WAT  HW1   5630   4.279   0.731   2.924
 1408WAT  HW2   5631   4.270   0.614   2.828
 1408WAT  MW    5632   4.287   0.646   2.908
 1409WAT  OW    5633   3.264   5.859   3.184
 1409WAT  HW1   5634   3.287   5.799   3.113
 1409WAT  HW2   5635   3.311   5.824   3.260
 1409WAT  MW    5636   3.273   5.846   3.185
 1410WAT  OW    5637   1.947   0.361   5.535
 1410WAT  HW1   5638   2.006   0.349   5.609
 1410WAT  HW2   5639   1.909   0.448   5.549
 1410WAT  MW    5640   1.950   0.371   5.547
 1411WAT  OW    5641   0.644   0.543   2.025
 1411WAT  HW1   5642   0.602   0.589   2.097
 1411WAT  HW2   5643   0.664   0.456   2.061
 1411WAT  MW    5644   0.641   0.537   2.039
 1412WAT  OW    5645   0.871   0.247   1.316
 1412WAT  HW1   5646   0.778   0.267   1.326
 1412WAT  HW2   5647   0.902   0.231   1.406
 1412WAT  MW    5648   0.863   0.248   1.330
 1413WAT  OW    5649   3.054   1.830   1.978
 1413WAT  HW1   5650   3.065   1.823   2.072
 1413WAT  HW2   5651   2.961   1.814   1.963
 1413WAT  MW    5652   3.043   1.827   1.988
 1414WAT  OW    5653   1.091   5.736   1.280
 1414WAT  HW1   5654   1.068   5.645   1.301
 1414WAT  HW2   5655   1.186   5.738   1.284
 1414WAT  MW    5656   1.100   5.724   1.283
 1415WAT  OW    5657   6.475   6.286   4.888
 1415WAT  HW1   5658   6.534   6.213   4.906
 1415WAT  HW2   5659   6.485   6.302   4.794
 1415WAT  MW    5660   6.484   6.278   4.878
 1416WAT  OW    5661   5.686   5.141   1.032
 1416WAT  HW1   5662   5.637   5.103   1.105
 1416WAT  HW2   5663   5.637   5.220   1.010
 1416WAT  MW    5664   5.673   5.146   1.039
 1417WAT  OW    5665   5.931   2.504   6.426
 1417WAT  HW1   5666   5.886   2.459   6.354
 1417WAT  HW2   5667   6.016   2.462   6.432
 1417WAT  MW    5668   5.936   2.493   6.417
 1418WAT  OW    5669   0.038   2.731   0.444
 1418WAT  HW1   5670   0.008   2.690   0.525
 1418WAT  HW2   5671   0.104   2.795   0.471
 1418WAT  MW    5672   0.043   2.734   0.458
 1419WAT  OW    5673   4.107   5.987   0.163
 1419WAT  HW1   5674   4.057   5.923   0.213
 1419WAT  HW2   5675   4.101   5.956   0.072
 1419WAT  MW    5676   4.100   5.974   0.157
 1420WAT  OW    5677   1.210   4.507   3.126
 1420WAT  HW1   5678   1.211   4.479   3.035
 1420WAT  HW2   5679   1.278   4.574   3.131
 1420WAT  MW    5680   1.219   4.512   3.115
 1421WAT  OW    5681   4.690   3.614   3.206
 1421WAT  HW1   5682   4.689   3.705   3.176
 1421WAT  HW2   5683   4.714   3.563   3.128
 1421WAT  MW    5684   4.693   3.619   3.192
 1422WAT  OW    5685   0.785   6.363   6.562
 1422WAT  HW1   5686   0.777   6.319   6.646
 1422WAT  HW2   5687   0.772   6.293   6.497
 1422WAT  MW    5688   0.782   6.348   6.565
 1423WAT  OW    5689   6.430   0.330   0.334
 1423WAT  HW1   5690   6.501   0.317   0.271
 1423WAT  HW2   5691   6.361   0.375   0.284
 1423WAT  MW    5692   6.430   0.334   0.319
 1424WAT  OW    5693   5.006   5.672   1.985
 1424WAT  HW1   5694   4.993   5.716   1.901
 1424WAT  HW2   5695   4.978   5.582   1.969
 1424WAT  MW    5696   5.001   5.666   1.972
 1425WAT  OW    5697   2.586   5.738   5.067
 1425WAT  HW1   5698   2.551   5.818   5.105
 1425WAT  HW2   5699   2.551   5.736   4.978
 1425WAT  MW    5700   2.577   5.748   5.060
 1426WAT  OW    5701   6.371   3.308   0.680
 1426WAT  HW1   5702   6.372   3.297   0.775
 1426WAT  HW2   5703   6.427   3.383   0.664
 1426WAT  MW    5704   6.378   3.316   0.691
 1427WAT  OW    5705   0.276   2.992   4.968
 1427WAT  HW1   5706   0.193   2.973   5.012
 1427WAT  HW2   5707   0.268   2.949   4.883
 1427WAT  MW    5708   0.264   2.984   4.963
 1428WAT  OW    5709   5.974   0.249   2.295
 1428WAT  HW1   5710   6.007   0.337   2.313
 1428WAT  HW2   5711   5.903   0.263   2.232
 1428WAT  MW    5712   5.969   0.263   2.289
 1429WAT  OW    5713   6.091   0.116   1.391
 1429WAT  HW1   5714   6.112   0.096   1.299
 1429WAT  HW2   5715   6.014   0.173   1.386
 1429WAT  MW    5716   6.083   0.121   1.378
 1430WAT  OW    5717   3.214   6.554   4.041
 1430WAT  HW1   5718   3.169   6.551   3.957
 1430WAT  HW2   5719   3.229   6.462   4.064
 1430WAT  MW    5720   3.210   6.542   4.033
 1431WAT  OW    5721   2.545   1.107   5.842
 1431WAT  HW1   5722   2.492   1.127   5.919
 1431WAT  HW2   5723   2.546   1.012   5.838
 1431WAT  MW    5724   2.538   1.097   5.852
 1432WAT  OW    5725   0.190   4.952   2.606
 1432WAT  HW1   5726   0.166   4.868   2.646
 1432WAT  HW2   5727   0.282   4.964   2.629
 1432WAT  MW    5728   0.199   4.943   2.615
 1433WAT  OW    5729   3.699   1.932   3.017
 1433WAT  HW1   5730   3.760   1.862   2.993
 1433WAT  HW2   5731   3.623   1.917   2.961
 1433WAT  MW    5732   3.697   1.921   3.006
 1434WAT  OW    5733   5.200   1.470   6.392
 1434WAT  HW1   5734   5.278   1.417   6.377
 1434WAT  HW2   5735   5.205   1.494   6.485
 1434WAT  MW    5736   5.211   1.466   6.402
 1435WAT  OW    5737   5.288   1.358   0.824
 1435WAT  HW1   5738   5.277   1.398   0.910
 1435WAT  HW2   5739   5.381   1.336   0.820
 1435WAT  MW    5740   5.299   1.360   0.835
 1436WAT  OW    5741   3.034   6.204   3.979
 1436WAT  HW1   5742   2.979   6.129   3.960
 1436WAT  HW2   5743   3.036   6.254   3.898
 1436WAT  MW    5744   3.027   6.201   3.966
 1437WAT  OW    5745   2.978   5.094   6.162
 1437WAT  HW1   5746   2.983   5.034   6.236
 1437WAT  HW2   5747   2.944   5.176   6.198
 1437WAT  MW    5748   2.974   5.097   6.176
 1438WAT  OW    5749   6.336   1.580   5.929
 1438WAT  HW1   5750   6.320   1.568   5.835
 1438WAT  HW2   5751   6.368   1.495   5.959
 1438WAT  MW    5752   6.338   1.568   5.921
 1439WAT  OW    5753   3.097   0.574   2.329
 1439WAT  HW1   5754   3.068   0.661   2.356
 1439WAT  HW2   5755   3.050   0.558   2.247
 1439WAT  MW    5756   3.087   0.584   2.322
 1440WAT  OW    5757   2.940   1.157   2.893
 1440WAT  HW1   5758   2.878   1.228   2.902
 1440WAT  HW2   5759   3.021   1.190   2.932
 1440WAT  MW    5760   2.943   1.170   2.899
 1441WAT  OW    5761   5.485   2.117   5.029
 1441WAT  HW1   5762   5.576   2.145   5.015
 1441WAT  HW2   5763   5.490   2.058   5.104
 1441WAT  MW    5764   5.498   2.113   5.037
 1442WAT  OW    5765   4.766   4.846   6.436
 1442WAT  HW1   5766   4.841   4.834   6.495
 1442WAT  HW2   5767   4.778   4.779   6.368
 1442WAT  MW    5768   4.778   4.835   6.435
 1443WAT  OW    5769   1.378   3.630   4.946
 1443WAT  HW1   5770   1.458   3.672   4.979
 1443WAT  HW2   5771   1.394   3.536   4.956
 1443WAT  MW    5772   1.390   3.623   4.952
 1444WAT  OW    5773   2.958   1.921   3.158
 1444WAT  HW1   5774   2.992   2.010   3.150
 1444WAT  HW2   5775   2.966   1.900   3.251
 1444WAT  MW    5776   2.964   1.930   3.169
 1445WAT  OW    5777   6.207   0.565   3.047
 1445WAT  HW1   5778   6.179   0.474   3.056
 1445WAT  HW2   5779   6.190   0.604   3.133
 1445WAT  MW    5780   6.201   0.558   3.060
 1446WAT  OW    5781   4.356   5.606   5.376
 1446WAT  HW1   5782   4.412   5.614   5.299
 1446WAT  HW2   5783   4.416   5.601   5.450
 1446WAT  MW    5784   4.371   5.606   5.376
 1447WAT  OW    5785   4.218   4.461   3.822
 1447WAT  HW1   5786   4.127   4.487   3.834
 1447WAT  HW2   5787   4.214   4.369   3.795
 1447WAT  MW    5788   4.206   4.452   3.820
 1448WAT  OW    5789   5.289   0.940   1.484
 1448WAT  HW1   5790   5.207   0.985   1.507
 1448WAT  HW2   5791   5.356   1.008   1.494
 1448WAT  MW    5792   5.287   0.955   1.489
 1449WAT  OW    5793   0.795   0.597   2.305
 1449WAT  HW1   5794   0.859   0.629   2.368
 1449WAT  HW2   5795   0.833   0.617   2.219
 1449WAT  MW    5796   0.808   0.604   2.302
 1450WAT  OW    5797   2.747   2.000   4.928
 1450WAT  HW1   5798   2.824   1.951   4.899
 1450WAT  HW2   5799   2.689   2.001   4.851
 1450WAT  MW    5800   2.750   1.994   4.914
 1451WAT  OW    5801   4.257   0.563   2.665
 1451WAT  HW1   5802   4.253   0.534   2.574
 1451WAT  HW2   5803   4.180   0.619   2.676
 1451WAT  MW    5804   4.246   0.567   2.655
 1452WAT  OW    5805   0.967   0.558   0.348
 1452WAT  HW1   5806   1.032   0.495   0.380
 1452WAT  HW2   5807   0.935   0.602   0.427
 1452WAT  MW    5808   0.972   0.555   0.362
 1453WAT  OW    5809   5.672   0.490   2.871
 1453WAT  HW1   5810   5.590   0.444   2.856
 1453WAT  HW2   5811   5.738   0.420   2.876
 1453WAT  MW    5812   5.670   0.474   2.870
 1454WAT  OW    5813   4.930   2.321   3.402
 1454WAT  HW1   5814   4.867   2.260   3.364
 1454WAT  HW2   5815   5.008   2.269   3.418
 1454WAT  MW    5816   4.932   2.306   3.399
 1455WAT  OW    5817   3.651   6.619   0.919
 1455WAT  HW1   5818   3.603   6.556   0.866
 1455WAT  HW2   5819   3.660   6.577   1.004
 1455WAT  MW    5820   3.646   6.606   0.923
 1456WAT  OW    5821   2.853   3.799   6.074
 1456WAT  HW1   5822   2.949   3.804   6.070
 1456WAT  HW2   5823   2.833   3.783   6.166
 1456WAT  MW    5824   2.863   3.798   6.086
 1457WAT  OW    5825   1.134   1.074   3.234
 1457WAT  HW1   5826   1.124   0.994   3.182
 1457WAT  HW2   5827   1.195   1.127   3.184
 1457WAT  MW    5828   1.141   1.070   3.221
 1458WAT  OW    5829   4.679   1.007   6.199
 1458WAT  HW1   5830   4.715   1.007   6.288
 1458WAT  HW2   5831   4.612   0.938   6.201
 1458WAT  MW    5832   4.675   0.998   6.211
 1459WAT  OW    5833   6.224   1.401   4.302
 1459WAT  HW1   5834   6.149   1.367   4.253
 1459WAT  HW2   5835   6.300   1.376   4.249
 1459WAT  MW    5836   6.224   1.393   4.289
 1460WAT  OW    5837   0.062   5.397   0.178
 1460WAT  HW1   5838   0.095   5.328   0.236
 1460WAT  HW2   5839  -0.033   5.388   0.181
 1460WAT  MW    5840   0.054   5.387   0.186
 1461WAT  OW    5841   4.175   0.626   4.999
 1461WAT  HW1   5842   4.243   0.570   5.037
 1461WAT  HW2   5843   4.213   0.659   4.918
 1461WAT  MW    5844   4.189   0.623   4.993
 1462WAT  OW    5845   3.210   6.567   6.227
 1462WAT  HW1   5846   3.136   6.557   6.287
 1462WAT  HW2   5847   3.224   6.479   6.191
 1462WAT  MW    5848   3.202   6.554   6.230
 1463WAT  OW    5849   2.775   2.321   0.325
 1463WAT  HW1   5850   2.691   2.327   0.370
 1463WAT  HW2   5851   2.835   2.283   0.389
 1463WAT  MW    5852   2.772   2.317   0.339
 1464WAT  OW    5853   6.258   0.816   4.090
 1464WAT  HW1   5854   6.172   0.859   4.093
 1464WAT  HW2   5855   6.307   0.856   4.162
 1464WAT  MW    5856   6.253   0.827   4.100
 1465WAT  OW    5857   1.655   2.052   4.563
 1465WAT  HW1   5858   1.586   1.998   4.525
 1465WAT  HW2   5859   1.631   2.142   4.541
 1465WAT  MW    5860   1.643   2.057   4.555
 1466WAT  OW    5861   3.692   3.150   2.792
 1466WAT  HW1   5862   3.783   3.129   2.770
 1466WAT  HW2   5863   3.674   3.097   2.870
 1466WAT  MW    5864   3.702   3.140   2.800
 1467WAT  OW    5865   2.525   3.109   3.204
 1467WAT  HW1   5866   2.542   3.075   3.292
 1467WAT  HW2   5867   2.481   3.037   3.158
 1467WAT  MW    5868   2.521   3.095   3.209
 1468WAT  OW    5869   3.124   1.108   3.724
 1468WAT  HW1   5870   3.067   1.036   3.749
 1468WAT  HW2   5871   3.176   1.074   3.651
 1468WAT  MW    5872   3.123   1.094   3.718
 1469WAT  OW    5873   4.909   5.050   5.541
 1469WAT  HW1   5874   4.832   5.075   5.592
 1469WAT  HW2   5875   4.954   4.986   5.596
 1469WAT  MW    5876   4.905   5.045   5.555
 1470WAT  OW    5877   1.772   2.124   6.362
 1470WAT  HW1   5878   1.809   2.072   6.433
 1470WAT  HW2   5879   1.849   2.153   6.311
 1470WAT  MW    5880   1.787   2.121   6.364
 1471WAT  OW    5881   4.721   4.263   0.672
 1471WAT  HW1   5882   4.693   4.183   0.716
 1471WAT  HW2   5883   4.817   4.256   0.670
 1471WAT  MW    5884   4.730   4.251   0.678
 1472WAT  OW    5885   3.404   3.524   0.633
 1472WAT  HW1   5886   3.438   3.607   0.666
 1472WAT  HW2   5887   3.478   3.464   0.640
 1472WAT  MW    5888   3.418   3.527   0.639
 1473WAT  OW    5889   3.322   3.351   4.740
 1473WAT  HW1   5890   3.262   3.425   4.738
 1473WAT  HW2   5891   3.374   3.359   4.660
 1473WAT  MW    5892   3.321   3.362   4.729
 1474WAT  OW    5893   3.070   0.368   1.025
 1474WAT  HW1   5894   3.076   0.451   0.977
 1474WAT  HW2   5895   2.992   0.378   1.080
 1474WAT  MW    5896   3.060   0.380   1.026
 1475WAT  OW    5897   1.695   6.570   1.916
 1475WAT  HW1   5898   1.654   6.502   1.969
 1475WAT  HW2   5899   1.789   6.557   1.928
 1475WAT  MW    5900   1.702   6.559   1.924
 1476WAT  OW    5901   2.600   5.923   4.456
 1476WAT  HW1   5902   2.536   5.952   4.391
 1476WAT  HW2   5903   2.684   5.956   4.423
 1476WAT  MW    5904   2.603   5.931   4.443
 1477WAT  OW    5905   3.679   5.240   4.209
 1477WAT  HW1   5906   3.720   5.158   4.235
 1477WAT  HW2   5907   3.611   5.215   4.147
 1477WAT  MW    5908   3.675   5.226   4.204
 1478WAT  OW    5909   2.063   5.202   4.185
 1478WAT  HW1   5910   1.983   5.252   4.200
 1478WAT  HW2   5911   2.097   5.237   4.103
 1478WAT  MW    5912   2.057   5.213   4.176
 1479WAT  OW    5913   6.362   4.682   1.914
 1479WAT  HW1   5914   6.452   4.664   1.886
 1479WAT  HW2   5915   6.361   4.660   2.007
 1479WAT  MW    5916   6.374   4.677   1.923
 1480WAT  OW    5917   3.526   6.436   0.795
 1480WAT  HW1   5918   3.562   6.366   0.849
 1480WAT  HW2   5919   3.565   6.423   0.709
 1480WAT  MW    5920   3.536   6.425   0.791
 1481WAT  OW    5921   6.651   1.952   3.281
 1481WAT  HW1   5922   6.703   1.994   3.212
 1481WAT  HW2   5923   6.586   1.900   3.233
 1481WAT  MW    5924   6.649   1.951   3.265
 1482WAT  OW    5925   2.587   3.981   2.289
 1482WAT  HW1   5926   2.620   3.972   2.378
 1482WAT  HW2   5927   2.661   4.015   2.239
 1482WAT  MW    5928   2.601   3.984   2.294
 1483WAT  OW    5929   1.791   1.494   5.148
 1483WAT  HW1   5930   1.876   1.536   5.160
 1483WAT  HW2   5931   1.728   1.565   5.156
 1483WAT  MW    5932   1.794   1.509   5.150
 1484WAT  OW    5933   2.577   2.156   6.454
 1484WAT  HW1   5934   2.603   2.247   6.471
 1484WAT  HW2   5935   2.626   2.105   6.518
 1484WAT  MW    5936   2.587   2.161   6.465
 1485WAT  OW    5937   5.037   0.061   4.507
 1485WAT  HW1   5938   5.001  -0.006   4.566
 1485WAT  HW2   5939   4.964   0.083   4.448
 1485WAT  MW    5940   5.022   0.055   4.507
 1486WAT  OW    5941   5.084   0.416   4.412
 1486WAT  HW1   5942   5.037   0.456   4.485
 1486WAT  HW2   5943   5.057   0.467   4.335
 1486WAT  MW    5944   5.074   0.428   4.411
 1487WAT  OW    5945   6.663   0.390   2.952
 1487WAT  HW1   5946   6.725   0.378   3.024
 1487WAT  HW2   5947   6.682   0.478   2.920
 1487WAT  MW    5948   6.674   0.400   2.957
 1488WAT  OW    5949   0.795   3.471   3.200
 1488WAT  HW1   5950   0.780   3.471   3.295
 1488WAT  HW2   5951   0.888   3.490   3.191
 1488WAT  MW    5952   0.805   3.474   3.211
 1489WAT  OW    5953   4.183   0.380   3.697
 1489WAT  HW1   5954   4.198   0.454   3.637
 1489WAT  HW2   5955   4.224   0.306   3.653
 1489WAT  MW    5956   4.191   0.380   3.683
 1490WAT  OW    5957   3.870   4.365   3.956
 1490WAT  HW1   5958   3.912   4.426   3.896
 1490WAT  HW2   5959   3.821   4.305   3.900
 1490WAT  MW    5960   3.869   4.366   3.941
 1491WAT  OW    5961   5.432   2.412   1.132
 1491WAT  HW1   5962   5.481   2.361   1.196
 1491WAT  HW2   5963   5.346   2.425   1.173
 1491WAT  MW    5964   5.427   2.407   1.146
 1492WAT  OW    5965   2.982   0.697   0.758
 1492WAT  HW1   5966   2.932   0.626   0.716
 1492WAT  HW2   5967   2.919   0.768   0.767
 1492WAT  MW    5968   2.967   0.697   0.754
 1493WAT  OW    5969   5.144   4.341   3.857
 1493WAT  HW1   5970   5.213   4.379   3.803
 1493WAT  HW2   5971   5.179   4.343   3.946
 1493WAT  MW    5972   5.158   4.347   3.862
 1494WAT  OW    5973   4.649   2.877   5.353
 1494WAT  HW1   5974   4.660   2.787   5.383
 1494WAT  HW2   5975   4.701   2.929   5.415
 1494WAT  MW    5976   4.657   2.872   5.366
 1495WAT  OW    5977   6.466   0.395   5.658
 1495WAT  HW1   5978   6.460   0.485   5.690
 1495WAT  HW2   5979   6.476   0.405   5.563
 1495WAT  MW    5980   6.467   0.408   5.649
 1496WAT  OW    5981   1.796   0.304   0.511
 1496WAT  HW1   5982   1.801   0.262   0.425
 1496WAT  HW2   5983   1.769   0.394   0.493
 1496WAT  MW    5984   1.793   0.310   0.498
 1497WAT  OW    5985   2.443   3.580   4.503
 1497WAT  HW1   5986   2.472   3.502   4.551
 1497WAT  HW2   5987   2.404   3.545   4.423
 1497WAT  MW    5988   2.442   3.565   4.499
 1498WAT  OW    5989   0.426   4.332   5.642
 1498WAT  HW1   5990   0.333   4.348   5.655
 1498WAT  HW2   5991   0.467   4.355   5.725
 1498WAT  MW    5992   0.419   4.337   5.655
 1499WAT  OW    5993   5.344   2.225   3.277
 1499WAT  HW1   5994   5.300   2.184   3.352
 1499WAT  HW2   5995   5.369   2.312   3.308
 1499WAT  MW    5996   5.341   2.231   3.291
 1500WAT  OW    5997   5.987   2.758   0.201
 1500WAT  HW1   5998   5.963   2.698   0.272
 1500WAT  HW2   5999   6.056   2.712   0.154
 1500WAT  MW    6000   5.993   2.744   0.204
 1501WAT  OW    6001   5.499   5.039   2.275
 1501WAT  HW1   6002   5.498   5.126   2.235
 1501WAT  HW2   6003   5.426   4.992   2.233
 1501WAT  MW    6004   5.489   5.044   2.264
 1502WAT  OW    6005   5.604   2.012   4.413
 1502WAT  HW1   6006   5.646   2.030   4.497
 1502WAT  HW2   6007   5.530   1.956   4.434
 1502WAT  MW    6008   5.600   2.007   4.427
 1503WAT  OW    6009   3.542   2.228   2.146
 1503WAT  HW1   6010   3.598   2.243   2.069
 1503WAT  HW2   6011   3.496   2.147   2.126
 1503WAT  MW    6012   3.544   2.220   2.133
 1504WAT  OW    6013   3.253   0.539   4.513
 1504WAT  HW1   6014   3.175   0.487   4.531
 1504WAT  HW2   6015   3.295   0.494   4.439
 1504WAT  MW    6016   3.248   0.526   4.505
 1505WAT  OW    6017   3.799   2.146   2.841
 1505WAT  HW1   6018   3.732   2.080   2.861
 1505WAT  HW2   6019   3.882   2.097   2.843
 1505WAT  MW    6020   3.801   2.131   2.844
 1506WAT  OW    6021   4.838   3.169   4.017
 1506WAT  HW1   6022   4.780   3.103   4.055
 1506WAT  HW2   6023   4.844   3.146   3.924
 1506WAT  MW    6024   4.831   3.158   4.010
 1507WAT  OW    6025   6.531   0.658   5.881
 1507WAT  HW1   6026   6.460   0.661   5.945
 1507WAT  HW2   6027   6.489   0.685   5.799
 1507WAT  MW    6028   6.516   0.662   5.878
 1508WAT  OW    6029   2.302   2.254   4.033
 1508WAT  HW1   6030   2.338   2.295   3.954
 1508WAT  HW2   6031   2.306   2.160   4.015
 1508WAT  MW    6032   2.307   2.247   4.020
 1509WAT  OW    6033   4.938   3.087   0.846
 1509WAT  HW1   6034   4.995   3.157   0.878
 1509WAT  HW2   6035   4.998   3.015   0.826
 1509WAT  MW    6036   4.954   3.086   0.847
 1510WAT  OW    6037   1.987   0.442   4.546
 1510WAT  HW1   6038   1.949   0.528   4.560
 1510WAT  HW2   6039   1.941   0.385   4.608
 1510WAT  MW    6040   1.976   0.446   4.556
 1511WAT  OW    6041   5.499   1.238   2.852
 1511WAT  HW1   6042   5.470   1.217   2.941
 1511WAT  HW2   6043   5.460   1.324   2.833
 1511WAT  MW    6044   5.490   1.247   2.861
 1512WAT  OW    6045   2.360   3.750   3.506
 1512WAT  HW1   6046   2.444   3.794   3.496
 1512WAT  HW2   6047   2.295   3.819   3.496
 1512WAT  MW    6048   2.363   3.765   3.504
 1513WAT  OW    6049   3.146   3.374   5.703
 1513WAT  HW1   6050   3.154   3.315   5.628
 1513WAT  HW2   6051   3.227   3.426   5.702
 1513WAT  MW    6052   3.158   3.373   5.693
 1514WAT  OW    6053   5.243   6.373   4.865
 1514WAT  HW1   6054   5.188   6.297   4.849
 1514WAT  HW2   6055   5.332   6.342   4.847
 1514WAT  MW    6056   5.248   6.359   4.861
 1515WAT  OW    6057   3.475   2.316   3.204
 1515WAT  HW1   6058   3.453   2.378   3.134
 1515WAT  HW2   6059   3.571   2.318   3.209
 1515WAT  MW    6060   3.485   2.324   3.195
 1516WAT  OW    6061   5.238   3.864   6.544
 1516WAT  HW1   6062   5.209   3.861   6.635
 1516WAT  HW2   6063   5.281   3.779   6.529
 1516WAT  MW    6064   5.240   3.852   6.554
 1517WAT  OW    6065   3.337   5.036   3.434
 1517WAT  HW1   6066   3.373   5.121   3.408
 1517WAT  HW2   6067   3.316   4.992   3.352
 1517WAT  MW    6068   3.339   5.042   3.420
 1518WAT  OW    6069   0.411   0.453   3.424
 1518WAT  HW1   6070   0.476   0.384   3.437
 1518WAT  HW2   6071   0.462   0.531   3.403
 1518WAT  MW    6072   0.426   0.454   3.423
 1519WAT  OW    6073   0.814   4.621   5.240
 1519WAT  HW1   6074   0.786   4.563   5.169
 1519WAT  HW2   6075   0.741   4.618   5.302
 1519WAT  MW    6076   0.800   4.613   5.239
 1520WAT  OW    6077   1.654   3.665   5.070
 1520WAT  HW1   6078   1.693   3.745   5.104
 1520WAT  HW2   6079   1.700   3.648   4.988
 1520WAT  MW    6080   1.665   3.673   5.063
 1521WAT  OW    6081   3.519   5.279   5.599
 1521WAT  HW1   6082   3.454   5.345   5.575
 1521WAT  HW2   6083   3.548   5.243   5.516
 1521WAT  MW    6084   3.514   5.283   5.585
 1522WAT  OW    6085   4.558   2.748   0.283
 1522WAT  HW1   6086   4.556   2.727   0.190
 1522WAT  HW2   6087   4.467   2.764   0.306
 1522WAT  MW    6088   4.546   2.747   0.274
 1523WAT  OW    6089   5.866   3.622   4.896
 1523WAT  HW1   6090   5.941   3.594   4.949
 1523WAT  HW2   6091   5.802   3.654   4.960
 1523WAT  MW    6092   5.867   3.622   4.911
 1524WAT  OW    6093   3.332   4.450   4.927
 1524WAT  HW1   6094   3.403   4.419   4.871
 1524WAT  HW2   6095   3.331   4.544   4.915
 1524WAT  MW    6096   3.341   4.458   4.918
 1525WAT  OW    6097   0.998   1.277   1.095
 1525WAT  HW1   6098   1.046   1.200   1.065
 1525WAT  HW2   6099   0.916   1.276   1.044
 1525WAT  MW    6100   0.993   1.267   1.084
 1526WAT  OW    6101   2.270   2.552   6.595
 1526WAT  HW1   6102   2.190   2.600   6.574
 1526WAT  HW2   6103   2.309   2.601   6.668
 1526WAT  MW    6104   2.265   2.565   6.602
 1527WAT  OW    6105   1.141   1.874   6.321
 1527WAT  HW1   6106   1.185   1.947   6.277
 1527WAT  HW2   6107   1.188   1.796   6.290
 1527WAT  MW    6108   1.153   1.873   6.311
 1528WAT  OW    6109   2.755   6.375   2.878
 1528WAT  HW1   6110   2.813   6.435   2.925
 1528WAT  HW2   6111   2.670   6.419   2.876
 1528WAT  MW    6112   2.751   6.389   2.884
 1529WAT  OW    6113   0.850   0.719   5.756
 1529WAT  HW1   6114   0.819   0.633   5.727
 1529WAT  HW2   6115   0.789   0.781   5.715
 1529WAT  MW    6116   0.838   0.716   5.747
 1530WAT  OW    6117   0.714   3.324   5.963
 1530WAT  HW1   6118   0.716   3.279   5.879
 1530WAT  HW2   6119   0.648   3.277   6.014
 1530WAT  MW    6120   0.706   3.312   5.959
 1531WAT  OW    6121   5.708   4.855   0.285
 1531WAT  HW1   6122   5.754   4.881   0.205
 1531WAT  HW2   6123   5.739   4.917   0.352
 1531WAT  MW    6124   5.718   4.867   0.283
 1532WAT  OW    6125   0.809   1.675   3.315
 1532WAT  HW1   6126   0.773   1.741   3.374
 1532WAT  HW2   6127   0.901   1.668   3.340
 1532WAT  MW    6128   0.816   1.683   3.326
 1533WAT  OW    6129   4.892   4.565   5.822
 1533WAT  HW1   6130   4.843   4.539   5.745
 1533WAT  HW2   6131   4.980   4.584   5.789
 1533WAT  MW    6132   4.897   4.564   5.808
 1534WAT  OW    6133   3.459   1.798   1.216
 1534WAT  HW1   6134   3.391   1.771   1.278
 1534WAT  HW2   6135   3.452   1.735   1.144
 1534WAT  MW    6136   3.449   1.786   1.215
 1535WAT  OW    6137   1.557   0.853   5.216
 1535WAT  HW1   6138   1.560   0.928   5.274
 1535WAT  HW2   6139   1.473   0.861   5.171
 1535WAT  MW    6140   1.546   0.864   5.217
 1536WAT  OW    6141   6.183   1.072   3.282
 1536WAT  HW1   6142   6.220   1.003   3.225
 1536WAT  HW2   6143   6.230   1.151   3.257
 1536WAT  MW    6144   6.194   1.073   3.271
 1537WAT  OW    6145   0.132   4.704   3.190
 1537WAT  HW1   6146   0.151   4.666   3.104
 1537WAT  HW2   6147   0.190   4.659   3.251
 1537WAT  MW    6148   0.142   4.693   3.186
 1538WAT  OW    6149   5.612   1.705   5.124
 1538WAT  HW1   6150   5.690   1.692   5.070
 1538WAT  HW2   6151   5.641   1.688   5.213
 1538WAT  MW    6152   5.626   1.701   5.129
 1539WAT  OW    6153   4.293   2.716   0.561
 1539WAT  HW1   6154   4.222   2.758   0.609
 1539WAT  HW2   6155   4.294   2.759   0.476
 1539WAT  MW    6156   4.284   2.727   0.556
 1540WAT  OW    6157   2.490   2.308   1.191
 1540WAT  HW1   6158   2.584   2.301   1.206
 1540WAT  HW2   6159   2.463   2.222   1.161
 1540WAT  MW    6160   2.498   2.296   1.189
 1541WAT  OW    6161   5.770   2.796   3.380
 1541WAT  HW1   6162   5.834   2.728   3.358
 1541WAT  HW2   6163   5.732   2.820   3.295
 1541WAT  MW    6164   5.774   2.790   3.366
 1542WAT  OW    6165   0.499   5.042   1.374
 1542WAT  HW1   6166   0.428   5.068   1.433
 1542WAT  HW2   6167   0.577   5.039   1.430
 1542WAT  MW    6168   0.500   5.045   1.389
 1543WAT  OW    6169   3.119   4.208   2.733
 1543WAT  HW1   6170   3.142   4.258   2.655
 1543WAT  HW2   6171   3.025   4.223   2.745
 1543WAT  MW    6172   3.110   4.217   2.725
 1544WAT  OW    6173   6.096   3.279   2.546
 1544WAT  HW1   6174   6.158   3.346   2.575
 1544WAT  HW2   6175   6.088   3.293   2.452
 1544WAT  MW    6176   6.104   3.290   2.537
 1545WAT  OW    6177   4.513   6.642   1.709
 1545WAT  HW1   6178   4.597   6.679   1.680
 1545WAT  HW2   6179   4.479   6.596   1.632
 1545WAT  MW    6180   4.520   6.641   1.695
 1546WAT  OW    6181   6.126   4.103   5.666
 1546WAT  HW1   6182   6.171   4.029   5.705
 1546WAT  HW2   6183   6.128   4.086   5.572
 1546WAT  MW    6184   6.132   4.091   5.659
 1547WAT  OW    6185   1.214   4.077   3.585
 1547WAT  HW1   6186   1.165   4.119   3.515
 1547WAT  HW2   6187   1.147   4.039   3.642
 1547WAT  MW    6188   1.199   4.077   3.584
 1548WAT  OW    6189   3.508   0.304   5.738
 1548WAT  HW1   6190   3.505   0.216   5.774
 1548WAT  HW2   6191   3.422   0.341   5.757
 1548WAT  MW    6192   3.497   0.298   5.745
 1549WAT  OW    6193   3.589   4.114   6.155
 1549WAT  HW1   6194   3.676   4.112   6.195
 1549WAT  HW2   6195   3.566   4.207   6.151
 1549WAT  MW    6196   3.598   4.126   6.160
 1550WAT  OW    6197   1.040   4.741   1.405
 1550WAT  HW1   6198   0.957   4.705   1.374
 1550WAT  HW2   6199   1.096   4.664   1.417
 1550WAT  MW    6200   1.037   4.726   1.402
 1551WAT  OW    6201   0.048   1.913   1.112
 1551WAT  HW1   6202   0.046   1.941   1.204
 1551WAT  HW2   6203   0.063   1.818   1.117
 1551WAT  MW    6204   0.050   1.904   1.125
 1552WAT  OW    6205   5.501   2.126   4.163
 1552WAT  HW1   6206   5.558   2.200   4.142
 1552WAT  HW2   6207   5.546   2.082   4.236
 1552WAT  MW    6208   5.515   2.130   4.170
 1553WAT  OW    6209   5.953   1.097   4.763
 1553WAT  HW1   6210   5.948   1.179   4.714
 1553WAT  HW2   6211   5.952   1.029   4.695
 1553WAT  MW    6212   5.952   1.099   4.747
 1554WAT  OW    6213   2.225   2.352   5.612
 1554WAT  HW1   6214   2.237   2.398   5.695
 1554WAT  HW2   6215   2.277   2.273   5.621
 1554WAT  MW    6216   2.233   2.348   5.624
 1555WAT  OW    6217   5.094   4.272   5.177
 1555WAT  HW1   6218   5.134   4.211   5.239
 1555WAT  HW2   6219   5.154   4.274   5.103
 1555WAT  MW    6220   5.107   4.265   5.175
 1556WAT  OW    6221   3.846   0.259   1.356
 1556WAT  HW1   6222   3.801   0.291   1.434
 1556WAT  HW2   6223   3.831   0.327   1.290
 1556WAT  MW    6224   3.838   0.272   1.358
 1557WAT  OW    6225   1.999   0.608   1.190
 1557WAT  HW1   6226   2.027   0.576   1.275
 1557WAT  HW2   6227   2.061   0.570   1.128
 1557WAT  MW    6228   2.011   0.599   1.193
 1558WAT  OW    6229   3.244   2.814   3.474
 1558WAT  HW1   6230   3.252   2.872   3.398
 1558WAT  HW2   6231   3.317   2.753   3.465
 1558WAT  MW    6232   3.254   2.813   3.463
 1559WAT  OW    6233   3.142   4.214   6.623
 1559WAT  HW1   6234   3.090   4.285   6.661
 1559WAT  HW2   6235   3.189   4.255   6.551
 1559WAT  MW    6236   3.141   4.229   6.618
 1560WAT  OW    6237   4.989   4.318   0.022
 1560WAT  HW1   6238   4.949   4.403   0.042
 1560WAT  HW2   6239   5.083   4.333   0.034
 1560WAT  MW    6240   4.996   4.331   0.026
 1561WAT  OW    6241   5.645   5.733   5.448
 1561WAT  HW1   6242   5.561   5.739   5.493
 1561WAT  HW2   6243   5.710   5.747   5.517
 1561WAT  MW    6244   5.643   5.735   5.463
 1562WAT  OW    6245   1.181   4.506   4.500
 1562WAT  HW1   6246   1.119   4.538   4.566
 1562WAT  HW2   6247   1.135   4.435   4.456
 1562WAT  MW    6248   1.167   4.501   4.503
 1563WAT  OW    6249   6.522   4.192   2.872
 1563WAT  HW1   6250   6.456   4.247   2.830
 1563WAT  HW2   6251   6.474   4.117   2.907
 1563WAT  MW    6252   6.507   4.190   2.871
 1564WAT  OW    6253   2.960   4.603   3.749
 1564WAT  HW1   6254   3.013   4.524   3.750
 1564WAT  HW2   6255   3.023   4.674   3.757
 1564WAT  MW    6256   2.975   4.602   3.750
 1565WAT  OW    6257   5.394   0.569   1.292
 1565WAT  HW1   6258   5.331   0.626   1.248
 1565WAT  HW2   6259   5.406   0.608   1.379
 1565WAT  MW    6260   5.387   0.582   1.298
 1566WAT  OW    6261   6.368   0.494   1.811
 1566WAT  HW1   6262   6.352   0.547   1.733
 1566WAT  HW2   6263   6.283   0.490   1.855
 1566WAT  MW    6264   6.354   0.500   1.807
 1567WAT  OW    6265   6.534   3.895   2.926
 1567WAT  HW1   6266   6.626   3.899   2.953
 1567WAT  HW2   6267   6.493   3.839   2.991
 1567WAT  MW    6268   6.541   3.888   2.938
 1568WAT  OW    6269   0.694   3.228   2.544
 1568WAT  HW1   6270   0.772   3.225   2.601
 1568WAT  HW2   6271   0.697   3.316   2.505
 1568WAT  MW    6272   0.705   3.239   2.546
 1569WAT  OW    6273   3.912   1.930   0.001
 1569WAT  HW1   6274   3.976   1.907  -0.065
 1569WAT  HW2   6275   3.828   1.927  -0.044
 1569WAT  MW    6276   3.909   1.926  -0.013
 1570WAT  OW    6277   3.826   2.606   6.392
 1570WAT  HW1   6278   3.815   2.568   6.305
 1570WAT  HW2   6279   3.837   2.700   6.376
 1570WAT  MW    6280   3.826   2.614   6.379
 1571WAT  OW    6281   1.240   0.625   6.345
 1571WAT  HW1   6282   1.289   0.544   6.333
 1571WAT  HW2   6283   1.229   0.661   6.257
 1571WAT  MW    6284   1.245   0.619   6.332
 1572WAT  OW    6285   4.741   2.975   6.687
 1572WAT  HW1   6286   4.716   3.012   6.602
 1572WAT  HW2   6287   4.681   3.017   6.749
 1572WAT  MW    6288   4.729   2.986   6.684
 1573WAT  OW    6289   0.052   1.142   1.072
 1573WAT  HW1   6290   0.109   1.080   1.026
 1573WAT  HW2   6291   0.110   1.215   1.094
 1573WAT  MW    6292   0.068   1.143   1.069
 1574WAT  OW    6293   4.466   2.492   4.203
 1574WAT  HW1   6294   4.384   2.449   4.180
 1574WAT  HW2   6295   4.523   2.476   4.128
 1574WAT  MW    6296   4.463   2.484   4.190
 1575WAT  OW    6297   1.065   1.017   6.409
 1575WAT  HW1   6298   1.053   1.112   6.404
 1575WAT  HW2   6299   0.976   0.982   6.403
 1575WAT  MW    6300   1.051   1.025   6.408
 1576WAT  OW    6301   2.595   2.153   5.833
 1576WAT  HW1   6302   2.565   2.206   5.906
 1576WAT  HW2   6303   2.631   2.074   5.874
 1576WAT  MW    6304   2.596   2.149   5.848
 1577WAT  OW    6305   3.403   3.022   6.657
 1577WAT  HW1   6306   3.347   3.062   6.724
 1577WAT  HW2   6307   3.389   3.076   6.579
 1577WAT  MW    6308   3.394   3.035   6.656
 1578WAT  OW    6309   2.015   5.926   3.671
 1578WAT  HW1   6310   1.958   5.951   3.598
 1578WAT  HW2   6311   2.064   5.851   3.639
 1578WAT  MW    6312   2.014   5.919   3.657
 1579WAT  OW    6313   6.236   4.208   2.301
 1579WAT  HW1   6314   6.166   4.271   2.319
 1579WAT  HW2   6315   6.284   4.246   2.228
 1579WAT  MW    6316   6.233   4.221   2.294
 1580WAT  OW    6317   4.381   3.291   6.283
 1580WAT  HW1   6318   4.364   3.338   6.202
 1580WAT  HW2   6319   4.294   3.270   6.317
 1580WAT  MW    6320   4.367   3.295   6.277
 1581WAT  OW    6321   5.269   4.651   5.071
 1581WAT  HW1   6322   5.275   4.701   4.990
 1581WAT  HW2   6323   5.176   4.635   5.083
 1581WAT  MW    6324   5.258   4.656   5.062
 1582WAT  OW    6325   2.500   2.057   0.236
 1582WAT  HW1   6326   2.516   2.002   0.312
 1582WAT  HW2   6327   2.414   2.030   0.203
 1582WAT  MW    6328   2.491   2.046   0.241
 1583WAT  OW    6329   2.896   3.562   4.472
 1583WAT  HW1   6330   2.990   3.547   4.462
 1583WAT  HW2   6331   2.886   3.657   4.470
 1583WAT  MW    6332   2.907   3.573   4.471
 1584WAT  OW    6333   5.947   5.375   0.367
 1584WAT  HW1   6334   5.873   5.421   0.405
 1584WAT  HW2   6335   5.921   5.283   0.368
 1584WAT  MW    6336   5.934   5.369   0.372
 1585WAT  OW    6337   2.359   3.483   3.841
 1585WAT  HW1   6338   2.326   3.403   3.882
 1585WAT  HW2   6339   2.434   3.508   3.895
 1585WAT  MW    6340   2.365   3.476   3.854
 1586WAT  OW    6341   4.397   3.860   2.940
 1586WAT  HW1   6342   4.418   3.943   2.983
 1586WAT  HW2   6343   4.482   3.815   2.932
 1586WAT  MW    6344   4.411   3.865   2.945
 1587WAT  OW    6345   3.378   5.522   4.322
 1587WAT  HW1   6346   3.443   5.564   4.264
 1587WAT  HW2   6347   3.428   5.455   4.368
 1587WAT  MW    6348   3.393   5.519   4.320
 1588WAT  OW    6349   2.055   3.001   6.326
 1588WAT  HW1   6350   1.966   3.034   6.335
 1588WAT  HW2   6351   2.049   2.931   6.261
 1588WAT  MW    6352   2.043   2.996   6.319
 1589WAT  OW    6353   0.743   2.257   3.518
 1589WAT  HW1   6354   0.809   2.198   3.481
 1589WAT  HW2   6355   0.662   2.206   3.516
 1589WAT  MW    6356   0.741   2.243   3.513
 1590WAT  OW    6357   5.178   1.055   1.861
 1590WAT  HW1   6358   5.231   1.050   1.940
 1590WAT  HW2   6359   5.212   0.986   1.804
 1590WAT  MW    6360   5.189   1.045   1.864
 1591WAT  OW    6361   3.463   5.215   5.866
 1591WAT  HW1   6362   3.368   5.207   5.863
 1591WAT  HW2   6363   3.487   5.251   5.780
 1591WAT  MW    6364   3.454   5.219   5.854
 1592WAT  OW    6365   6.329   2.945   0.060
 1592WAT  HW1   6366   6.244   2.990   0.064
 1592WAT  HW2   6367   6.326   2.899  -0.024
 1592WAT  MW    6368   6.317   2.945   0.049
 1593WAT  OW    6369   1.402   5.678   1.957
 1593WAT  HW1   6370   1.406   5.757   1.903
 1593WAT  HW2   6371   1.494   5.655   1.972
 1593WAT  MW    6372   1.415   5.686   1.952
 1594WAT  OW    6373   5.582   5.154   3.260
 1594WAT  HW1   6374   5.577   5.142   3.165
 1594WAT  HW2   6375   5.675   5.171   3.277
 1594WAT  MW    6376   5.594   5.155   3.250
 1595WAT  OW    6377   4.560   3.825   4.518
 1595WAT  HW1   6378   4.647   3.784   4.522
 1595WAT  HW2   6379   4.549   3.865   4.604
 1595WAT  MW    6380   4.570   3.825   4.530
 1596WAT  OW    6381   0.435   3.766   2.657
 1596WAT  HW1   6382   0.401   3.804   2.575
 1596WAT  HW2   6383   0.371   3.792   2.723
 1596WAT  MW    6384   0.422   3.774   2.655
 1597WAT  OW    6385   1.339   4.828   2.055
 1597WAT  HW1   6386   1.325   4.908   2.004
 1597WAT  HW2   6387   1.329   4.856   2.146
 1597WAT  MW    6388   1.336   4.842   2.060
 1598WAT  OW    6389   4.941   4.923   4.936
 1598WAT  HW1   6390   5.015   4.906   4.995
 1598WAT  HW2   6391   4.867   4.879   4.978
 1598WAT  MW    6392   4.941   4.915   4.949
 1599WAT  OW    6393   2.525   3.766   5.049
 1599WAT  HW1   6394   2.448   3.769   5.107
 1599WAT  HW2   6395   2.552   3.675   5.050
 1599WAT  MW    6396   2.518   3.755   5.057
 1600WAT  OW    6397   1.983   3.048   1.612
 1600WAT  HW1   6398   1.919   3.106   1.652
 1600WAT  HW2   6399   2.015   3.096   1.536
 1600WAT  MW    6400   1.979   3.062   1.607
 1601WAT  OW    6401   4.328   6.140   1.143
 1601WAT  HW1   6402   4.422   6.123   1.147
 1601WAT  HW2   6403   4.312   6.203   1.213
 1601WAT  MW    6404   4.338   6.146   1.153
 1602WAT  OW    6405   3.521   5.701   5.901
 1602WAT  HW1   6406   3.573   5.688   5.822
 1602WAT  HW2   6407   3.445   5.644   5.888
 1602WAT  MW    6408   3.518   5.692   5.889
 1603WAT  OW    6409   0.723   3.711   4.973
 1603WAT  HW1   6410   0.745   3.710   4.880
 1603WAT  HW2   6411   0.636   3.751   4.976
 1603WAT  MW    6412   0.714   3.716   4.961
 1604WAT  OW    6413   1.409   4.493   5.103
 1604WAT  HW1   6414   1.407   4.411   5.054
 1604WAT  HW2   6415   1.493   4.533   5.080
 1604WAT  MW    6416   1.420   4.488   5.094
 1605WAT  OW    6417   6.490   3.891   0.740
 1605WAT  HW1   6418   6.539   3.958   0.788
 1605WAT  HW2   6419   6.413   3.937   0.706
 1605WAT  MW    6420   6.486   3.906   0.742
 1606WAT  OW    6421   1.631   3.556   1.216
 1606WAT  HW1   6422   1.721   3.587   1.204
 1606WAT  HW2   6423   1.612   3.571   1.308
 1606WAT  MW    6424   1.641   3.562   1.226
 1607WAT  OW    6425   2.103   1.897   2.122
 1607WAT  HW1   6426   2.092   1.868   2.031
 1607WAT  HW2   6427   2.020   1.939   2.144
 1607WAT  MW    6428   2.091   1.898   2.113
 1608WAT  OW    6429   1.916   3.907   0.309
 1608WAT  HW1   6430   2.005   3.880   0.287
 1608WAT  HW2   6431   1.920   3.932   0.401
 1608WAT  MW    6432   1.928   3.907   0.318
 1609WAT  OW    6433   4.875   0.409   0.221
 1609WAT  HW1   6434   4.875   0.389   0.127
 1609WAT  HW2   6435   4.922   0.337   0.261
 1609WAT  MW    6436   4.881   0.397   0.214
 1610WAT  OW    6437   3.485   5.213   1.837
 1610WAT  HW1   6438   3.466   5.124   1.810
 1610WAT  HW2   6439   3.405   5.262   1.817
 1610WAT  MW    6440   3.472   5.208   1.831
 1611WAT  OW    6441   1.024   5.148   6.265
 1611WAT  HW1   6442   0.937   5.187   6.262
 1611WAT  HW2   6443   1.083   5.215   6.231
 1611WAT  MW    6444   1.020   5.162   6.260
 1612WAT  OW    6445   2.523   3.888   0.252
 1612WAT  HW1   6446   2.512   3.971   0.206
 1612WAT  HW2   6447   2.441   3.875   0.300
 1612WAT  MW    6448   2.511   3.897   0.252
 1613WAT  OW    6449   3.903   4.857   3.199
 1613WAT  HW1   6450   3.855   4.838   3.280
 1613WAT  HW2   6451   3.976   4.795   3.199
 1613WAT  MW    6452   3.906   4.846   3.210
 1614WAT  OW    6453   2.343   4.771   0.429
 1614WAT  HW1   6454   2.313   4.681   0.419
 1614WAT  HW2   6455   2.269   4.824   0.400
 1614WAT  MW    6456   2.330   4.766   0.424
 1615WAT  OW    6457   1.785   1.182   6.185
 1615WAT  HW1   6458   1.758   1.110   6.129
 1615WAT  HW2   6459   1.803   1.142   6.269
 1615WAT  MW    6460   1.784   1.167   6.188
 1616WAT  OW    6461   1.470   4.053   1.496
 1616WAT  HW1   6462   1.413   3.984   1.462
 1616WAT  HW2   6463   1.492   4.024   1.585
 1616WAT  MW    6464   1.465   4.040   1.504
 1617WAT  OW    6465   2.623   2.838   1.781
 1617WAT  HW1   6466   2.657   2.910   1.728
 1617WAT  HW2   6467   2.631   2.869   1.872
 1617WAT  MW    6468   2.628   2.852   1.786
 1618WAT  OW    6469   0.151   2.353   3.744
 1618WAT  HW1   6470   0.140   2.264   3.778
 1618WAT  HW2   6471   0.240   2.354   3.708
 1618WAT  MW    6472   0.162   2.341   3.744
 1619WAT  OW    6473   6.375   4.891   1.543
 1619WAT  HW1   6474   6.460   4.846   1.544
 1619WAT  HW2   6475   6.390   4.969   1.489
 1619WAT  MW    6476   6.388   4.895   1.536
 1620WAT  OW    6477   6.496   1.846   3.966
 1620WAT  HW1   6478   6.476   1.940   3.959
 1620WAT  HW2   6479   6.486   1.826   4.059
 1620WAT  MW    6480   6.492   1.856   3.977
 1621WAT  OW    6481   4.643   3.868   0.063
 1621WAT  HW1   6482   4.600   3.788   0.032
 1621WAT  HW2   6483   4.680   3.907  -0.015
 1621WAT  MW    6484   4.642   3.862   0.048
 1622WAT  OW    6485   5.910   5.210   5.361
 1622WAT  HW1   6486   5.836   5.212   5.422
 1622WAT  HW2   6487   5.967   5.141   5.395
 1622WAT  MW    6488   5.908   5.201   5.373
 1623WAT  OW    6489   5.459   4.755   2.047
 1623WAT  HW1   6490   5.452   4.743   1.953
 1623WAT  HW2   6491   5.535   4.703   2.073
 1623WAT  MW    6492   5.468   4.747   2.038
 1624WAT  OW    6493   2.198   5.478   5.561
 1624WAT  HW1   6494   2.242   5.469   5.476
 1624WAT  HW2   6495   2.113   5.435   5.549
 1624WAT  MW    6496   2.193   5.472   5.548
 1625WAT  OW    6497   5.543   4.797   2.957
 1625WAT  HW1   6498   5.605   4.792   3.030
 1625WAT  HW2   6499   5.593   4.766   2.881
 1625WAT  MW    6500   5.558   4.792   2.957
 1626WAT  OW    6501   0.236   2.084   0.140
 1626WAT  HW1   6502   0.219   2.074   0.046
 1626WAT  HW2   6503   0.329   2.105   0.145
 1626WAT  MW    6504   0.246   2.086   0.128
 1627WAT  OW    6505   3.434   2.499   2.967
 1627WAT  HW1   6506   3.519   2.461   2.946
 1627WAT  HW2   6507   3.372   2.447   2.916
 1627WAT  MW    6508   3.437   2.487   2.957
 1628WAT  OW    6509   4.013   2.649   5.916
 1628WAT  HW1   6510   4.074   2.593   5.869
 1628WAT  HW2   6511   4.025   2.736   5.878
 1628WAT  MW    6512   4.022   2.653   5.905
 1629WAT  OW    6513   2.254   0.887   5.713
 1629WAT  HW1   6514   2.198   0.847   5.647
 1629WAT  HW2   6515   2.204   0.882   5.794
 1629WAT  MW    6516   2.240   0.881   5.715
 1630WAT  OW    6517   2.374   3.185   4.230
 1630WAT  HW1   6518   2.367   3.278   4.250
 1630WAT  HW2   6519   2.302   3.144   4.279
 1630WAT  MW    6520   2.363   3.192   4.239
 1631WAT  OW    6521   2.956   2.294   6.499
 1631WAT  HW1   6522   2.915   2.279   6.413
 1631WAT  HW2   6523   2.884   2.285   6.561
 1631WAT  MW    6524   2.941   2.291   6.496
 1632WAT  OW    6525   3.265   3.574   3.157
 1632WAT  HW1   6526   3.317   3.526   3.092
 1632WAT  HW2   6527   3.322   3.644   3.187
 1632WAT  MW    6528   3.280   3.577   3.152
 1633WAT  OW    6529   1.024   0.295   3.547
 1633WAT  HW1   6530   1.040   0.372   3.492
 1633WAT  HW2   6531   0.992   0.228   3.486
 1633WAT  MW    6532   1.022   0.296   3.532
 1634WAT  OW    6533   6.467   5.650   2.156
 1634WAT  HW1   6534   6.445   5.692   2.074
 1634WAT  HW2   6535   6.383   5.635   2.199
 1634WAT  MW    6536   6.453   5.653   2.151
 1635WAT  OW    6537   5.857   4.070   5.793
 1635WAT  HW1   6538   5.934   4.088   5.740
 1635WAT  HW2   6539   5.802   4.148   5.782
 1635WAT  MW    6540   5.860   4.083   5.785
 1636WAT  OW    6541   2.431   6.436   5.510
 1636WAT  HW1   6542   2.509   6.388   5.536
 1636WAT  HW2   6543   2.464   6.521   5.479
 1636WAT  MW    6544   2.445   6.441   5.509
 1637WAT  OW    6545   5.945   4.335   3.130
 1637WAT  HW1   6546   5.944   4.315   3.223
 1637WAT  HW2   6547   5.902   4.260   3.088
 1637WAT  MW    6548   5.939   4.322   3.137
 1638WAT  OW    6549   0.045   1.478   5.952
 1638WAT  HW1   6550   0.071   1.440   6.036
 1638WAT  HW2   6551   0.020   1.568   5.973
 1638WAT  MW    6552   0.045   1.485   5.966
 1639WAT  OW    6553   3.507   2.420   1.642
 1639WAT  HW1   6554   3.586   2.424   1.588
 1639WAT  HW2   6555   3.524   2.348   1.702
 1639WAT  MW    6556   3.520   2.411   1.643
 1640WAT  OW    6557   3.498   3.326   3.938
 1640WAT  HW1   6558   3.435   3.294   4.002
 1640WAT  HW2   6559   3.494   3.263   3.866
 1640WAT  MW    6560   3.489   3.314   3.937
 1641WAT  OW    6561   2.662   6.630   5.080
 1641WAT  HW1   6562   2.620   6.716   5.089
 1641WAT  HW2   6563   2.732   6.631   5.144
 1641WAT  MW    6564   2.665   6.642   5.089
 1642WAT  OW    6565   1.729   0.707   4.795
 1642WAT  HW1   6566   1.782   0.635   4.827
 1642WAT  HW2   6567   1.779   0.786   4.817
 1642WAT  MW    6568   1.742   0.708   4.802
 1643WAT  OW    6569   1.812   3.586   5.956
 1643WAT  HW1   6570   1.887   3.608   6.011
 1643WAT  HW2   6571   1.782   3.671   5.923
 1643WAT  MW    6572   1.818   3.600   5.959
 1644WAT  OW    6573   1.067   0.389   2.562
 1644WAT  HW1   6574   1.011   0.375   2.639
 1644WAT  HW2   6575   1.005   0.401   2.490
 1644WAT  MW    6576   1.051   0.389   2.563
 1645WAT  OW    6577   4.801   4.466   4.906
 1645WAT  HW1   6578   4.768   4.410   4.977
 1645WAT  HW2   6579   4.722   4.500   4.864
 1645WAT  MW    6580   4.786   4.463   4.910
 1646WAT  OW    6581   6.234   2.711   1.121
 1646WAT  HW1   6582   6.183   2.714   1.040
 1646WAT  HW2   6583   6.324   2.731   1.093
 1646WAT  MW    6584   6.239   2.714   1.107
 1647WAT  OW    6585   4.249   3.033   6.001
 1647WAT  HW1   6586   4.336   3.069   5.982
 1647WAT  HW2   6587   4.253   2.943   5.967
 1647WAT  MW    6588   4.261   3.026   5.994
 1648WAT  OW    6589   1.042   0.638   2.857
 1648WAT  HW1   6590   0.974   0.614   2.795
 1648WAT  HW2   6591   1.052   0.561   2.912
 1648WAT  MW    6592   1.034   0.625   2.856
 1649WAT  OW    6593   2.532   6.390   4.393
 1649WAT  HW1   6594   2.492   6.394   4.480
 1649WAT  HW2   6595   2.461   6.363   4.335
 1649WAT  MW    6596   2.518   6.387   4.397
 1650WAT  OW    6597   3.722   1.560   2.763
 1650WAT  HW1   6598   3.725   1.640   2.710
 1650WAT  HW2   6599   3.662   1.581   2.834
 1650WAT  MW    6600   3.714   1.573   2.765
 1651WAT  OW    6601   4.971   4.033   1.432
 1651WAT  HW1   6602   4.962   3.958   1.491
 1651WAT  HW2   6603   5.021   4.097   1.483
 1651WAT  MW    6604   4.976   4.031   1.447
 1652WAT  OW    6605   0.132   5.650   4.051
 1652WAT  HW1   6606   0.171   5.705   4.119
 1652WAT  HW2   6607   0.079   5.710   3.999
 1652WAT  MW    6608   0.130   5.666   4.053
 1653WAT  OW    6609   0.551   0.497   4.351
 1653WAT  HW1   6610   0.514   0.585   4.359
 1653WAT  HW2   6611   0.490   0.441   4.398
 1653WAT  MW    6612   0.538   0.502   4.358
 1654WAT  OW    6613   1.396   1.824   0.400
 1654WAT  HW1   6614   1.402   1.729   0.391
 1654WAT  HW2   6615   1.318   1.848   0.350
 1654WAT  MW    6616   1.386   1.815   0.392
 1655WAT  OW    6617   1.364   1.552   5.291
 1655WAT  HW1   6618   1.382   1.458   5.284
 1655WAT  HW2   6619   1.307   1.570   5.217
 1655WAT  MW    6620   1.359   1.542   5.280
 1656WAT  OW    6621   3.059   5.373   2.826
 1656WAT  HW1   6622   3.099   5.290   2.850
 1656WAT  HW2   6623   2.990   5.350   2.764
 1656WAT  MW    6624   3.055   5.359   2.821
 1657WAT  OW    6625   4.964   5.137   1.678
 1657WAT  HW1   6626   4.873   5.139   1.648
 1657WAT  HW2   6627   5.002   5.060   1.636
 1657WAT  MW    6628   4.957   5.127   1.669
 1658WAT  OW    6629   6.135   4.958   3.627
 1658WAT  HW1   6630   6.066   5.023   3.642
 1658WAT  HW2   6631   6.144   4.912   3.710
 1658WAT  MW    6632   6.127   4.961   3.640
 1659WAT  OW    6633   4.820   6.668   5.786
 1659WAT  HW1   6634   4.845   6.730   5.719
 1659WAT  HW2   6635   4.874   6.591   5.770
 1659WAT  MW    6636   4.830   6.666   5.775
 1660WAT  OW    6637   3.548   0.337   1.098
 1660WAT  HW1   6638   3.498   0.274   1.150
 1660WAT  HW2   6639   3.611   0.285   1.049
 1660WAT  MW    6640   3.550   0.322   1.099
 1661WAT  OW    6641   6.187   3.303   3.046
 1661WAT  HW1   6642   6.125   3.339   3.110
 1661WAT  HW2   6643   6.273   3.312   3.089
 1661WAT  MW    6644   6.191   3.309   3.060
 1662WAT  OW    6645   0.712   1.451   3.423
 1662WAT  HW1   6646   0.618   1.471   3.416
 1662WAT  HW2   6647   0.755   1.519   3.372
 1662WAT  MW    6648   0.705   1.463   3.415
 1663WAT  OW    6649   2.291   0.481   4.267
 1663WAT  HW1   6650   2.353   0.546   4.299
 1663WAT  HW2   6651   2.328   0.397   4.294
 1663WAT  MW    6652   2.304   0.479   4.275
 1664WAT  OW    6653   6.299   6.380   6.664
 1664WAT  HW1   6654   6.296   6.446   6.733
 1664WAT  HW2   6655   6.207   6.366   6.640
 1664WAT  MW    6656   6.287   6.387   6.670
 1665WAT  OW    6657   1.709   6.342   6.278
 1665WAT  HW1   6658   1.745   6.260   6.311
 1665WAT  HW2   6659   1.647   6.370   6.345
 1665WAT  MW    6660   1.706   6.335   6.291
 1666WAT  OW    6661   6.165   0.534   1.974
 1666WAT  HW1   6662   6.237   0.544   2.036
 1666WAT  HW2   6663   6.126   0.621   1.968
 1666WAT  MW    6664   6.169   0.547   1.981
 1667WAT  OW    6665   2.417   0.206   4.009
 1667WAT  HW1   6666   2.392   0.152   3.934
 1667WAT  HW2   6667   2.408   0.148   4.085
 1667WAT  MW    6668   2.413   0.191   4.009
 1668WAT  OW    6669   1.281   1.401   4.102
 1668WAT  HW1   6670   1.363   1.409   4.151
 1668WAT  HW2   6671   1.226   1.346   4.157
 1668WAT  MW    6672   1.285   1.395   4.116
 1669WAT  OW    6673   3.075   0.789   6.112
 1669WAT  HW1   6674   3.106   0.861   6.057
 1669WAT  HW2   6675   3.119   0.712   6.077
 1669WAT  MW    6676   3.085   0.788   6.100
 1670WAT  OW    6677   0.276   2.656   2.124
 1670WAT  HW1   6678   0.290   2.707   2.204
 1670WAT  HW2   6679   0.363   2.622   2.102
 1670WAT  MW    6680   0.289   2.658   2.132
 1671WAT  OW    6681   3.295   0.103   1.783
 1671WAT  HW1   6682   3.368   0.091   1.844
 1671WAT  HW2   6683   3.231   0.036   1.809
 1671WAT  MW    6684   3.296   0.093   1.795
 1672WAT  OW    6685   4.120   3.395   4.333
 1672WAT  HW1   6686   4.136   3.483   4.369
 1672WAT  HW2   6687   4.154   3.335   4.400
 1672WAT  MW    6688   4.127   3.399   4.347
 1673WAT  OW    6689   2.354   5.365   5.870
 1673WAT  HW1   6690   2.440   5.338   5.902
 1673WAT  HW2   6691   2.300   5.371   5.949
 1673WAT  MW    6692   2.358   5.362   5.885
 1674WAT  OW    6693   2.168   0.320   6.357
 1674WAT  HW1   6694   2.172   0.253   6.426
 1674WAT  HW2   6695   2.253   0.363   6.362
 1674WAT  MW    6696   2.180   0.317   6.367
 1675WAT  OW    6697   5.343   2.826   6.281
 1675WAT  HW1   6698   5.282   2.845   6.352
 1675WAT  HW2   6699   5.377   2.738   6.301
 1675WAT  MW    6700   5.340   2.817   6.293
 1676WAT  OW    6701   0.133   2.368   0.202
 1676WAT  HW1   6702   0.148   2.283   0.160
 1676WAT  HW2   6703   0.161   2.355   0.292
 1676WAT  MW    6704   0.139   2.355   0.208
 1677WAT  OW    6705   3.547   5.313   0.192
 1677WAT  HW1   6706   3.588   5.399   0.193
 1677WAT  HW2   6707   3.538   5.292   0.099
 1677WAT  MW    6708   3.551   5.322   0.180
 1678WAT  OW    6709   4.397   2.045   5.443
 1678WAT  HW1   6710   4.477   1.994   5.447
 1678WAT  HW2   6711   4.403   2.105   5.517
 1678WAT  MW    6712   4.408   2.047   5.453
 1679WAT  OW    6713   5.542   5.321   4.178
 1679WAT  HW1   6714   5.525   5.387   4.246
 1679WAT  HW2   6715   5.631   5.340   4.148
 1679WAT  MW    6716   5.552   5.332   4.183
 1680WAT  OW    6717   4.925   1.212   5.575
 1680WAT  HW1   6718   4.839   1.172   5.557
 1680WAT  HW2   6719   4.975   1.197   5.495
 1680WAT  MW    6720   4.920   1.205   5.562
 1681WAT  OW    6721   0.452   2.378   0.339
 1681WAT  HW1   6722   0.528   2.326   0.314
 1681WAT  HW2   6723   0.390   2.316   0.376
 1681WAT  MW    6724   0.454   2.363   0.340
 1682WAT  OW    6725   3.353   1.951   6.017
 1682WAT  HW1   6726   3.373   2.037   6.054
 1682WAT  HW2   6727   3.413   1.891   6.062
 1682WAT  MW    6728   3.363   1.954   6.028
 1683WAT  OW    6729   3.183   0.636   4.875
 1683WAT  HW1   6730   3.263   0.647   4.823
 1683WAT  HW2   6731   3.113   0.670   4.819
 1683WAT  MW    6732   3.184   0.642   4.861
 1684WAT  OW    6733   0.107   3.916   6.362
 1684WAT  HW1   6734   0.176   3.928   6.297
 1684WAT  HW2   6735   0.087   4.005   6.391
 1684WAT  MW    6736   0.114   3.930   6.357
 1685WAT  OW    6737   4.813   0.488   6.661
 1685WAT  HW1   6738   4.771   0.573   6.650
 1685WAT  HW2   6739   4.842   0.464   6.573
 1685WAT  MW    6740   4.812   0.496   6.648
 1686WAT  OW    6741   6.460   3.185   5.548
 1686WAT  HW1   6742   6.406   3.137   5.611
 1686WAT  HW2   6743   6.402   3.253   5.514
 1686WAT  MW    6744   6.445   3.188   5.552
 1687WAT  OW    6745   6.639   2.731   6.429
 1687WAT  HW1   6746   6.698   2.682   6.487
 1687WAT  HW2   6747   6.618   2.810   6.479
 1687WAT  MW    6748   6.644   2.735   6.443
 1688WAT  OW    6749   1.944   2.786   1.716
 1688WAT  HW1   6750   1.967   2.785   1.809
 1688WAT  HW2   6751   1.953   2.878   1.690
 1688WAT  MW    6752   1.948   2.798   1.724
 1689WAT  OW    6753   3.238   1.552   0.636
 1689WAT  HW1   6754   3.280   1.586   0.715
 1689WAT  HW2   6755   3.192   1.474   0.665
 1689WAT  MW    6756   3.238   1.546   0.650
 1690WAT  OW    6757   3.555   5.814   5.259
 1690WAT  HW1   6758   3.640   5.858   5.256
 1690WAT  HW2   6759   3.550   5.779   5.348
 1690WAT  MW    6760   3.566   5.815   5.271
 1691WAT  OW    6761   0.623   0.664   3.331
 1691WAT  HW1   6762   0.645   0.736   3.390
 1691WAT  HW2   6763   0.683   0.593   3.357
 1691WAT  MW    6764   0.634   0.664   3.343
 1692WAT  OW    6765   1.588   3.775   2.557
 1692WAT  HW1   6766   1.536   3.840   2.509
 1692WAT  HW2   6767   1.538   3.757   2.636
 1692WAT  MW    6768   1.575   3.781   2.561
 1693WAT  OW    6769   0.428   4.389   0.525
 1693WAT  HW1   6770   0.427   4.468   0.580
 1693WAT  HW2   6771   0.368   4.328   0.569
 1693WAT  MW    6772   0.420   4.391   0.538
 1694WAT  OW    6773   0.786   5.935   2.649
 1694WAT  HW1   6774   0.755   6.021   2.676
 1694WAT  HW2   6775   0.816   5.947   2.559
 1694WAT  MW    6776   0.786   5.948   2.640
 1695WAT  OW    6777   3.560   3.878   0.503
 1695WAT  HW1   6778   3.504   3.938   0.454
 1695WAT  HW2   6779   3.511   3.859   0.582
 1695WAT  MW    6780   3.547   3.884   0.507
 1696WAT  OW    6781   6.434   0.478   3.277
 1696WAT  HW1   6782   6.380   0.519   3.209
 1696WAT  HW2   6783   6.396   0.509   3.359
 1696WAT  MW    6784   6.422   0.488   3.279
 1697WAT  OW    6785   2.445   5.089   2.404
 1697WAT  HW1   6786   2.478   5.002   2.386
 1697WAT  HW2   6787   2.482   5.144   2.336
 1697WAT  MW    6788   2.454   5.085   2.393
 1698WAT  OW    6789   1.728   4.013   6.277
 1698WAT  HW1   6790   1.649   3.960   6.286
 1698WAT  HW2   6791   1.726   4.045   6.187
 1698WAT  MW    6792   1.717   4.010   6.267
 1699WAT  OW    6793   3.598   1.279   1.003
 1699WAT  HW1   6794   3.621   1.370   0.988
 1699WAT  HW2   6795   3.584   1.242   0.916
 1699WAT  MW    6796   3.599   1.286   0.989
 1700WAT  OW    6797   5.755   6.196   4.959
 1700WAT  HW1   6798   5.807   6.131   5.005
 1700WAT  HW2   6799   5.770   6.278   5.006
 1700WAT  MW    6800   5.764   6.198   4.971
 1701WAT  OW    6801   1.617   2.355   1.860
 1701WAT  HW1   6802   1.633   2.450   1.859
 1701WAT  HW2   6803   1.524   2.347   1.884
 1701WAT  MW    6804   1.607   2.367   1.863
 1702WAT  OW    6805   0.305   0.232   4.187
 1702WAT  HW1   6806   0.314   0.163   4.252
 1702WAT  HW2   6807   0.227   0.209   4.137
 1702WAT  MW    6808   0.296   0.220   4.189
 1703WAT  OW    6809   2.263   2.934   0.266
 1703WAT  HW1   6810   2.180   2.893   0.289
 1703WAT  HW2   6811   2.302   2.958   0.350
 1703WAT  MW    6812   2.257   2.932   0.280
 1704WAT  OW    6813   0.971   3.755   5.771
 1704WAT  HW1   6814   0.885   3.754   5.729
 1704WAT  HW2   6815   1.029   3.794   5.706
 1704WAT  MW    6816   0.967   3.760   5.757
 1705WAT  OW    6817   1.526   1.375   1.236
 1705WAT  HW1   6818   1.476   1.402   1.159
 1705WAT  HW2   6819   1.604   1.430   1.234
 1705WAT  MW    6820   1.530   1.386   1.225
 1706WAT  OW    6821   0.992   6.648   5.271
 1706WAT  HW1   6822   0.898   6.645   5.290
 1706WAT  HW2   6823   1.015   6.556   5.253
 1706WAT  MW    6824   0.982   6.635   5.271
 1707WAT  OW    6825   4.382   3.277   5.380
 1707WAT  HW1   6826   4.423   3.308   5.299
 1707WAT  HW2   6827   4.422   3.192   5.396
 1707WAT  MW    6828   4.393   3.270   5.372
 1708WAT  OW    6829   0.582   5.404   4.393
 1708WAT  HW1   6830   0.653   5.415   4.330
 1708WAT  HW2   6831   0.549   5.316   4.377
 1708WAT  MW    6832   0.587   5.394   4.383
 1709WAT  OW    6833   0.117   0.688   0.815
 1709WAT  HW1   6834   0.102   0.663   0.723
 1709WAT  HW2   6835   0.094   0.609   0.865
 1709WAT  MW    6836   0.112   0.674   0.809
 1710WAT  OW    6837   3.375   0.333   0.305
 1710WAT  HW1   6838   3.461   0.299   0.330
 1710WAT  HW2   6839   3.346   0.274   0.235
 1710WAT  MW    6840   3.382   0.321   0.300
 1711WAT  OW    6841   1.528   2.647   2.391
 1711WAT  HW1   6842   1.599   2.664   2.453
 1711WAT  HW2   6843   1.481   2.731   2.385
 1711WAT  MW    6844   1.531   2.660   2.398
 1712WAT  OW    6845   3.436   6.166   6.278
 1712WAT  HW1   6846   3.424   6.207   6.363
 1712WAT  HW2   6847   3.531   6.156   6.269
 1712WAT  MW    6848   3.447   6.170   6.288
 1713WAT  OW    6849   3.754   6.660   3.030
 1713WAT  HW1   6850   3.662   6.680   3.050
 1713WAT  HW2   6851   3.760   6.565   3.038
 1713WAT  MW    6852   3.743   6.651   3.034
 1714WAT  OW    6853   2.196   6.239   1.268
 1714WAT  HW1   6854   2.137   6.301   1.225
 1714WAT  HW2   6855   2.184   6.256   1.362
 1714WAT  MW    6856   2.186   6.249   1.275
 1715WAT  OW    6857   2.559   2.256   0.659
 1715WAT  HW1   6858   2.529   2.285   0.572
 1715WAT  HW2   6859   2.588   2.336   0.702
 1715WAT  MW    6860   2.559   2.270   0.653
 1716WAT  OW    6861   5.286   4.709   1.373
 1716WAT  HW1   6862   5.254   4.683   1.287
 1716WAT  HW2   6863   5.251   4.797   1.386
 1716WAT  MW    6864   5.277   4.717   1.363
 1717WAT  OW    6865   4.229   5.373   0.664
 1717WAT  HW1   6866   4.180   5.453   0.682
 1717WAT  HW2   6867   4.216   5.357   0.570
 1717WAT  MW    6868   4.221   5.382   0.654
 1718WAT  OW    6869   6.353   6.013   5.339
 1718WAT  HW1   6870   6.387   5.994   5.427
 1718WAT  HW2   6871   6.280   5.951   5.328
 1718WAT  MW    6872   6.348   6.002   5.349
 1719WAT  OW    6873   3.757   4.088   0.111
 1719WAT  HW1   6874   3.852   4.079   0.103
 1719WAT  HW2   6875   3.745   4.139   0.191
 1719WAT  MW    6876   3.768   4.093   0.120
 1720WAT  OW    6877   4.270   3.855   5.519
 1720WAT  HW1   6878   4.277   3.806   5.437
 1720WAT  HW2   6879   4.308   3.798   5.585
 1720WAT  MW    6880   4.276   3.841   5.517
 1721WAT  OW    6881   0.921   3.532   5.426
 1721WAT  HW1   6882   0.834   3.496   5.410
 1721WAT  HW2   6883   0.926   3.541   5.521
 1721WAT  MW    6884   0.910   3.528   5.436
 1722WAT  OW    6885   2.035   1.593   5.238
 1722WAT  HW1   6886   2.087   1.656   5.189
 1722WAT  HW2   6887   1.982   1.647   5.297
 1722WAT  MW    6888   2.035   1.609   5.240
 1723WAT  OW    6889   4.446   5.387   0.933
 1723WAT  HW1   6890   4.505   5.313   0.949
 1723WAT  HW2   6891   4.358   5.348   0.932
 1723WAT  MW    6892   4.442   5.372   0.935
 1724WAT  OW    6893   6.505   1.188   3.063
 1724WAT  HW1   6894   6.588   1.232   3.077
 1724WAT  HW2   6895   6.506   1.161   2.971
 1724WAT  MW    6896   6.516   1.190   3.053
 1725WAT  OW    6897   0.895   4.323   4.575
 1725WAT  HW1   6898   0.906   4.353   4.665
 1725WAT  HW2   6899   0.935   4.236   4.574
 1725WAT  MW    6900   0.902   4.315   4.587
 1726WAT  OW    6901   4.282   3.594   0.476
 1726WAT  HW1   6902   4.343   3.664   0.502
 1726WAT  HW2   6903   4.337   3.519   0.457
 1726WAT  MW    6904   4.297   3.594   0.477
 1727WAT  OW    6905   5.235   0.358   2.541
 1727WAT  HW1   6906   5.239   0.271   2.502
 1727WAT  HW2   6907   5.305   0.359   2.606
 1727WAT  MW    6908   5.244   0.347   2.544
 1728WAT  OW    6909   0.868   3.519   6.095
 1728WAT  HW1   6910   0.811   3.482   6.027
 1728WAT  HW2   6911   0.819   3.596   6.127
 1728WAT  MW    6912   0.854   3.525   6.090
 1729WAT  OW    6913   4.504   4.292   4.754
 1729WAT  HW1   6914   4.588   4.324   4.720
 1729WAT  HW2   6915   4.513   4.196   4.752
 1729WAT  MW    6916   4.516   4.283   4.749
 1730WAT  OW    6917   4.244   4.464   5.120
 1730WAT  HW1   6918   4.317   4.420   5.077
 1730WAT  HW2   6919   4.167   4.436   5.069
 1730WAT  MW    6920   4.243   4.455   5.107
 1731WAT  OW    6921   3.521   3.413   5.796
 1731WAT  HW1   6922   3.466   3.474   5.846
 1731WAT  HW2   6923   3.466   3.335   5.787
 1731WAT  MW    6924   3.506   3.411   5.801
 1732WAT  OW    6925   5.689   1.789   2.432
 1732WAT  HW1   6926   5.690   1.851   2.359
 1732WAT  HW2   6927   5.781   1.782   2.458
 1732WAT  MW    6928   5.701   1.797   2.425
 1733WAT  OW    6929   5.789   0.335   2.132
 1733WAT  HW1   6930   5.772   0.429   2.123
 1733WAT  HW2   6931   5.730   0.294   2.068
 1733WAT  MW    6932   5.779   0.342   2.122
 1734WAT  OW    6933   0.324   5.356   0.529
 1734WAT  HW1   6934   0.392   5.352   0.596
 1734WAT  HW2   6935   0.255   5.410   0.567
 1734WAT  MW    6936   0.324   5.363   0.543
 1735WAT  OW    6937   1.566   6.035   0.089
 1735WAT  HW1   6938   1.580   5.958   0.144
 1735WAT  HW2   6939   1.648   6.084   0.096
 1735WAT  MW    6940   1.579   6.031   0.097
 1736WAT  OW    6941   0.192   4.568   2.939
 1736WAT  HW1   6942   0.173   4.537   2.850
 1736WAT  HW2   6943   0.285   4.592   2.937
 1736WAT  MW    6944   0.202   4.567   2.927
 1737WAT  OW    6945   4.851   6.394   2.650
 1737WAT  HW1   6946   4.792   6.329   2.610
 1737WAT  HW2   6947   4.817   6.405   2.739
 1737WAT  MW    6948   4.838   6.387   2.657
 1738WAT  OW    6949   5.113   4.910   5.142
 1738WAT  HW1   6950   5.038   4.898   5.199
 1738WAT  HW2   6951   5.189   4.901   5.200
 1738WAT  MW    6952   5.113   4.907   5.157
 1739WAT  OW    6953   5.283   3.880   4.594
 1739WAT  HW1   6954   5.328   3.965   4.599
 1739WAT  HW2   6955   5.302   3.838   4.678
 1739WAT  MW    6956   5.291   3.886   4.606
 1740WAT  OW    6957   1.918   6.676   4.585
 1740WAT  HW1   6958   1.863   6.616   4.534
 1740WAT  HW2   6959   1.921   6.756   4.534
 1740WAT  MW    6960   1.911   6.678   4.572
 1741WAT  OW    6961   3.619   0.940   2.152
 1741WAT  HW1   6962   3.703   0.985   2.146
 1741WAT  HW2   6963   3.559   0.992   2.099
 1741WAT  MW    6964   3.622   0.953   2.144
 1742WAT  OW    6965   4.971   5.070   1.948
 1742WAT  HW1   6966   4.976   5.083   1.853
 1742WAT  HW2   6967   4.877   5.070   1.967
 1742WAT  MW    6968   4.959   5.072   1.938
 1743WAT  OW    6969   2.039   0.571   5.978
 1743WAT  HW1   6970   2.080   0.494   5.937
 1743WAT  HW2   6971   1.981   0.534   6.045
 1743WAT  MW    6972   2.037   0.556   5.981
 1744WAT  OW    6973   3.490   6.449   5.292
 1744WAT  HW1   6974   3.483   6.407   5.206
 1744WAT  HW2   6975   3.518   6.379   5.351
 1744WAT  MW    6976   3.493   6.434   5.288
 1745WAT  OW    6977   0.451   2.748   5.591
 1745WAT  HW1   6978   0.410   2.682   5.536
 1745WAT  HW2   6979   0.457   2.707   5.677
 1745WAT  MW    6980   0.446   2.734   5.595
 1746WAT  OW    6981   4.511   5.453   5.055
 1746WAT  HW1   6982   4.573   5.514   5.015
 1746WAT  HW2   6983   4.428   5.471   5.011
 1746WAT  MW    6984   4.508   5.464   5.044
 1747WAT  OW    6985   2.617   2.034   3.470
 1747WAT  HW1   6986   2.657   1.967   3.525
 1747WAT  HW2   6987   2.621   1.998   3.381
 1747WAT  MW    6988   2.623   2.021   3.465
 1748WAT  OW    6989   4.573   4.645   5.945
 1748WAT  HW1   6990   4.638   4.577   5.961
 1748WAT  HW2   6991   4.524   4.650   6.027
 1748WAT  MW    6992   4.575   4.637   5.958
 1749WAT  OW    6993   6.369   1.022   4.530
 1749WAT  HW1   6994   6.416   1.100   4.558
 1749WAT  HW2   6995   6.423   0.949   4.560
 1749WAT  MW    6996   6.382   1.023   4.538
 1750WAT  OW    6997   2.651   6.317   2.617
 1750WAT  HW1   6998   2.712   6.277   2.679
 1750WAT  HW2   6999   2.679   6.408   2.610
 1750WAT  MW    7000   2.663   6.323   2.624
 1751WAT  OW    7001   6.688   1.224   5.547
 1751WAT  HW1   7002   6.730   1.212   5.462
 1751WAT  HW2   7003   6.741   1.173   5.608
 1751WAT  MW    7004   6.701   1.216   5.544
 1752WAT  OW    7005   3.856   0.107   0.110
 1752WAT  HW1   7006   3.830   0.023   0.074
 1752WAT  HW2   7007   3.776   0.160   0.106
 1752WAT  MW    7008   3.842   0.103   0.105
 1753WAT  OW    7009   3.794   5.379   6.031
 1753WAT  HW1   7010   3.878   5.406   6.067
 1753WAT  HW2   7011   3.744   5.460   6.022
 1753WAT  MW    7012   3.798   5.393   6.034
 1754WAT  OW    7013   5.789   4.468   3.631
 1754WAT  HW1   7014   5.795   4.399   3.696
 1754WAT  HW2   7015   5.738   4.537   3.673
 1754WAT  MW    7016   5.783   4.468   3.645
 1755WAT  OW    7017   5.058   2.758   2.428
 1755WAT  HW1   7018   4.997   2.748   2.501
 1755WAT  HW2   7019   5.140   2.784   2.469
 1755WAT  MW    7020   5.061   2.760   2.443
 1756WAT  OW    7021   0.504   4.749   4.420
 1756WAT  HW1   7022   0.593   4.753   4.454
 1756WAT  HW2   7023   0.514   4.762   4.326
 1756WAT  MW    7024   0.517   4.751   4.412
 1757WAT  OW    7025   1.462   4.410   6.601
 1757WAT  HW1   7026   1.379   4.428   6.645
 1757WAT  HW2   7027   1.528   4.419   6.670
 1757WAT  MW    7028   1.460   4.414   6.616
 1758WAT  OW    7029   6.097   5.073   2.674
 1758WAT  HW1   7030   6.151   5.142   2.636
 1758WAT  HW2   7031   6.156   5.027   2.734
 1758WAT  MW    7032   6.112   5.076   2.677
 1759WAT  OW    7033   5.163   0.253   5.130
 1759WAT  HW1   7034   5.175   0.243   5.225
 1759WAT  HW2   7035   5.247   0.228   5.093
 1759WAT  MW    7036   5.175   0.248   5.138
 1760WAT  OW    7037   5.021   4.603   0.829
 1760WAT  HW1   7038   5.103   4.559   0.851
 1760WAT  HW2   7039   5.024   4.612   0.734
 1760WAT  MW    7040   5.033   4.598   0.819
 1761WAT  OW    7041   5.970   0.516   5.161
 1761WAT  HW1   7042   5.911   0.542   5.090
 1761WAT  HW2   7043   6.042   0.579   5.156
 1761WAT  MW    7044   5.972   0.528   5.151
 1762WAT  OW    7045   3.043   6.591   4.337
 1762WAT  HW1   7046   3.033   6.515   4.395
 1762WAT  HW2   7047   3.036   6.554   4.249
 1762WAT  MW    7048   3.041   6.576   4.333
 1763WAT  OW    7049   6.663   1.048   2.020
 1763WAT  HW1   7050   6.613   1.113   1.970
 1763WAT  HW2   7051   6.712   1.099   2.084
 1763WAT  MW    7052   6.663   1.063   2.022
 1764WAT  OW    7053   0.732   2.739   5.212
 1764WAT  HW1   7054   0.820   2.773   5.230
 1764WAT  HW2   7055   0.709   2.775   5.126
 1764WAT  MW    7056   0.741   2.748   5.203
 1765WAT  OW    7057   0.193   0.396   6.052
 1765WAT  HW1   7058   0.214   0.319   6.001
 1765WAT  HW2   7059   0.190   0.468   5.988
 1765WAT  MW    7060   0.195   0.396   6.037
 1766WAT  OW    7061   1.883   5.725   4.928
 1766WAT  HW1   7062   1.823   5.698   4.998
 1766WAT  HW2   7063   1.866   5.819   4.918
 1766WAT  MW    7064   1.873   5.734   4.936
 1767WAT  OW    7065   6.401   4.578   3.963
 1767WAT  HW1   7066   6.420   4.485   3.972
 1767WAT  HW2   7067   6.421   4.599   3.872
 1767WAT  MW    7068   6.406   4.569   3.952
 1768WAT  OW    7069   5.709   4.820   6.111
 1768WAT  HW1   7070   5.729   4.899   6.061
 1768WAT  HW2   7071   5.744   4.838   6.199
 1768WAT  MW    7072   5.716   4.833   6.116
 1769WAT  OW    7073   1.899   1.997   1.677
 1769WAT  HW1   7074   1.953   1.990   1.756
 1769WAT  HW2   7075   1.831   1.930   1.690
 1769WAT  MW    7076   1.897   1.987   1.689
 1770WAT  OW    7077   5.295   3.102   2.442
 1770WAT  HW1   7078   5.301   3.052   2.360
 1770WAT  HW2   7079   5.268   3.037   2.507
 1770WAT  MW    7080   5.292   3.087   2.440
 1771WAT  OW    7081   5.864   1.873   0.137
 1771WAT  HW1   7082   5.935   1.810   0.123
 1771WAT  HW2   7083   5.871   1.934   0.063
 1771WAT  MW    7084   5.875   1.873   0.125
 1772WAT  OW    7085   6.498   5.576   0.884
 1772WAT  HW1   7086   6.532   5.488   0.898
 1772WAT  HW2   7087   6.420   5.581   0.941
 1772WAT  MW    7088   6.492   5.565   0.894
 1773WAT  OW    7089   2.031   1.931   0.601
 1773WAT  HW1   7090   2.049   2.015   0.559
 1773WAT  HW2   7091   2.111   1.880   0.588
 1773WAT  MW    7092   2.044   1.936   0.594
 1774WAT  OW    7093   0.164   1.051   3.663
 1774WAT  HW1   7094   0.133   1.125   3.715
 1774WAT  HW2   7095   0.182   0.983   3.726
 1774WAT  MW    7096   0.162   1.052   3.678
 1775WAT  OW    7097   0.579   1.797   3.927
 1775WAT  HW1   7098   0.537   1.727   3.977
 1775WAT  HW2   7099   0.666   1.761   3.905
 1775WAT  MW    7100   0.585   1.783   3.930
 1776WAT  OW    7101   0.113   2.294   4.395
 1776WAT  HW1   7102   0.022   2.268   4.403
 1776WAT  HW2   7103   0.119   2.376   4.444
 1776WAT  MW    7104   0.102   2.302   4.403
 1777WAT  OW    7105   2.795   5.755   1.720
 1777WAT  HW1   7106   2.814   5.763   1.813
 1777WAT  HW2   7107   2.732   5.824   1.702
 1777WAT  MW    7108   2.789   5.765   1.730
 1778WAT  OW    7109   6.662   5.809   3.897
 1778WAT  HW1   7110   6.693   5.889   3.854
 1778WAT  HW2   7111   6.642   5.749   3.826
 1778WAT  MW    7112   6.664   5.812   3.882
 1779WAT  OW    7113   5.654   5.695   2.270
 1779WAT  HW1   7114   5.714   5.628   2.237
 1779WAT  HW2   7115   5.662   5.690   2.365
 1779WAT  MW    7116   5.663   5.686   2.278
 1780WAT  OW    7117   2.882   0.027   4.878
 1780WAT  HW1   7118   2.851   0.109   4.917
 1780WAT  HW2   7119   2.948  -0.005   4.939
 1780WAT  MW    7120   2.887   0.033   4.891
 1781WAT  OW    7121   3.521   2.710   0.243
 1781WAT  HW1   7122   3.589   2.645   0.224
 1781WAT  HW2   7123   3.557   2.761   0.316
 1781WAT  MW    7124   3.535   2.709   0.250
 1782WAT  OW    7125   1.071   5.132   0.052
 1782WAT  HW1   7126   1.153   5.138   0.003
 1782WAT  HW2   7127   1.059   5.038   0.068
 1782WAT  MW    7128   1.080   5.120   0.048
 1783WAT  OW    7129   5.483   4.229   2.451
 1783WAT  HW1   7130   5.452   4.319   2.440
 1783WAT  HW2   7131   5.407   4.175   2.428
 1783WAT  MW    7132   5.469   4.234   2.446
 1784WAT  OW    7133   0.394   6.581   3.226
 1784WAT  HW1   7134   0.406   6.510   3.163
 1784WAT  HW2   7135   0.345   6.541   3.298
 1784WAT  MW    7136   0.389   6.566   3.227
 1785WAT  OW    7137   3.678   0.369   1.552
 1785WAT  HW1   7138   3.682   0.337   1.642
 1785WAT  HW2   7139   3.585   0.364   1.529
 1785WAT  MW    7140   3.666   0.364   1.561
 1786WAT  OW    7141   4.182   4.912   5.252
 1786WAT  HW1   7142   4.255   4.855   5.230
 1786WAT  HW2   7143   4.131   4.862   5.315
 1786WAT  MW    7144   4.185   4.898   5.257
 1787WAT  OW    7145   2.695   6.560   1.834
 1787WAT  HW1   7146   2.761   6.505   1.793
 1787WAT  HW2   7147   2.637   6.586   1.763
 1787WAT  MW    7148   2.696   6.556   1.819
 1788WAT  OW    7149   3.146   4.217   5.156
 1788WAT  HW1   7150   3.077   4.177   5.209
 1788WAT  HW2   7151   3.115   4.207   5.065
 1788WAT  MW    7152   3.133   4.210   5.151
 1789WAT  OW    7153   1.893   4.942   3.552
 1789WAT  HW1   7154   1.914   4.890   3.475
 1789WAT  HW2   7155   1.940   5.024   3.539
 1789WAT  MW    7156   1.902   4.946   3.540
 1790WAT  OW    7157   1.667   6.194   3.493
 1790WAT  HW1   7158   1.740   6.185   3.555
 1790WAT  HW2   7159   1.635   6.104   3.480
 1790WAT  MW    7160   1.673   6.181   3.499
 1791WAT  OW    7161   0.999   4.714   3.170
 1791WAT  HW1   7162   1.072   4.652   3.163
 1791WAT  HW2   7163   1.036   4.798   3.147
 1791WAT  MW    7164   1.013   4.717   3.166
 1792WAT  OW    7165   4.240   0.339   0.264
 1792WAT  HW1   7166   4.291   0.420   0.254
 1792WAT  HW2   7167   4.189   0.333   0.183
 1792WAT  MW    7168   4.240   0.349   0.252
 1793WAT  OW    7169   2.493   4.850   3.157
 1793WAT  HW1   7170   2.466   4.937   3.128
 1793WAT  HW2   7171   2.491   4.855   3.253
 1793WAT  MW    7172   2.490   4.862   3.166
 1794WAT  OW    7173   1.853   4.752   1.934
 1794WAT  HW1   7174   1.894   4.666   1.923
 1794WAT  HW2   7175   1.773   4.734   1.983
 1794WAT  MW    7176   1.848   4.738   1.939
 1795WAT  OW    7177   4.725   1.727   3.507
 1795WAT  HW1   7178   4.740   1.657   3.570
 1795WAT  HW2   7179   4.793   1.715   3.441
 1795WAT  MW    7180   4.736   1.716   3.506
 1796WAT  OW    7181   5.990   3.689   1.196
 1796WAT  HW1   7182   5.934   3.637   1.254
 1796WAT  HW2   7183   5.938   3.700   1.116
 1796WAT  MW    7184   5.976   3.684   1.193
 1797WAT  OW    7185   4.086   2.535   6.366
 1797WAT  HW1   7186   4.151   2.558   6.432
 1797WAT  HW2   7187   4.004   2.573   6.398
 1797WAT  MW    7188   4.084   2.543   6.379
 1798WAT  OW    7189   0.201   3.295   0.581
 1798WAT  HW1   7190   0.260   3.347   0.636
 1798WAT  HW2   7191   0.259   3.237   0.532
 1798WAT  MW    7192   0.217   3.294   0.582
 1799WAT  OW    7193   5.905   4.606   0.310
 1799WAT  HW1   7194   5.862   4.589   0.226
 1799WAT  HW2   7195   5.966   4.534   0.322
 1799WAT  MW    7196   5.907   4.594   0.301
 1800WAT  OW    7197   1.899   4.403   4.026
 1800WAT  HW1   7198   1.959   4.465   4.066
 1800WAT  HW2   7199   1.893   4.331   4.089
 1800WAT  MW    7200   1.906   4.401   4.040
 1801WAT  OW    7201   0.942   5.841   4.254
 1801WAT  HW1   7202   0.942   5.772   4.321
 1801WAT  HW2   7203   1.013   5.817   4.196
 1801WAT  MW    7204   0.951   5.828   4.255
 1802WAT  OW    7205   2.466   1.214   3.024
 1802WAT  HW1   7206   2.553   1.243   2.994
 1802WAT  HW2   7207   2.411   1.291   3.014
 1802WAT  MW    7208   2.470   1.228   3.019
 1803WAT  OW    7209   1.381   4.833   2.988
 1803WAT  HW1   7210   1.369   4.817   2.895
 1803WAT  HW2   7211   1.401   4.927   2.994
 1803WAT  MW    7212   1.382   4.843   2.977
 1804WAT  OW    7213   6.688   1.265   2.433
 1804WAT  HW1   7214   6.753   1.310   2.486
 1804WAT  HW2   7215   6.732   1.186   2.401
 1804WAT  MW    7216   6.702   1.260   2.436
 1805WAT  OW    7217   4.826   0.930   6.427
 1805WAT  HW1   7218   4.743   0.895   6.459
 1805WAT  HW2   7219   4.887   0.918   6.500
 1805WAT  MW    7220   4.823   0.924   6.441
 1806WAT  OW    7221   0.743   6.028   3.023
 1806WAT  HW1   7222   0.838   6.013   3.020
 1806WAT  HW2   7223   0.730   6.108   2.972
 1806WAT  MW    7224   0.754   6.036   3.016
 1807WAT  OW    7225   5.009   4.042   5.959
 1807WAT  HW1   7226   4.989   4.134   5.971
 1807WAT  HW2   7227   5.096   4.041   5.920
 1807WAT  MW    7228   5.018   4.054   5.955
 1808WAT  OW    7229   0.449   1.625   4.851
 1808WAT  HW1   7230   0.386   1.694   4.832
 1808WAT  HW2   7231   0.395   1.549   4.875
 1808WAT  MW    7232   0.434   1.624   4.852
 1809WAT  OW    7233   2.149   4.617   6.426
 1809WAT  HW1   7234   2.193   4.656   6.501
 1809WAT  HW2   7235   2.108   4.691   6.381
 1809WAT  MW    7236   2.149   4.632   6.430
 1810WAT  OW    7237   2.192   6.528   5.550
 1810WAT  HW1   7238   2.277   6.483   5.552
 1810WAT  HW2   7239   2.214   6.621   5.560
 1810WAT  MW    7240   2.206   6.534   5.552
 1811WAT  OW    7241   6.661   4.481   3.274
 1811WAT  HW1   7242   6.711   4.554   3.311
 1811WAT  HW2   7243   6.682   4.482   3.181
 1811WAT  MW    7244   6.670   4.491   3.267
 1812WAT  OW    7245   0.658   4.056   5.972
 1812WAT  HW1   7246   0.637   4.063   6.065
 1812WAT  HW2   7247   0.588   4.002   5.936
 1812WAT  MW    7248   0.646   4.049   5.980
 1813WAT  OW    7249   3.566   1.747   6.117
 1813WAT  HW1   7250   3.546   1.746   6.211
 1813WAT  HW2   7251   3.527   1.666   6.084
 1813WAT  MW    7252   3.558   1.736   6.125
 1814WAT  OW    7253   4.218   2.819   2.966
 1814WAT  HW1   7254   4.273   2.847   3.039
 1814WAT  HW2   7255   4.129   2.841   2.993
 1814WAT  MW    7256   4.214   2.826   2.979
 1815WAT  OW    7257   5.698   2.641   2.761
 1815WAT  HW1   7258   5.737   2.726   2.739
 1815WAT  HW2   7259   5.648   2.658   2.841
 1815WAT  MW    7260   5.697   2.654   2.769
 1816WAT  OW    7261   2.370   3.474   2.498
 1816WAT  HW1   7262   2.304   3.431   2.554
 1816WAT  HW2   7263   2.343   3.566   2.497
 1816WAT  MW    7264   2.358   3.480   2.506
 1817WAT  OW    7265   3.432   4.312   4.379
 1817WAT  HW1   7266   3.432   4.378   4.448
 1817WAT  HW2   7267   3.417   4.362   4.298
 1817WAT  MW    7268   3.430   4.328   4.377
 1818WAT  OW    7269   0.706   2.370   5.020
 1818WAT  HW1   7270   0.650   2.378   5.097
 1818WAT  HW2   7271   0.658   2.413   4.950
 1818WAT  MW    7272   0.692   2.377   5.021
 1819WAT  OW    7273   3.909   4.745   1.501
 1819WAT  HW1   7274   3.829   4.736   1.552
 1819WAT  HW2   7275   3.961   4.809   1.550
 1819WAT  MW    7276   3.906   4.752   1.514
 1820WAT  OW    7277   2.304   0.915   1.889
 1820WAT  HW1   7278   2.374   0.853   1.870
 1820WAT  HW2   7279   2.299   0.970   1.811
 1820WAT  MW    7280   2.312   0.914   1.876
 1821WAT  OW    7281   3.112   2.089   2.013
 1821WAT  HW1   7282   3.090   2.000   1.986
 1821WAT  HW2   7283   3.195   2.108   1.969
 1821WAT  MW    7284   3.120   2.079   2.004
 1822WAT  OW    7285   4.037   4.671   2.250
 1822WAT  HW1   7286   4.096   4.664   2.325
 1822WAT  HW2   7287   4.029   4.765   2.234
 1822WAT  MW    7288   4.044   4.682   2.257
 1823WAT  OW    7289   0.397   1.905   2.181
 1823WAT  HW1   7290   0.330   1.882   2.245
 1823WAT  HW2   7291   0.475   1.923   2.234
 1823WAT  MW    7292   0.398   1.904   2.197
 1824WAT  OW    7293   0.220   5.273   2.333
 1824WAT  HW1   7294   0.314   5.292   2.328
 1824WAT  HW2   7295   0.187   5.335   2.398
 1824WAT  MW    7296   0.228   5.284   2.341
 1825WAT  OW    7297   1.951   1.294   3.560
 1825WAT  HW1   7298   1.888   1.326   3.624
 1825WAT  HW2   7299   1.963   1.202   3.583
 1825WAT  MW    7300   1.944   1.286   3.571
 1826WAT  OW    7301   4.941   6.467   0.806
 1826WAT  HW1   7302   4.889   6.476   0.726
 1826WAT  HW2   7303   4.884   6.497   0.876
 1826WAT  MW    7304   4.927   6.472   0.805
 1827WAT  OW    7305   1.540   1.412   0.576
 1827WAT  HW1   7306   1.469   1.403   0.640
 1827WAT  HW2   7307   1.570   1.503   0.587
 1827WAT  MW    7308   1.535   1.423   0.586
 1828WAT  OW    7309   6.478   1.348   0.658
 1828WAT  HW1   7310   6.400   1.360   0.713
 1828WAT  HW2   7311   6.470   1.416   0.591
 1828WAT  MW    7312   6.467   1.359   0.657
 1829WAT  OW    7313   1.738   5.921   4.235
 1829WAT  HW1   7314   1.660   5.899   4.183
 1829WAT  HW2   7315   1.708   5.919   4.326
 1829WAT  MW    7316   1.724   5.918   4.240
 1830WAT  OW    7317   2.714   2.111   3.910
 1830WAT  HW1   7318   2.714   2.109   4.005
 1830WAT  HW2   7319   2.712   2.205   3.888
 1830WAT  MW    7320   2.714   2.123   3.919
 1831WAT  OW    7321   1.147   0.890   1.222
 1831WAT  HW1   7322   1.060   0.905   1.260
 1831WAT  HW2   7323   1.203   0.876   1.298
 1831WAT  MW    7324   1.143   0.890   1.237
 1832WAT  OW    7325   4.104   2.034   2.326
 1832WAT  HW1   7326   4.030   2.042   2.265
 1832WAT  HW2   7327   4.181   2.035   2.270
 1832WAT  MW    7328   4.104   2.035   2.310
 1833WAT  OW    7329   5.982   3.501   6.271
 1833WAT  HW1   7330   6.038   3.511   6.348
 1833WAT  HW2   7331   6.024   3.555   6.203
 1833WAT  MW    7332   5.995   3.509   6.272
 1834WAT  OW    7333   0.333   0.263   0.679
 1834WAT  HW1   7334   0.424   0.238   0.666
 1834WAT  HW2   7335   0.283   0.197   0.630
 1834WAT  MW    7336   0.338   0.251   0.671
 1835WAT  OW    7337   0.619   3.534   1.131
 1835WAT  HW1   7338   0.542   3.531   1.187
 1835WAT  HW2   7339   0.693   3.534   1.193
 1835WAT  MW    7340   0.619   3.534   1.147
 1836WAT  OW    7341   4.637   3.756   5.098
 1836WAT  HW1   7342   4.667   3.687   5.039
 1836WAT  HW2   7343   4.656   3.838   5.052
 1836WAT  MW    7344   4.643   3.758   5.084
 1837WAT  OW    7345   5.860   1.487   4.451
 1837WAT  HW1   7346   5.805   1.413   4.425
 1837WAT  HW2   7347   5.840   1.499   4.544
 1837WAT  MW    7348   5.850   1.478   4.460
 1838WAT  OW    7349   2.543   6.432   5.229
 1838WAT  HW1   7350   2.591   6.511   5.205
 1838WAT  HW2   7351   2.562   6.419   5.322
 1838WAT  MW    7352   2.552   6.440   5.238
 1839WAT  OW    7353   0.388   3.614   2.967
 1839WAT  HW1   7354   0.454   3.605   2.899
 1839WAT  HW2   7355   0.397   3.535   3.021
 1839WAT  MW    7356   0.398   3.603   2.965
 1840WAT  OW    7357   5.886   0.869   0.615
 1840WAT  HW1   7358   5.879   0.790   0.561
 1840WAT  HW2   7359   5.929   0.933   0.558
 1840WAT  MW    7360   5.891   0.867   0.600
 1841WAT  OW    7361   6.579   2.286   0.648
 1841WAT  HW1   7362   6.516   2.232   0.601
 1841WAT  HW2   7363   6.648   2.225   0.674
 1841WAT  MW    7364   6.580   2.271   0.646
 1842WAT  OW    7365   4.278   4.354   4.555
 1842WAT  HW1   7366   4.340   4.324   4.621
 1842WAT  HW2   7367   4.288   4.291   4.483
 1842WAT  MW    7368   4.287   4.341   4.554
 1843WAT  OW    7369   6.552   2.352   1.940
 1843WAT  HW1   7370   6.518   2.272   1.981
 1843WAT  HW2   7371   6.551   2.417   2.010
 1843WAT  MW    7372   6.547   2.350   1.954
 1844WAT  OW    7373   5.105   0.556   0.983
 1844WAT  HW1   7374   5.054   0.500   0.924
 1844WAT  HW2   7375   5.055   0.638   0.987
 1844WAT  MW    7376   5.091   0.560   0.976
 1845WAT  OW    7377   1.525   2.131   2.547
 1845WAT  HW1   7378   1.508   2.038   2.561
 1845WAT  HW2   7379   1.613   2.134   2.510
 1845WAT  MW    7380   1.535   2.119   2.544
 1846WAT  OW    7381   3.807   4.434   5.271
 1846WAT  HW1   7382   3.875   4.438   5.204
 1846WAT  HW2   7383   3.729   4.403   5.225
 1846WAT  MW    7384   3.806   4.430   5.256
 1847WAT  OW    7385   0.983   0.452   6.396
 1847WAT  HW1   7386   0.977   0.487   6.485
 1847WAT  HW2   7387   1.076   0.434   6.384
 1847WAT  MW    7388   0.994   0.454   6.407
 1848WAT  OW    7389   4.609   4.828   5.522
 1848WAT  HW1   7390   4.653   4.832   5.606
 1848WAT  HW2   7391   4.672   4.862   5.459
 1848WAT  MW    7392   4.623   4.833   5.525
 1849WAT  OW    7393   2.703   6.366   3.591
 1849WAT  HW1   7394   2.649   6.421   3.534
 1849WAT  HW2   7395   2.721   6.420   3.667
 1849WAT  MW    7396   2.698   6.380   3.593
 1850WAT  OW    7397   2.722   3.739   0.145
 1850WAT  HW1   7398   2.720   3.799   0.070
 1850WAT  HW2   7399   2.640   3.758   0.192
 1850WAT  MW    7400   2.711   3.749   0.141
 1851WAT  OW    7401   3.532   5.530   3.402
 1851WAT  HW1   7402   3.563   5.506   3.489
 1851WAT  HW2   7403   3.611   5.558   3.355
 1851WAT  MW    7404   3.547   5.531   3.407
 1852WAT  OW    7405   1.053   3.434   0.036
 1852WAT  HW1   7406   1.010   3.427   0.121
 1852WAT  HW2   7407   1.077   3.526   0.029
 1852WAT  MW    7408   1.050   3.445   0.046
 1853WAT  OW    7409   3.166   3.487   6.347
 1853WAT  HW1   7410   3.230   3.546   6.386
 1853WAT  HW2   7411   3.082   3.530   6.361
 1853WAT  MW    7412   3.164   3.501   6.354
 1854WAT  OW    7413   1.736   5.514   0.661
 1854WAT  HW1   7414   1.657   5.486   0.615
 1854WAT  HW2   7415   1.718   5.603   0.690
 1854WAT  MW    7416   1.723   5.522   0.659
 1855WAT  OW    7417   0.876   3.649   6.406
 1855WAT  HW1   7418   0.945   3.582   6.411
 1855WAT  HW2   7419   0.807   3.616   6.463
 1855WAT  MW    7420   0.876   3.636   6.414
 1856WAT  OW    7421   5.841   0.526   1.877
 1856WAT  HW1   7422   5.789   0.453   1.843
 1856WAT  HW2   7423   5.783   0.602   1.871
 1856WAT  MW    7424   5.827   0.527   1.872
 1857WAT  OW    7425   0.900   0.092   0.764
 1857WAT  HW1   7426   0.951   0.103   0.684
 1857WAT  HW2   7427   0.879  -0.001   0.767
 1857WAT  MW    7428   0.904   0.081   0.754
 1858WAT  OW    7429   2.660   0.220   0.121
 1858WAT  HW1   7430   2.702   0.306   0.129
 1858WAT  HW2   7431   2.662   0.184   0.210
 1858WAT  MW    7432   2.666   0.226   0.134
 1859WAT  OW    7433   2.444   0.698   4.366
 1859WAT  HW1   7434   2.495   0.758   4.312
 1859WAT  HW2   7435   2.396   0.754   4.426
 1859WAT  MW    7436   2.445   0.713   4.367
 1860WAT  OW    7437   6.341   0.311   4.212
 1860WAT  HW1   7438   6.403   0.283   4.279
 1860WAT  HW2   7439   6.323   0.403   4.232
 1860WAT  MW    7440   6.347   0.320   4.223
 1861WAT  OW    7441   4.986   3.902   2.134
 1861WAT  HW1   7442   4.955   3.977   2.184
 1861WAT  HW2   7443   4.948   3.826   2.178
 1861WAT  MW    7444   4.977   3.902   2.147
 1862WAT  OW    7445   3.797   0.996   5.772
 1862WAT  HW1   7446   3.882   1.013   5.730
 1862WAT  HW2   7447   3.733   1.040   5.716
 1862WAT  MW    7448   3.800   1.004   5.759
 1863WAT  OW    7449   0.268   3.925   4.886
 1863WAT  HW1   7450   0.234   3.851   4.937
 1863WAT  HW2   7451   0.308   3.983   4.950
 1863WAT  MW    7452   0.269   3.923   4.901
 1864WAT  OW    7453   6.502   4.802   5.260
 1864WAT  HW1   7454   6.579   4.856   5.246
 1864WAT  HW2   7455   6.504   4.739   5.187
 1864WAT  MW    7456   6.512   4.800   5.248
 1865WAT  OW    7457   0.439   3.087   0.579
 1865WAT  HW1   7458   0.509   3.028   0.608
 1865WAT  HW2   7459   0.365   3.028   0.561
 1865WAT  MW    7460   0.438   3.071   0.580
 1866WAT  OW    7461   3.780   3.275   4.118
 1866WAT  HW1   7462   3.699   3.281   4.066
 1866WAT  HW2   7463   3.850   3.287   4.054
 1866WAT  MW    7464   3.778   3.277   4.103
 1867WAT  OW    7465   1.547   2.475   0.159
 1867WAT  HW1   7466   1.576   2.384   0.167
 1867WAT  HW2   7467   1.545   2.491   0.064
 1867WAT  MW    7468   1.551   2.465   0.147
 1868WAT  OW    7469   1.379   3.465   2.085
 1868WAT  HW1   7470   1.437   3.390   2.069
 1868WAT  HW2   7471   1.438   3.539   2.096
 1868WAT  MW    7472   1.394   3.465   2.084
 1869WAT  OW    7473   0.623   4.627   0.956
 1869WAT  HW1   7474   0.535   4.632   0.994
 1869WAT  HW2   7475   0.667   4.707   0.985
 1869WAT  MW    7476   0.617   4.638   0.965
 1870WAT  OW    7477   6.357   2.642   0.400
 1870WAT  HW1   7478   6.282   2.633   0.459
 1870WAT  HW2   7479   6.351   2.733   0.368
 1870WAT  MW    7480   6.346   2.653   0.403
 1871WAT  OW    7481   1.564   4.189   3.168
 1871WAT  HW1   7482   1.489   4.222   3.218
 1871WAT  HW2   7483   1.536   4.104   3.134
 1871WAT  MW    7484   1.550   4.182   3.170
 1872WAT  OW    7485   4.612   4.661   1.197
 1872WAT  HW1   7486   4.590   4.728   1.132
 1872WAT  HW2   7487   4.537   4.602   1.197
 1872WAT  MW    7488   4.599   4.662   1.188
 1873WAT  OW    7489   0.129   5.955   0.862
 1873WAT  HW1   7490   0.065   5.887   0.882
 1873WAT  HW2   7491   0.207   5.932   0.913
 1873WAT  MW    7492   0.131   5.943   0.872
 1874WAT  OW    7493   1.688   2.768   4.027
 1874WAT  HW1   7494   1.624   2.710   3.987
 1874WAT  HW2   7495   1.749   2.710   4.072
 1874WAT  MW    7496   1.688   2.753   4.027
 1875WAT  OW    7497   2.978   0.050   0.311
 1875WAT  HW1   7498   3.072   0.040   0.323
 1875WAT  HW2   7499   2.954   0.124   0.367
 1875WAT  MW    7500   2.987   0.058   0.320
 1876WAT  OW    7501   1.844   4.189   3.198
 1876WAT  HW1   7502   1.867   4.105   3.237
 1876WAT  HW2   7503   1.749   4.188   3.192
 1876WAT  MW    7504   1.835   4.178   3.202
 1877WAT  OW    7505   4.556   6.594   5.456
 1877WAT  HW1   7506   4.494   6.531   5.419
 1877WAT  HW2   7507   4.633   6.541   5.478
 1877WAT  MW    7508   4.558   6.579   5.454
 1878WAT  OW    7509   4.638   0.659   2.106
 1878WAT  HW1   7510   4.614   0.658   2.199
 1878WAT  HW2   7511   4.584   0.729   2.068
 1878WAT  MW    7512   4.628   0.669   2.113
 1879WAT  OW    7513   6.426   5.285   4.082
 1879WAT  HW1   7514   6.385   5.288   3.995
 1879WAT  HW2   7515   6.497   5.348   4.078
 1879WAT  MW    7516   6.430   5.294   4.070
 1880WAT  OW    7517   4.328   3.184   3.152
 1880WAT  HW1   7518   4.282   3.130   3.216
 1880WAT  HW2   7519   4.269   3.189   3.077
 1880WAT  MW    7520   4.314   3.177   3.151
 1881WAT  OW    7521   0.012   3.280   4.694
 1881WAT  HW1   7522   0.081   3.323   4.745
 1881WAT  HW2   7523  -0.065   3.336   4.708
 1881WAT  MW    7524   0.011   3.293   4.703
 1882WAT  OW    7525   6.392   6.431   5.273
 1882WAT  HW1   7526   6.372   6.494   5.204
 1882WAT  HW2   7527   6.487   6.433   5.281
 1882WAT  MW    7528   6.402   6.440   5.265
 1883WAT  OW    7529   2.606   3.804   4.572
 1883WAT  HW1   7530   2.653   3.723   4.591
 1883WAT  HW2   7531   2.531   3.777   4.519
 1883WAT  MW    7532   2.603   3.790   4.567
 1884WAT  OW    7533   4.013   1.492   6.107
 1884WAT  HW1   7534   3.993   1.487   6.014
 1884WAT  HW2   7535   3.930   1.476   6.151
 1884WAT  MW    7536   4.000   1.489   6.100
 1885WAT  OW    7537   5.257   5.963   2.839
 1885WAT  HW1   7538   5.185   6.013   2.878
 1885WAT  HW2   7539   5.327   6.027   2.827
 1885WAT  MW    7540   5.257   5.978   2.843
 1886WAT  OW    7541   4.704   0.311   1.572
 1886WAT  HW1   7542   4.650   0.355   1.637
 1886WAT  HW2   7543   4.665   0.334   1.488
 1886WAT  MW    7544   4.692   0.320   1.569
 1887WAT  OW    7545   1.913   1.775   5.422
 1887WAT  HW1   7546   1.845   1.838   5.402
 1887WAT  HW2   7547   1.994   1.826   5.426
 1887WAT  MW    7548   1.914   1.790   5.420
 1888WAT  OW    7549   6.684   4.779   4.781
 1888WAT  HW1   7550   6.618   4.768   4.850
 1888WAT  HW2   7551   6.767   4.758   4.824
 1888WAT  MW    7552   6.686   4.775   4.796
 1889WAT  OW    7553   3.994   2.297   6.233
 1889WAT  HW1   7554   4.014   2.382   6.271
 1889WAT  HW2   7555   3.927   2.316   6.167
 1889WAT  MW    7556   3.988   2.311   6.229
 1890WAT  OW    7557   4.294   2.786   1.358
 1890WAT  HW1   7558   4.338   2.742   1.286
 1890WAT  HW2   7559   4.315   2.879   1.346
 1890WAT  MW    7560   4.303   2.793   1.347
 1891WAT  OW    7561   2.884   2.566   5.990
 1891WAT  HW1   7562   2.943   2.495   5.967
 1891WAT  HW2   7563   2.943   2.636   6.020
 1891WAT  MW    7564   2.900   2.566   5.991
 1892WAT  OW    7565   5.382   0.263   6.028
 1892WAT  HW1   7566   5.316   0.253   5.959
 1892WAT  HW2   7567   5.363   0.191   6.089
 1892WAT  MW    7568   5.371   0.252   6.027
 1893WAT  OW    7569   1.638   6.165   5.051
 1893WAT  HW1   7570   1.728   6.137   5.068
 1893WAT  HW2   7571   1.629   6.160   4.956
 1893WAT  MW    7572   1.648   6.161   5.040
 1894WAT  OW    7573   3.408   4.612   3.034
 1894WAT  HW1   7574   3.323   4.645   3.002
 1894WAT  HW2   7575   3.423   4.532   2.983
 1894WAT  MW    7576   3.399   4.606   3.023
 1895WAT  OW    7577   0.526   1.607   2.237
 1895WAT  HW1   7578   0.457   1.606   2.169
 1895WAT  HW2   7579   0.479   1.626   2.318
 1895WAT  MW    7580   0.510   1.609   2.238
 1896WAT  OW    7581   5.024   0.933   6.621
 1896WAT  HW1   7582   5.046   0.842   6.602
 1896WAT  HW2   7583   5.037   0.941   6.715
 1896WAT  MW    7584   5.028   0.922   6.631
 1897WAT  OW    7585   1.051   3.357   4.808
 1897WAT  HW1   7586   1.020   3.398   4.889
 1897WAT  HW2   7587   0.975   3.309   4.775
 1897WAT  MW    7588   1.036   3.356   4.814
 1898WAT  OW    7589   3.465   4.573   4.084
 1898WAT  HW1   7590   3.548   4.536   4.113
 1898WAT  HW2   7591   3.477   4.668   4.090
 1898WAT  MW    7592   3.477   4.581   4.088
 1899WAT  OW    7593   0.425   3.807   0.895
 1899WAT  HW1   7594   0.340   3.763   0.904
 1899WAT  HW2   7595   0.458   3.814   0.985
 1899WAT  MW    7596   0.418   3.802   0.908
 1900WAT  OW    7597   3.081   4.772   6.643
 1900WAT  HW1   7598   3.092   4.677   6.643
 1900WAT  HW2   7599   3.164   4.806   6.675
 1900WAT  MW    7600   3.093   4.764   6.647
 1901WAT  OW    7601   0.134   6.165   1.180
 1901WAT  HW1   7602   0.139   6.152   1.275
 1901WAT  HW2   7603   0.041   6.168   1.161
 1901WAT  MW    7604   0.123   6.164   1.190
 1902WAT  OW    7605   2.548   0.275   5.356
 1902WAT  HW1   7606   2.640   0.251   5.363
 1902WAT  HW2   7607   2.522   0.247   5.268
 1902WAT  MW    7608   2.556   0.268   5.345
 1903WAT  OW    7609   0.878   0.689   2.063
 1903WAT  HW1   7610   0.805   0.656   2.011
 1903WAT  HW2   7611   0.846   0.771   2.101
 1903WAT  MW    7612   0.864   0.695   2.061
 1904WAT  OW    7613   2.699   3.918   4.883
 1904WAT  HW1   7614   2.736   3.981   4.945
 1904WAT  HW2   7615   2.663   3.849   4.939
 1904WAT  MW    7616   2.699   3.917   4.899
 1905WAT  OW    7617   5.240   2.776   5.025
 1905WAT  HW1   7618   5.166   2.812   5.075
 1905WAT  HW2   7619   5.311   2.838   5.040
 1905WAT  MW    7620   5.239   2.789   5.033
 1906WAT  OW    7621   2.792   1.616   4.351
 1906WAT  HW1   7622   2.805   1.537   4.299
 1906WAT  HW2   7623   2.879   1.640   4.380
 1906WAT  MW    7624   2.805   1.609   4.348
 1907WAT  OW    7625   1.519   2.280   0.991
 1907WAT  HW1   7626   1.595   2.305   1.043
 1907WAT  HW2   7627   1.515   2.184   0.999
 1907WAT  MW    7628   1.529   2.270   0.999
 1908WAT  OW    7629   1.729   1.964   5.361
 1908WAT  HW1   7630   1.750   1.996   5.273
 1908WAT  HW2   7631   1.755   2.036   5.419
 1908WAT  MW    7632   1.735   1.978   5.357
 1909WAT  OW    7633   1.047   4.167   4.895
 1909WAT  HW1   7634   1.104   4.103   4.852
 1909WAT  HW2   7635   1.085   4.176   4.983
 1909WAT  MW    7636   1.060   4.159   4.901
 1910WAT  OW    7637   1.316   6.175   1.294
 1910WAT  HW1   7638   1.369   6.254   1.287
 1910WAT  HW2   7639   1.226   6.205   1.281
 1910WAT  MW    7640   1.311   6.189   1.292
 1911WAT  OW    7641   4.450   0.799   3.264
 1911WAT  HW1   7642   4.444   0.726   3.203
 1911WAT  HW2   7643   4.531   0.844   3.240
 1911WAT  MW    7644   4.460   0.795   3.253
 1912WAT  OW    7645   2.109   0.093   3.911
 1912WAT  HW1   7646   2.111   0.106   4.006
 1912WAT  HW2   7647   2.050   0.162   3.879
 1912WAT  MW    7648   2.101   0.104   3.920
 1913WAT  OW    7649   2.694   2.872   5.861
 1913WAT  HW1   7650   2.749   2.837   5.931
 1913WAT  HW2   7651   2.687   2.965   5.881
 1913WAT  MW    7652   2.700   2.879   5.873
 1914WAT  OW    7653   6.218   2.733   1.595
 1914WAT  HW1   7654   6.250   2.823   1.587
 1914WAT  HW2   7655   6.282   2.680   1.546
 1914WAT  MW    7656   6.231   2.738   1.588
 1915WAT  OW    7657   5.596   2.509   3.058
 1915WAT  HW1   7658   5.534   2.445   3.024
 1915WAT  HW2   7659   5.679   2.463   3.062
 1915WAT  MW    7660   5.599   2.495   3.054
 1916WAT  OW    7661   5.426   0.632   5.881
 1916WAT  HW1   7662   5.441   0.637   5.787
 1916WAT  HW2   7663   5.422   0.723   5.911
 1916WAT  MW    7664   5.428   0.644   5.873
 1917WAT  OW    7665   2.646   1.267   0.003
 1917WAT  HW1   7666   2.622   1.331   0.071
 1917WAT  HW2   7667   2.692   1.198   0.051
 1917WAT  MW    7668   2.649   1.266   0.018
 1918WAT  OW    7669   5.042   5.914   4.215
 1918WAT  HW1   7670   5.012   5.913   4.305
 1918WAT  HW2   7671   5.134   5.939   4.221
 1918WAT  MW    7672   5.050   5.917   4.227
 1919WAT  OW    7673   4.953   2.375   5.051
 1919WAT  HW1   7674   4.953   2.294   4.999
 1919WAT  HW2   7675   5.035   2.418   5.027
 1919WAT  MW    7676   4.964   2.370   5.041
 1920WAT  OW    7677   6.244   1.146   5.096
 1920WAT  HW1   7678   6.327   1.177   5.133
 1920WAT  HW2   7679   6.205   1.224   5.056
 1920WAT  MW    7680   6.250   1.160   5.096
 1921WAT  OW    7681   0.275   5.178   6.619
 1921WAT  HW1   7682   0.291   5.110   6.552
 1921WAT  HW2   7683   0.338   5.246   6.598
 1921WAT  MW    7684   0.285   5.178   6.607
 1922WAT  OW    7685   4.588   4.425   4.397
 1922WAT  HW1   7686   4.578   4.464   4.310
 1922WAT  HW2   7687   4.525   4.473   4.452
 1922WAT  MW    7688   4.578   4.437   4.392
 1923WAT  OW    7689   2.995   1.375   4.561
 1923WAT  HW1   7690   3.064   1.391   4.625
 1923WAT  HW2   7691   2.971   1.283   4.574
 1923WAT  MW    7692   3.001   1.365   4.571
 1924WAT  OW    7693   2.232   2.894   3.350
 1924WAT  HW1   7694   2.273   2.911   3.435
 1924WAT  HW2   7695   2.306   2.890   3.288
 1924WAT  MW    7696   2.247   2.895   3.353
 1925WAT  OW    7697   1.819   0.704   1.465
 1925WAT  HW1   7698   1.797   0.746   1.381
 1925WAT  HW2   7699   1.749   0.640   1.479
 1925WAT  MW    7700   1.807   0.701   1.455
 1926WAT  OW    7701   0.745   6.217   1.425
 1926WAT  HW1   7702   0.757   6.278   1.352
 1926WAT  HW2   7703   0.652   6.223   1.447
 1926WAT  MW    7704   0.734   6.226   1.419
 1927WAT  OW    7705   4.508   1.805   4.698
 1927WAT  HW1   7706   4.428   1.772   4.657
 1927WAT  HW2   7707   4.543   1.731   4.746
 1927WAT  MW    7708   4.502   1.791   4.699
 1928WAT  OW    7709   2.020   2.246   5.460
 1928WAT  HW1   7710   2.044   2.226   5.370
 1928WAT  HW2   7711   2.103   2.272   5.502
 1928WAT  MW    7712   2.034   2.247   5.454
 1929WAT  OW    7713   5.689   6.044   3.404
 1929WAT  HW1   7714   5.641   5.965   3.427
 1929WAT  HW2   7715   5.622   6.105   3.373
 1929WAT  MW    7716   5.674   6.042   3.403
 1930WAT  OW    7717   3.147   3.799   4.629
 1930WAT  HW1   7718   3.170   3.891   4.622
 1930WAT  HW2   7719   3.055   3.795   4.602
 1930WAT  MW    7720   3.138   3.810   4.624
 1931WAT  OW    7721   5.851   5.111   0.403
 1931WAT  HW1   7722   5.805   5.073   0.477
 1931WAT  HW2   7723   5.904   5.039   0.368
 1931WAT  MW    7724   5.852   5.096   0.408
 1932WAT  OW    7725   0.398   4.761   6.074
 1932WAT  HW1   7726   0.344   4.840   6.083
 1932WAT  HW2   7727   0.405   4.748   5.979
 1932WAT  MW    7728   0.392   4.770   6.063
 1933WAT  OW    7729   1.621   2.757   0.199
 1933WAT  HW1   7730   1.669   2.793   0.274
 1933WAT  HW2   7731   1.631   2.662   0.209
 1933WAT  MW    7732   1.629   2.749   0.210
 1934WAT  OW    7733   6.457   6.178   3.993
 1934WAT  HW1   7734   6.502   6.228   4.061
 1934WAT  HW2   7735   6.446   6.091   4.030
 1934WAT  MW    7736   6.462   6.173   4.007
 1935WAT  OW    7737   0.078   0.151   4.024
 1935WAT  HW1   7738   0.119   0.133   3.939
 1935WAT  HW2   7739   0.023   0.227   4.008
 1935WAT  MW    7740   0.076   0.158   4.011
 1936WAT  OW    7741   3.179   1.614   1.834
 1936WAT  HW1   7742   3.120   1.554   1.788
 1936WAT  HW2   7743   3.122   1.661   1.896
 1936WAT  MW    7744   3.164   1.612   1.836
 1937WAT  OW    7745   6.054   3.737   6.439
 1937WAT  HW1   7746   6.012   3.724   6.523
 1937WAT  HW2   7747   6.021   3.822   6.409
 1937WAT  MW    7748   6.044   3.747   6.446
 1938WAT  OW    7749   0.620   2.159   1.754
 1938WAT  HW1   7750   0.652   2.198   1.835
 1938WAT  HW2   7751   0.699   2.145   1.701
 1938WAT  MW    7752   0.635   2.162   1.758
 1939WAT  OW    7753   5.430   5.778   4.810
 1939WAT  HW1   7754   5.382   5.784   4.728
 1939WAT  HW2   7755   5.439   5.869   4.839
 1939WAT  MW    7756   5.425   5.791   4.803
 1940WAT  OW    7757   1.212   2.288   5.966
 1940WAT  HW1   7758   1.127   2.309   6.003
 1940WAT  HW2   7759   1.193   2.229   5.893
 1940WAT  MW    7760   1.199   2.283   5.961
 1941WAT  OW    7761   5.903   4.183   4.470
 1941WAT  HW1   7762   5.812   4.199   4.447
 1941WAT  HW2   7763   5.950   4.260   4.439
 1941WAT  MW    7764   5.897   4.195   4.463
 1942WAT  OW    7765   4.604   2.685   5.903
 1942WAT  HW1   7766   4.548   2.733   5.966
 1942WAT  HW2   7767   4.664   2.751   5.869
 1942WAT  MW    7768   4.604   2.700   5.907
 1943WAT  OW    7769   1.938   5.817   0.515
 1943WAT  HW1   7770   2.018   5.763   0.520
 1943WAT  HW2   7771   1.875   5.762   0.468
 1943WAT  MW    7772   1.940   5.802   0.509
 1944WAT  OW    7773   4.244   1.771   4.641
 1944WAT  HW1   7774   4.249   1.859   4.605
 1944WAT  HW2   7775   4.178   1.726   4.587
 1944WAT  MW    7776   4.236   1.776   4.629
 1945WAT  OW    7777   3.497   4.063   3.977
 1945WAT  HW1   7778   3.532   4.131   3.920
 1945WAT  HW2   7779   3.536   4.082   4.063
 1945WAT  MW    7780   3.507   4.074   3.981
 1946WAT  OW    7781   5.699   2.768   4.827
 1946WAT  HW1   7782   5.644   2.760   4.749
 1946WAT  HW2   7783   5.675   2.852   4.865
 1946WAT  MW    7784   5.689   2.778   4.822
 1947WAT  OW    7785   2.993   5.528   1.961
 1947WAT  HW1   7786   3.019   5.567   2.045
 1947WAT  HW2   7787   2.910   5.570   1.940
 1947WAT  MW    7788   2.986   5.539   1.969
 1948WAT  OW    7789   6.275   3.593   1.838
 1948WAT  HW1   7790   6.253   3.531   1.908
 1948WAT  HW2   7791   6.354   3.556   1.798
 1948WAT  MW    7792   6.283   3.580   1.842
 1949WAT  OW    7793   0.127   0.432   3.719
 1949WAT  HW1   7794   0.220   0.428   3.741
 1949WAT  HW2   7795   0.119   0.385   3.636
 1949WAT  MW    7796   0.138   0.425   3.711
 1950WAT  OW    7797   1.676   6.577   3.189
 1950WAT  HW1   7798   1.625   6.535   3.121
 1950WAT  HW2   7799   1.717   6.505   3.237
 1950WAT  MW    7800   1.675   6.562   3.187
 1951WAT  OW    7801   2.089   4.226   0.238
 1951WAT  HW1   7802   2.083   4.182   0.323
 1951WAT  HW2   7803   2.070   4.318   0.257
 1951WAT  MW    7804   2.085   4.233   0.251
 1952WAT  OW    7805   0.986   0.476   0.924
 1952WAT  HW1   7806   1.055   0.541   0.938
 1952WAT  HW2   7807   0.905   0.527   0.924
 1952WAT  MW    7808   0.984   0.491   0.926
 1953WAT  OW    7809   6.477   0.675   3.959
 1953WAT  HW1   7810   6.434   0.608   3.905
 1953WAT  HW2   7811   6.407   0.735   3.984
 1953WAT  MW    7812   6.462   0.674   3.955
 1954WAT  OW    7813   4.994   1.041   0.593
 1954WAT  HW1   7814   5.050   1.006   0.523
 1954WAT  HW2   7815   4.957   0.963   0.635
 1954WAT  MW    7816   4.996   1.026   0.589
 1955WAT  OW    7817   5.698   4.751   2.696
 1955WAT  HW1   7818   5.710   4.664   2.734
 1955WAT  HW2   7819   5.784   4.791   2.701
 1955WAT  MW    7820   5.711   4.745   2.702
 1956WAT  OW    7821   4.495   1.919   5.144
 1956WAT  HW1   7822   4.546   1.949   5.219
 1956WAT  HW2   7823   4.483   1.825   5.160
 1956WAT  MW    7824   4.500   1.910   5.156
 1957WAT  OW    7825   6.016   0.349   4.599
 1957WAT  HW1   7826   5.995   0.434   4.562
 1957WAT  HW2   7827   5.932   0.307   4.614
 1957WAT  MW    7828   6.002   0.355   4.596
 1958WAT  OW    7829   2.205   4.421   3.552
 1958WAT  HW1   7830   2.296   4.447   3.569
 1958WAT  HW2   7831   2.182   4.464   3.470
 1958WAT  MW    7832   2.214   4.430   3.544
 1959WAT  OW    7833   4.852   0.377   1.337
 1959WAT  HW1   7834   4.831   0.284   1.326
 1959WAT  HW2   7835   4.929   0.391   1.281
 1959WAT  MW    7836   4.860   0.367   1.328
 1960WAT  OW    7837   1.332   5.082   1.858
 1960WAT  HW1   7838   1.241   5.102   1.834
 1960WAT  HW2   7839   1.381   5.161   1.837
 1960WAT  MW    7840   1.326   5.095   1.852
 1961WAT  OW    7841   0.835   0.215   6.410
 1961WAT  HW1   7842   0.871   0.157   6.477
 1961WAT  HW2   7843   0.878   0.299   6.425
 1961WAT  MW    7844   0.845   0.218   6.421
 1962WAT  OW    7845   6.400   3.479   5.745
 1962WAT  HW1   7846   6.353   3.516   5.821
 1962WAT  HW2   7847   6.492   3.485   5.770
 1962WAT  MW    7848   6.406   3.485   5.758
 1963WAT  OW    7849   1.394   4.199   4.423
 1963WAT  HW1   7850   1.392   4.182   4.517
 1963WAT  HW2   7851   1.487   4.204   4.401
 1963WAT  MW    7852   1.406   4.198   4.432
 1964WAT  OW    7853   2.367   2.742   4.575
 1964WAT  HW1   7854   2.274   2.755   4.556
 1964WAT  HW2   7855   2.393   2.819   4.625
 1964WAT  MW    7856   2.358   2.754   4.579
 1965WAT  OW    7857   1.679   5.436   1.559
 1965WAT  HW1   7858   1.655   5.510   1.614
 1965WAT  HW2   7859   1.598   5.413   1.512
 1965WAT  MW    7860   1.665   5.443   1.560
 1966WAT  OW    7861   2.333   4.686   2.459
 1966WAT  HW1   7862   2.303   4.604   2.419
 1966WAT  HW2   7863   2.253   4.737   2.470
 1966WAT  MW    7864   2.319   4.682   2.455
 1967WAT  OW    7865   1.301   4.746   4.140
 1967WAT  HW1   7866   1.217   4.791   4.146
 1967WAT  HW2   7867   1.356   4.803   4.086
 1967WAT  MW    7868   1.297   4.759   4.134
 1968WAT  OW    7869   6.397   1.492   1.229
 1968WAT  HW1   7870   6.432   1.417   1.180
 1968WAT  HW2   7871   6.473   1.546   1.248
 1968WAT  MW    7872   6.412   1.489   1.225
 1969WAT  OW    7873   5.747   2.029   3.740
 1969WAT  HW1   7874   5.747   1.971   3.816
 1969WAT  HW2   7875   5.768   1.972   3.666
 1969WAT  MW    7876   5.749   2.014   3.740
 1970WAT  OW    7877   4.264   1.167   1.091
 1970WAT  HW1   7878   4.268   1.191   0.999
 1970WAT  HW2   7879   4.344   1.202   1.129
 1970WAT  MW    7880   4.275   1.174   1.084
 1971WAT  OW    7881   1.654   6.114   4.767
 1971WAT  HW1   7882   1.734   6.074   4.800
 1971WAT  HW2   7883   1.600   6.041   4.738
 1971WAT  MW    7884   1.658   6.099   4.768
 1972WAT  OW    7885   1.325   3.450   2.356
 1972WAT  HW1   7886   1.368   3.390   2.417
 1972WAT  HW2   7887   1.302   3.395   2.281
 1972WAT  MW    7888   1.328   3.435   2.354
 1973WAT  OW    7889   1.962   1.002   3.507
 1973WAT  HW1   7890   1.926   0.913   3.511
 1973WAT  HW2   7891   2.055   0.992   3.528
 1973WAT  MW    7892   1.969   0.989   3.511
 1974WAT  OW    7893   5.777   3.565   2.512
 1974WAT  HW1   7894   5.872   3.582   2.512
 1974WAT  HW2   7895   5.757   3.542   2.421
 1974WAT  MW    7896   5.787   3.564   2.500
 1975WAT  OW    7897   4.671   3.795   2.918
 1975WAT  HW1   7898   4.687   3.701   2.929
 1975WAT  HW2   7899   4.747   3.837   2.959
 1975WAT  MW    7900   4.683   3.788   2.925
 1976WAT  OW    7901   2.782   2.263   3.384
 1976WAT  HW1   7902   2.861   2.210   3.388
 1976WAT  HW2   7903   2.710   2.201   3.391
 1976WAT  MW    7904   2.783   2.248   3.385
 1977WAT  OW    7905   5.668   5.614   2.534
 1977WAT  HW1   7906   5.695   5.618   2.626
 1977WAT  HW2   7907   5.631   5.526   2.523
 1977WAT  MW    7908   5.667   5.602   2.545
 1978WAT  OW    7909   4.265   0.028   2.414
 1978WAT  HW1   7910   4.195   0.039   2.350
 1978WAT  HW2   7911   4.338  -0.009   2.364
 1978WAT  MW    7912   4.265   0.025   2.399
 1979WAT  OW    7913   2.066   0.745   2.636
 1979WAT  HW1   7914   2.049   0.836   2.661
 1979WAT  HW2   7915   2.002   0.694   2.685
 1979WAT  MW    7916   2.055   0.750   2.646
 1980WAT  OW    7917   5.591   5.554   4.359
 1980WAT  HW1   7918   5.543   5.535   4.440
 1980WAT  HW2   7919   5.682   5.536   4.380
 1980WAT  MW    7920   5.596   5.549   4.373
 1981WAT  OW    7921   6.021   4.848   0.344
 1981WAT  HW1   7922   5.982   4.761   0.336
 1981WAT  HW2   7923   6.034   4.861   0.438
 1981WAT  MW    7924   6.018   4.839   0.355
 1982WAT  OW    7925   0.900   2.800   3.887
 1982WAT  HW1   7926   0.875   2.842   3.805
 1982WAT  HW2   7927   0.865   2.857   3.955
 1982WAT  MW    7928   0.892   2.813   3.886
 1983WAT  OW    7929   2.078   1.569   1.066
 1983WAT  HW1   7930   2.062   1.583   1.159
 1983WAT  HW2   7931   2.165   1.607   1.051
 1983WAT  MW    7932   2.088   1.576   1.076
 1984WAT  OW    7933   4.689   5.728   5.297
 1984WAT  HW1   7934   4.778   5.763   5.302
 1984WAT  HW2   7935   4.692   5.646   5.347
 1984WAT  MW    7936   4.701   5.722   5.305
 1985WAT  OW    7937   6.485   3.249   1.948
 1985WAT  HW1   7938   6.557   3.241   2.010
 1985WAT  HW2   7939   6.481   3.163   1.905
 1985WAT  MW    7940   6.494   3.236   1.951
 1986WAT  OW    7941   3.749   5.677   3.954
 1986WAT  HW1   7942   3.762   5.591   3.914
 1986WAT  HW2   7943   3.678   5.665   4.017
 1986WAT  MW    7944   3.742   5.664   3.957
 1987WAT  OW    7945   2.066   1.830   3.908
 1987WAT  HW1   7946   2.046   1.838   3.815
 1987WAT  HW2   7947   1.981   1.828   3.951
 1987WAT  MW    7948   2.052   1.831   3.902
 1988WAT  OW    7949   2.836   0.174   4.133
 1988WAT  HW1   7950   2.904   0.110   4.112
 1988WAT  HW2   7951   2.864   0.211   4.216
 1988WAT  MW    7952   2.849   0.170   4.141
 1989WAT  OW    7953   5.673   4.346   4.952
 1989WAT  HW1   7954   5.589   4.391   4.946
 1989WAT  HW2   7955   5.710   4.352   4.864
 1989WAT  MW    7956   5.667   4.353   4.940
 1990WAT  OW    7957   0.809   2.750   4.182
 1990WAT  HW1   7958   0.777   2.819   4.123
 1990WAT  HW2   7959   0.884   2.789   4.226
 1990WAT  MW    7960   0.814   2.764   4.180
 1991WAT  OW    7961   3.020   5.922   2.158
 1991WAT  HW1   7962   3.109   5.945   2.187
 1991WAT  HW2   7963   2.969   6.001   2.173
 1991WAT  MW    7964   3.025   5.935   2.164
 1992WAT  OW    7965   1.325   3.155   1.881
 1992WAT  HW1   7966   1.390   3.168   1.812
 1992WAT  HW2   7967   1.252   3.212   1.856
 1992WAT  MW    7968   1.324   3.165   1.869
 1993WAT  OW    7969   5.108   0.454   1.220
 1993WAT  HW1   7970   5.106   0.504   1.138
 1993WAT  HW2   7971   5.169   0.383   1.203
 1993WAT  MW    7972   5.116   0.452   1.207
 1994WAT  OW    7973   4.181   5.389   5.376
 1994WAT  HW1   7974   4.247   5.456   5.359
 1994WAT  HW2   7975   4.200   5.320   5.313
 1994WAT  MW    7976   4.192   5.389   5.366
 1995WAT  OW    7977   0.792   0.607   5.149
 1995WAT  HW1   7978   0.837   0.661   5.084
 1995WAT  HW2   7979   0.767   0.668   5.218
 1995WAT  MW    7980   0.795   0.622   5.149
 1996WAT  OW    7981   2.615   4.065   1.410
 1996WAT  HW1   7982   2.690   4.123   1.397
 1996WAT  HW2   7983   2.542   4.108   1.367
 1996WAT  MW    7984   2.615   4.078   1.403
 1997WAT  OW    7985   5.735   5.261   4.560
 1997WAT  HW1   7986   5.760   5.340   4.513
 1997WAT  HW2   7987   5.801   5.196   4.536
 1997WAT  MW    7988   5.747   5.263   4.551
 1998WAT  OW    7989   1.417   1.545   2.740
 1998WAT  HW1   7990   1.401   1.593   2.821
 1998WAT  HW2   7991   1.499   1.580   2.707
 1998WAT  MW    7992   1.425   1.556   2.747
 1999WAT  OW    7993   0.958   4.386   5.743
 1999WAT  HW1   7994   0.989   4.295   5.750
 1999WAT  HW2   7995   0.878   4.387   5.794
 1999WAT  MW    7996   0.952   4.374   5.750
 2000WAT  OW    7997   4.897   4.749   1.171
 2000WAT  HW1   7998   4.926   4.804   1.098
 2000WAT  HW2   7999   4.847   4.679   1.131
 2000WAT  MW    8000   4.894   4.747   1.156
 2001WAT  OW    8001   3.014   2.462   0.304
 2001WAT  HW1   8002   2.922   2.437   0.295
 2001WAT  HW2   8003   3.022   2.542   0.251
 2001WAT  MW    8004   3.003   2.469   0.296
 2002WAT  OW    8005   1.378   2.027   1.275
 2002WAT  HW1   8006   1.340   2.075   1.202
 2002WAT  HW2   8007   1.347   1.937   1.264
 2002WAT  MW    8008   1.369   2.022   1.264
 2003WAT  OW    8009   4.850   2.202   3.074
 2003WAT  HW1   8010   4.805   2.208   2.989
 2003WAT  HW2   8011   4.810   2.126   3.116
 2003WAT  MW    8012   4.839   2.193   3.068
 2004WAT  OW    8013   2.982   6.139   0.356
 2004WAT  HW1   8014   3.021   6.215   0.399
 2004WAT  HW2   8015   2.888   6.156   0.358
 2004WAT  MW    8016   2.975   6.151   0.362
 2005WAT  OW    8017   6.301   1.880   1.806
 2005WAT  HW1   8018   6.320   1.907   1.716
 2005WAT  HW2   8019   6.372   1.820   1.828
 2005WAT  MW    8020   6.313   1.876   1.797
 2006WAT  OW    8021   5.664   0.467   5.581
 2006WAT  HW1   8022   5.680   0.473   5.487
 2006WAT  HW2   8023   5.750   0.473   5.621
 2006WAT  MW    8024   5.677   0.469   5.574
 2007WAT  OW    8025   3.645   0.262   3.017
 2007WAT  HW1   8026   3.725   0.303   2.985
 2007WAT  HW2   8027   3.675   0.198   3.081
 2007WAT  MW    8028   3.659   0.259   3.021
 2008WAT  OW    8029   3.261   4.458   6.072
 2008WAT  HW1   8030   3.176   4.428   6.104
 2008WAT  HW2   8031   3.250   4.553   6.061
 2008WAT  MW    8032   3.248   4.467   6.075
 2009WAT  OW    8033   2.736   5.578   3.498
 2009WAT  HW1   8034   2.752   5.671   3.510
 2009WAT  HW2   8035   2.761   5.561   3.407
 2009WAT  MW    8036   2.742   5.588   3.487
 2010WAT  OW    8037   4.505   3.625   6.680
 2010WAT  HW1   8038   4.520   3.569   6.605
 2010WAT  HW2   8039   4.465   3.568   6.745
 2010WAT  MW    8040   4.502   3.610   6.679
 2011WAT  OW    8041   4.835   0.609   4.122
 2011WAT  HW1   8042   4.828   0.702   4.143
 2011WAT  HW2   8043   4.930   0.593   4.117
 2011WAT  MW    8044   4.847   0.619   4.124
 2012WAT  OW    8045   3.892   0.730   0.189
 2012WAT  HW1   8046   3.854   0.802   0.239
 2012WAT  HW2   8047   3.898   0.763   0.100
 2012WAT  MW    8048   3.888   0.744   0.184
 2013WAT  OW    8049   1.652   1.651   4.421
 2013WAT  HW1   8050   1.596   1.726   4.442
 2013WAT  HW2   8051   1.737   1.690   4.399
 2013WAT  MW    8052   1.656   1.666   4.421
 2014WAT  OW    8053   5.438   6.145   0.981
 2014WAT  HW1   8054   5.395   6.103   1.055
 2014WAT  HW2   8055   5.516   6.092   0.966
 2014WAT  MW    8056   5.443   6.132   0.989
 2015WAT  OW    8057   3.474   4.508   4.563
 2015WAT  HW1   8058   3.507   4.534   4.649
 2015WAT  HW2   8059   3.384   4.540   4.562
 2015WAT  MW    8060   3.467   4.516   4.574
 2016WAT  OW    8061   0.573   4.723   3.301
 2016WAT  HW1   8062   0.547   4.661   3.369
 2016WAT  HW2   8063   0.559   4.809   3.340
 2016WAT  MW    8064   0.568   4.726   3.315
 2017WAT  OW    8065   2.483   5.704   4.542
 2017WAT  HW1   8066   2.534   5.768   4.492
 2017WAT  HW2   8067   2.398   5.701   4.497
 2017WAT  MW    8068   2.478   5.712   4.529
 2018WAT  OW    8069   3.215   5.090   1.190
 2018WAT  HW1   8070   3.148   5.143   1.233
 2018WAT  HW2   8071   3.192   5.000   1.211
 2018WAT  MW    8072   3.203   5.085   1.198
 2019WAT  OW    8073   4.415   1.423   4.155
 2019WAT  HW1   8074   4.343   1.480   4.181
 2019WAT  HW2   8075   4.391   1.394   4.067
 2019WAT  MW    8076   4.402   1.427   4.147
 2020WAT  OW    8077   2.787   2.879   3.132
 2020WAT  HW1   8078   2.798   2.798   3.081
 2020WAT  HW2   8079   2.750   2.941   3.069
 2020WAT  MW    8080   2.784   2.877   3.117
 2021WAT  OW    8081   1.968   2.834   1.038
 2021WAT  HW1   8082   1.996   2.752   0.997
 2021WAT  HW2   8083   1.912   2.875   0.973
 2021WAT  MW    8084   1.965   2.829   1.024
 2022WAT  OW    8085   5.761   5.531   0.855
 2022WAT  HW1   8086   5.832   5.483   0.813
 2022WAT  HW2   8087   5.802   5.612   0.887
 2022WAT  MW    8088   5.776   5.535   0.854
 2023WAT  OW    8089   0.666   6.572   3.214
 2023WAT  HW1   8090   0.573   6.588   3.226
 2023WAT  HW2   8091   0.692   6.521   3.291
 2023WAT  MW    8092   0.657   6.567   3.226
 2024WAT  OW    8093   4.635   1.063   1.293
 2024WAT  HW1   8094   4.659   1.079   1.202
 2024WAT  HW2   8095   4.586   0.980   1.290
 2024WAT  MW    8096   4.632   1.054   1.281
 2025WAT  OW    8097   4.407   5.721   6.085
 2025WAT  HW1   8098   4.349   5.667   6.139
 2025WAT  HW2   8099   4.425   5.668   6.008
 2025WAT  MW    8100   4.401   5.707   6.082
 2026WAT  OW    8101   4.056   1.943   0.381
 2026WAT  HW1   8102   4.040   2.023   0.332
 2026WAT  HW2   8103   3.995   1.879   0.343
 2026WAT  MW    8104   4.046   1.945   0.370
 2027WAT  OW    8105   3.482   3.526   6.630
 2027WAT  HW1   8106   3.433   3.446   6.648
 2027WAT  HW2   8107   3.564   3.516   6.679
 2027WAT  MW    8108   3.487   3.514   6.639
 2028WAT  OW    8109   6.631   3.709   4.614
 2028WAT  HW1   8110   6.615   3.782   4.673
 2028WAT  HW2   8111   6.581   3.730   4.535
 2028WAT  MW    8112   6.623   3.721   4.611
 2029WAT  OW    8113   0.374   3.589   1.321
 2029WAT  HW1   8114   0.367   3.684   1.311
 2029WAT  HW2   8115   0.412   3.577   1.408
 2029WAT  MW    8116   0.378   3.600   1.331
 2030WAT  OW    8117   2.500   1.400   2.306
 2030WAT  HW1   8118   2.476   1.388   2.215
 2030WAT  HW2   8119   2.425   1.444   2.345
 2030WAT  MW    8120   2.487   1.404   2.299
 2031WAT  OW    8121   1.276   3.521   5.818
 2031WAT  HW1   8122   1.222   3.515   5.897
 2031WAT  HW2   8123   1.362   3.550   5.850
 2031WAT  MW    8124   1.280   3.524   5.833
 2032WAT  OW    8125   4.405   6.514   3.189
 2032WAT  HW1   8126   4.312   6.493   3.179
 2032WAT  HW2   8127   4.409   6.562   3.272
 2032WAT  MW    8128   4.393   6.518   3.199
 2033WAT  OW    8129   4.751   0.814   3.460
 2033WAT  HW1   8130   4.821   0.750   3.452
 2033WAT  HW2   8131   4.671   0.762   3.464
 2033WAT  MW    8132   4.750   0.799   3.460
 2034WAT  OW    8133   5.535   4.688   1.510
 2034WAT  HW1   8134   5.505   4.679   1.600
 2034WAT  HW2   8135   5.455   4.692   1.458
 2034WAT  MW    8136   5.520   4.687   1.515
 2035WAT  OW    8137   6.613   4.728   2.651
 2035WAT  HW1   8138   6.648   4.752   2.565
 2035WAT  HW2   8139   6.682   4.750   2.713
 2035WAT  MW    8140   6.627   4.734   2.648
 2036WAT  OW    8141   6.284   2.951   0.650
 2036WAT  HW1   8142   6.368   2.983   0.617
 2036WAT  HW2   8143   6.242   2.911   0.574
 2036WAT  MW    8144   6.290   2.950   0.636
 2037WAT  OW    8145   4.553   0.641   0.198
 2037WAT  HW1   8146   4.611   0.698   0.248
 2037WAT  HW2   8147   4.552   0.679   0.110
 2037WAT  MW    8148   4.561   0.654   0.193
 2038WAT  OW    8149   5.398   2.979   1.938
 2038WAT  HW1   8150   5.462   2.941   1.879
 2038WAT  HW2   8151   5.342   3.033   1.882
 2038WAT  MW    8152   5.399   2.981   1.923
 2039WAT  OW    8153   2.340   2.129   0.768
 2039WAT  HW1   8154   2.413   2.182   0.735
 2039WAT  HW2   8155   2.354   2.126   0.862
 2039WAT  MW    8156   2.351   2.136   0.776
 2040WAT  OW    8157   1.345   6.011   3.664
 2040WAT  HW1   8158   1.421   6.001   3.606
 2040WAT  HW2   8159   1.313   5.922   3.677
 2040WAT  MW    8160   1.351   5.998   3.658
 2041WAT  OW    8161   2.793   0.891   0.736
 2041WAT  HW1   8162   2.741   0.934   0.803
 2041WAT  HW2   8163   2.764   0.931   0.654
 2041WAT  MW    8164   2.782   0.902   0.734
 2042WAT  OW    8165   4.681   2.024   4.427
 2042WAT  HW1   8166   4.740   2.025   4.353
 2042WAT  HW2   8167   4.611   2.085   4.404
 2042WAT  MW    8168   4.679   2.032   4.414
 2043WAT  OW    8169   1.019   5.763   2.196
 2043WAT  HW1   8170   1.002   5.699   2.126
 2043WAT  HW2   8171   1.108   5.795   2.178
 2043WAT  MW    8172   1.029   5.759   2.184
 2044WAT  OW    8173   1.724   0.898   3.960
 2044WAT  HW1   8174   1.794   0.856   4.009
 2044WAT  HW2   8175   1.666   0.935   4.027
 2044WAT  MW    8176   1.725   0.897   3.975
 2045WAT  OW    8177   0.340   5.054   5.020
 2045WAT  HW1   8178   0.368   5.035   4.930
 2045WAT  HW2   8179   0.323   5.148   5.020
 2045WAT  MW    8180   0.341   5.064   5.008
 2046WAT  OW    8181   3.020   2.251   4.911
 2046WAT  HW1   8182   2.933   2.261   4.950
 2046WAT  HW2   8183   3.078   2.236   4.986
 2046WAT  MW    8184   3.016   2.251   4.926
 2047WAT  OW    8185   2.422   5.760   4.821
 2047WAT  HW1   8186   2.342   5.713   4.842
 2047WAT  HW2   8187   2.437   5.742   4.728
 2047WAT  MW    8188   2.413   5.752   4.811
 2048WAT  OW    8189   5.949   1.420   6.387
 2048WAT  HW1   8190   6.041   1.403   6.407
 2048WAT  HW2   8191   5.927   1.497   6.439
 2048WAT  MW    8192   5.958   1.428   6.397
 2049WAT  OW    8193   4.484   2.582   1.795
 2049WAT  HW1   8194   4.445   2.636   1.727
 2049WAT  HW2   8195   4.409   2.547   1.844
 2049WAT  MW    8196   4.469   2.585   1.793
 2050WAT  OW    8197   6.351   1.942   6.644
 2050WAT  HW1   8198   6.393   2.023   6.673
 2050WAT  HW2   8199   6.414   1.873   6.666
 2050WAT  MW    8200   6.365   1.943   6.651
 2051WAT  OW    8201   6.051   2.648   1.773
 2051WAT  HW1   8202   6.128   2.675   1.723
 2051WAT  HW2   8203   6.060   2.695   1.856
 2051WAT  MW    8204   6.062   2.658   1.778
 2052WAT  OW    8205   5.551   6.054   6.510
 2052WAT  HW1   8206   5.501   5.987   6.463
 2052WAT  HW2   8207   5.486   6.105   6.556
 2052WAT  MW    8208   5.536   6.052   6.510
 2053WAT  OW    8209   0.299   5.022   6.142
 2053WAT  HW1   8210   0.325   5.044   6.231
 2053WAT  HW2   8211   0.360   5.069   6.086
 2053WAT  MW    8212   0.310   5.031   6.146
 2054WAT  OW    8213   0.199   2.970   2.066
 2054WAT  HW1   8214   0.202   3.049   2.012
 2054WAT  HW2   8215   0.189   3.002   2.155
 2054WAT  MW    8216   0.198   2.985   2.070
 2055WAT  OW    8217   4.892   3.888   3.060
 2055WAT  HW1   8218   4.910   3.889   3.154
 2055WAT  HW2   8219   4.961   3.834   3.023
 2055WAT  MW    8220   4.903   3.881   3.068
 2056WAT  OW    8221   5.623   3.699   4.323
 2056WAT  HW1   8222   5.590   3.679   4.411
 2056WAT  HW2   8223   5.697   3.757   4.338
 2056WAT  MW    8224   5.629   3.704   4.337
 2057WAT  OW    8225   2.821   5.972   5.918
 2057WAT  HW1   8226   2.895   5.977   5.859
 2057WAT  HW2   8227   2.824   6.053   5.968
 2057WAT  MW    8228   2.831   5.983   5.917
 2058WAT  OW    8229   5.260   4.069   3.385
 2058WAT  HW1   8230   5.195   4.136   3.404
 2058WAT  HW2   8231   5.272   4.073   3.290
 2058WAT  MW    8232   5.253   4.079   3.375
 2059WAT  OW    8233   4.217   5.636   0.245
 2059WAT  HW1   8234   4.310   5.629   0.223
 2059WAT  HW2   8235   4.198   5.730   0.244
 2059WAT  MW    8236   4.226   5.647   0.242
 2060WAT  OW    8237   6.597   4.251   6.159
 2060WAT  HW1   8238   6.590   4.329   6.214
 2060WAT  HW2   8239   6.654   4.278   6.087
 2060WAT  MW    8240   6.603   4.265   6.157
 2061WAT  OW    8241   4.101   6.379   4.921
 2061WAT  HW1   8242   4.009   6.352   4.919
 2061WAT  HW2   8243   4.145   6.322   4.858
 2061WAT  MW    8244   4.095   6.368   4.912
 2062WAT  OW    8245   5.267   0.053   4.807
 2062WAT  HW1   8246   5.228   0.007   4.882
 2062WAT  HW2   8247   5.254  -0.006   4.733
 2062WAT  MW    8248   5.260   0.039   4.807
 2063WAT  OW    8249   6.371   6.122   6.651
 2063WAT  HW1   8250   6.344   6.213   6.659
 2063WAT  HW2   8251   6.316   6.087   6.581
 2063WAT  MW    8252   6.360   6.129   6.643
 2064WAT  OW    8253   0.444   3.217   5.084
 2064WAT  HW1   8254   0.474   3.169   5.162
 2064WAT  HW2   8255   0.390   3.154   5.037
 2064WAT  MW    8256   0.441   3.203   5.088
 2065WAT  OW    8257   1.236   5.792   0.061
 2065WAT  HW1   8258   1.240   5.734  -0.015
 2065WAT  HW2   8259   1.167   5.754   0.116
 2065WAT  MW    8260   1.227   5.779   0.058
 2066WAT  OW    8261   3.415   1.633   1.668
 2066WAT  HW1   8262   3.341   1.607   1.722
 2066WAT  HW2   8263   3.377   1.655   1.583
 2066WAT  MW    8264   3.400   1.632   1.664
 2067WAT  OW    8265   5.173   6.359   5.601
 2067WAT  HW1   8266   5.122   6.313   5.534
 2067WAT  HW2   8267   5.245   6.399   5.553
 2067WAT  MW    8268   5.176   6.358   5.586
 2068WAT  OW    8269   5.932   3.796   5.676
 2068WAT  HW1   8270   5.932   3.885   5.710
 2068WAT  HW2   8271   5.960   3.804   5.585
 2068WAT  MW    8272   5.936   3.809   5.669
 2069WAT  OW    8273   1.969   0.550   3.599
 2069WAT  HW1   8274   1.957   0.556   3.694
 2069WAT  HW2   8275   2.061   0.528   3.587
 2069WAT  MW    8276   1.979   0.548   3.610
 2070WAT  OW    8277   3.997   2.876   5.788
 2070WAT  HW1   8278   4.071   2.932   5.766
 2070WAT  HW2   8279   3.935   2.890   5.717
 2070WAT  MW    8280   3.998   2.885   5.776
 2071WAT  OW    8281   3.441   3.479   4.970
 2071WAT  HW1   8282   3.532   3.454   4.952
 2071WAT  HW2   8283   3.390   3.435   4.901
 2071WAT  MW    8284   3.446   3.470   4.959
 2072WAT  OW    8285   6.580   6.578   1.031
 2072WAT  HW1   8286   6.565   6.492   0.991
 2072WAT  HW2   8287   6.649   6.618   0.977
 2072WAT  MW    8288   6.587   6.572   1.019
 2073WAT  OW    8289   1.114   4.912   5.071
 2073WAT  HW1   8290   1.067   4.877   4.996
 2073WAT  HW2   8291   1.166   4.838   5.103
 2073WAT  MW    8292   1.115   4.898   5.066
 2074WAT  OW    8293   0.740   6.444   1.248
 2074WAT  HW1   8294   0.663   6.430   1.193
 2074WAT  HW2   8295   0.716   6.518   1.304
 2074WAT  MW    8296   0.726   6.452   1.248
 2075WAT  OW    8297   2.044   4.514   0.343
 2075WAT  HW1   8298   2.003   4.590   0.384
 2075WAT  HW2   8299   2.135   4.516   0.373
 2075WAT  MW    8300   2.051   4.524   0.352
 2076WAT  OW    8301   3.902   5.345   4.098
 2076WAT  HW1   8302   3.814   5.314   4.120
 2076WAT  HW2   8303   3.939   5.371   4.183
 2076WAT  MW    8304   3.895   5.344   4.112
 2077WAT  OW    8305   3.768   1.884   5.843
 2077WAT  HW1   8306   3.736   1.938   5.916
 2077WAT  HW2   8307   3.859   1.866   5.865
 2077WAT  MW    8308   3.776   1.889   5.856
 2078WAT  OW    8309   2.093   1.150   0.863
 2078WAT  HW1   8310   2.044   1.222   0.901
 2078WAT  HW2   8311   2.048   1.131   0.781
 2078WAT  MW    8312   2.080   1.157   0.857
 2079WAT  OW    8313   4.368   6.513   0.600
 2079WAT  HW1   8314   4.443   6.546   0.550
 2079WAT  HW2   8315   4.298   6.503   0.534
 2079WAT  MW    8316   4.369   6.516   0.585
 2080WAT  OW    8317   6.489   4.778   6.568
 2080WAT  HW1   8318   6.435   4.839   6.518
 2080WAT  HW2   8319   6.457   4.785   6.657
 2080WAT  MW    8320   6.478   4.787   6.573
 2081WAT  OW    8321   3.035   2.562   1.366
 2081WAT  HW1   8322   3.121   2.591   1.337
 2081WAT  HW2   8323   2.981   2.640   1.365
 2081WAT  MW    8324   3.039   2.576   1.362
 2082WAT  OW    8325   3.213   0.447   6.440
 2082WAT  HW1   8326   3.133   0.469   6.394
 2082WAT  HW2   8327   3.222   0.352   6.429
 2082WAT  MW    8328   3.204   0.437   6.433
 2083WAT  OW    8329   3.211   0.644   0.530
 2083WAT  HW1   8330   3.216   0.718   0.590
 2083WAT  HW2   8331   3.157   0.580   0.575
 2083WAT  MW    8332   3.205   0.646   0.544
 2084WAT  OW    8333   5.412   2.742   0.320
 2084WAT  HW1   8334   5.397   2.743   0.226
 2084WAT  HW2   8335   5.481   2.808   0.335
 2084WAT  MW    8336   5.419   2.751   0.310
 2085WAT  OW    8337   1.299   3.230   5.433
 2085WAT  HW1   8338   1.248   3.196   5.359
 2085WAT  HW2   8339   1.388   3.242   5.398
 2085WAT  MW    8340   1.304   3.227   5.419
 2086WAT  OW    8341   0.322   4.237   3.685
 2086WAT  HW1   8342   0.309   4.165   3.747
 2086WAT  HW2   8343   0.240   4.241   3.635
 2086WAT  MW    8344   0.310   4.228   3.686
 2087WAT  OW    8345   1.002   6.555   4.954
 2087WAT  HW1   8346   1.079   6.612   4.956
 2087WAT  HW2   8347   0.928   6.615   4.938
 2087WAT  MW    8348   1.002   6.571   4.952
 2088WAT  OW    8349   0.142   1.052   0.153
 2088WAT  HW1   8350   0.214   1.100   0.194
 2088WAT  HW2   8351   0.168   1.043   0.061
 2088WAT  MW    8352   0.155   1.057   0.146
 2089WAT  OW    8353   4.965   2.842   1.918
 2089WAT  HW1   8354   4.985   2.880   2.003
 2089WAT  HW2   8355   4.980   2.913   1.855
 2089WAT  MW    8356   4.970   2.856   1.921
 2090WAT  OW    8357   4.854   5.454   4.709
 2090WAT  HW1   8358   4.885   5.415   4.791
 2090WAT  HW2   8359   4.929   5.501   4.674
 2090WAT  MW    8360   4.868   5.455   4.715
 2091WAT  OW    8361   1.938   6.163   5.508
 2091WAT  HW1   8362   1.961   6.256   5.500
 2091WAT  HW2   8363   2.014   6.123   5.550
 2091WAT  MW    8364   1.951   6.170   5.512
 2092WAT  OW    8365   5.455   6.134   1.404
 2092WAT  HW1   8366   5.525   6.094   1.454
 2092WAT  HW2   8367   5.403   6.181   1.469
 2092WAT  MW    8368   5.457   6.135   1.419
 2093WAT  OW    8369   3.668   5.958   0.130
 2093WAT  HW1   8370   3.666   6.001   0.045
 2093WAT  HW2   8371   3.761   5.944   0.148
 2093WAT  MW    8372   3.680   5.962   0.121
 2094WAT  OW    8373   1.490   5.292   4.466
 2094WAT  HW1   8374   1.547   5.251   4.402
 2094WAT  HW2   8375   1.402   5.263   4.442
 2094WAT  MW    8376   1.486   5.283   4.455
 2095WAT  OW    8377   6.521   5.054   5.634
 2095WAT  HW1   8378   6.491   5.008   5.712
 2095WAT  HW2   8379   6.450   5.042   5.571
 2095WAT  MW    8380   6.508   5.047   5.636
 2096WAT  OW    8381   4.973   5.797   0.179
 2096WAT  HW1   8382   5.030   5.731   0.216
 2096WAT  HW2   8383   4.932   5.754   0.104
 2096WAT  MW    8384   4.975   5.783   0.174
 2097WAT  OW    8385   1.675   3.344   2.607
 2097WAT  HW1   8386   1.598   3.353   2.663
 2097WAT  HW2   8387   1.714   3.260   2.632
 2097WAT  MW    8388   1.670   3.334   2.618
 2098WAT  OW    8389   3.361   2.386   3.457
 2098WAT  HW1   8390   3.417   2.364   3.532
 2098WAT  HW2   8391   3.414   2.365   3.380
 2098WAT  MW    8392   3.375   2.380   3.457
 2099WAT  OW    8393   4.187   3.006   3.324
 2099WAT  HW1   8394   4.189   3.072   3.393
 2099WAT  HW2   8395   4.247   2.938   3.353
 2099WAT  MW    8396   4.195   3.006   3.337
 2100WAT  OW    8397   1.382   5.720   1.146
 2100WAT  HW1   8398   1.451   5.785   1.136
 2100WAT  HW2   8399   1.343   5.739   1.232
 2100WAT  MW    8400   1.386   5.731   1.156
 2101WAT  OW    8401   5.868   5.818   0.223
 2101WAT  HW1   8402   5.780   5.855   0.212
 2101WAT  HW2   8403   5.888   5.833   0.316
 2101WAT  MW    8404   5.859   5.825   0.234
 2102WAT  OW    8405   4.769   4.721   3.496
 2102WAT  HW1   8406   4.708   4.795   3.499
 2102WAT  HW2   8407   4.827   4.742   3.423
 2102WAT  MW    8408   4.769   4.734   3.487
 2103WAT  OW    8409   6.252   1.583   5.650
 2103WAT  HW1   8410   6.329   1.579   5.592
 2103WAT  HW2   8411   6.223   1.492   5.657
 2103WAT  MW    8412   6.259   1.570   5.643
 2104WAT  OW    8413   0.639   1.015   2.712
 2104WAT  HW1   8414   0.604   1.049   2.794
 2104WAT  HW2   8415   0.734   1.029   2.719
 2104WAT  MW    8416   0.647   1.022   2.723
 2105WAT  OW    8417   3.078   3.623   1.086
 2105WAT  HW1   8418   3.059   3.531   1.070
 2105WAT  HW2   8419   3.149   3.623   1.151
 2105WAT  MW    8420   3.085   3.611   1.093
 2106WAT  OW    8421   0.236   2.485   2.914
 2106WAT  HW1   8422   0.277   2.442   2.839
 2106WAT  HW2   8423   0.144   2.497   2.887
 2106WAT  MW    8424   0.229   2.481   2.900
 2107WAT  OW    8425   3.460   1.805   4.084
 2107WAT  HW1   8426   3.531   1.742   4.076
 2107WAT  HW2   8427   3.386   1.763   4.039
 2107WAT  MW    8428   3.459   1.791   4.077
 2108WAT  OW    8429   4.285   2.551   3.715
 2108WAT  HW1   8430   4.289   2.526   3.623
 2108WAT  HW2   8431   4.262   2.470   3.761
 2108WAT  MW    8432   4.283   2.537   3.709
 2109WAT  OW    8433   6.473   2.462   2.620
 2109WAT  HW1   8434   6.476   2.383   2.673
 2109WAT  HW2   8435   6.423   2.524   2.673
 2109WAT  MW    8436   6.467   2.460   2.634
 2110WAT  OW    8437   3.753   4.146   1.760
 2110WAT  HW1   8438   3.812   4.208   1.718
 2110WAT  HW2   8439   3.774   4.062   1.720
 2110WAT  MW    8440   3.764   4.143   1.750
 2111WAT  OW    8441   2.790   6.237   0.683
 2111WAT  HW1   8442   2.741   6.199   0.756
 2111WAT  HW2   8443   2.858   6.172   0.663
 2111WAT  MW    8444   2.793   6.223   0.690
 2112WAT  OW    8445   4.066   4.536   4.812
 2112WAT  HW1   8446   4.030   4.466   4.757
 2112WAT  HW2   8447   4.068   4.498   4.900
 2112WAT  MW    8448   4.061   4.521   4.817
 2113WAT  OW    8449   0.092   5.635   5.257
 2113WAT  HW1   8450   0.184   5.616   5.275
 2113WAT  HW2   8451   0.057   5.554   5.221
 2113WAT  MW    8452   0.100   5.622   5.254
 2114WAT  OW    8453   0.595   5.791   0.743
 2114WAT  HW1   8454   0.637   5.807   0.658
 2114WAT  HW2   8455   0.657   5.733   0.788
 2114WAT  MW    8456   0.609   5.785   0.737
 2115WAT  OW    8457   1.138   4.941   3.159
 2115WAT  HW1   8458   1.133   4.991   3.240
 2115WAT  HW2   8459   1.216   4.975   3.114
 2115WAT  MW    8460   1.148   4.952   3.164
 2116WAT  OW    8461   4.044   4.368   5.591
 2116WAT  HW1   8462   3.999   4.433   5.644
 2116WAT  HW2   8463   4.105   4.418   5.537
 2116WAT  MW    8464   4.046   4.383   5.591
 2117WAT  OW    8465   5.871   0.785   2.584
 2117WAT  HW1   8466   5.917   0.836   2.650
 2117WAT  HW2   8467   5.909   0.697   2.590
 2117WAT  MW    8468   5.882   0.780   2.593
 2118WAT  OW    8469   1.667   6.575   2.852
 2118WAT  HW1   8470   1.712   6.659   2.839
 2118WAT  HW2   8471   1.579   6.600   2.879
 2118WAT  MW    8472   1.661   6.590   2.854
 2119WAT  OW    8473   1.186   3.901   5.105
 2119WAT  HW1   8474   1.191   3.910   5.010
 2119WAT  HW2   8475   1.177   3.806   5.119
 2119WAT  MW    8476   1.185   3.889   5.094
 2120WAT  OW    8477   2.590   2.466   4.262
 2120WAT  HW1   8478   2.679   2.443   4.289
 2120WAT  HW2   8479   2.544   2.382   4.257
 2120WAT  MW    8480   2.595   2.452   4.265
 2121WAT  OW    8481   4.162   3.984   4.700
 2121WAT  HW1   8482   4.204   4.064   4.670
 2121WAT  HW2   8483   4.223   3.947   4.764
 2121WAT  MW    8484   4.176   3.990   4.704
 2122WAT  OW    8485   4.756   1.978   6.432
 2122WAT  HW1   8486   4.794   1.986   6.520
 2122WAT  HW2   8487   4.727   1.887   6.427
 2122WAT  MW    8488   4.757   1.967   6.443
 2123WAT  OW    8489   4.853   3.540   3.425
 2123WAT  HW1   8490   4.828   3.596   3.499
 2123WAT  HW2   8491   4.789   3.560   3.357
 2123WAT  MW    8492   4.841   3.550   3.426
 2124WAT  OW    8493   5.246   3.924   1.343
 2124WAT  HW1   8494   5.167   3.978   1.342
 2124WAT  HW2   8495   5.317   3.986   1.324
 2124WAT  MW    8496   5.245   3.939   1.341
 2125WAT  OW    8497   3.819   5.018   4.307
 2125WAT  HW1   8498   3.894   5.067   4.341
 2125WAT  HW2   8499   3.849   4.986   4.222
 2125WAT  MW    8500   3.833   5.020   4.300
 2126WAT  OW    8501   5.759   4.368   6.434
 2126WAT  HW1   8502   5.717   4.296   6.483
 2126WAT  HW2   8503   5.687   4.410   6.388
 2126WAT  MW    8504   5.744   4.364   6.435
 2127WAT  OW    8505   5.885   2.178   4.692
 2127WAT  HW1   8506   5.868   2.215   4.606
 2127WAT  HW2   8507   5.811   2.205   4.746
 2127WAT  MW    8508   5.873   2.186   4.688
 2128WAT  OW    8509   3.273   5.551   5.910
 2128WAT  HW1   8510   3.261   5.606   5.988
 2128WAT  HW2   8511   3.222   5.594   5.842
 2128WAT  MW    8512   3.265   5.564   5.912
 2129WAT  OW    8513   6.450   2.904   0.311
 2129WAT  HW1   8514   6.460   2.887   0.217
 2129WAT  HW2   8515   6.360   2.936   0.320
 2129WAT  MW    8516   6.439   2.906   0.300
 2130WAT  OW    8517   1.882   3.586   0.401
 2130WAT  HW1   8518   1.857   3.647   0.331
 2130WAT  HW2   8519   1.839   3.504   0.378
 2130WAT  MW    8520   1.873   3.584   0.389
 2131WAT  OW    8521   0.938   5.470   6.548
 2131WAT  HW1   8522   0.925   5.376   6.552
 2131WAT  HW2   8523   0.870   5.501   6.488
 2131WAT  MW    8524   0.928   5.462   6.540
 2132WAT  OW    8525   3.516   3.060   2.392
 2132WAT  HW1   8526   3.585   3.112   2.433
 2132WAT  HW2   8527   3.446   3.123   2.373
 2132WAT  MW    8528   3.516   3.075   2.395
 2133WAT  OW    8529   6.142   3.782   1.681
 2133WAT  HW1   8530   6.195   3.727   1.739
 2133WAT  HW2   8531   6.196   3.859   1.666
 2133WAT  MW    8532   6.156   3.784   1.687
 2134WAT  OW    8533   3.735   3.813   0.165
 2134WAT  HW1   8534   3.754   3.906   0.154
 2134WAT  HW2   8535   3.642   3.805   0.144
 2134WAT  MW    8536   3.725   3.824   0.161
 2135WAT  OW    8537   3.747   3.019   3.117
 2135WAT  HW1   8538   3.743   2.944   3.058
 2135WAT  HW2   8539   3.809   2.993   3.185
 2135WAT  MW    8540   3.754   3.006   3.118
 2136WAT  OW    8541   2.759   1.014   0.492
 2136WAT  HW1   8542   2.680   1.004   0.440
 2136WAT  HW2   8543   2.816   0.942   0.463
 2136WAT  MW    8544   2.756   1.003   0.482
 2137WAT  OW    8545   0.827   2.955   0.028
 2137WAT  HW1   8546   0.800   3.041  -0.002
 2137WAT  HW2   8547   0.920   2.949   0.003
 2137WAT  MW    8548   0.836   2.965   0.021
 2138WAT  OW    8549   1.575   3.790   3.240
 2138WAT  HW1   8550   1.512   3.816   3.308
 2138WAT  HW2   8551   1.615   3.710   3.274
 2138WAT  MW    8552   1.572   3.783   3.253
 2139WAT  OW    8553   1.375   0.240   0.678
 2139WAT  HW1   8554   1.445   0.237   0.743
 2139WAT  HW2   8555   1.324   0.317   0.702
 2139WAT  MW    8556   1.378   0.249   0.690
 2140WAT  OW    8557   0.911   5.512   3.622
 2140WAT  HW1   8558   0.856   5.450   3.669
 2140WAT  HW2   8559   0.997   5.503   3.664
 2140WAT  MW    8560   0.915   5.503   3.634
 2141WAT  OW    8561   3.583   0.970   5.361
 2141WAT  HW1   8562   3.649   0.901   5.374
 2141WAT  HW2   8563   3.499   0.924   5.368
 2141WAT  MW    8564   3.580   0.954   5.363
 2142WAT  OW    8565   3.531   1.462   6.039
 2142WAT  HW1   8566   3.499   1.516   5.967
 2142WAT  HW2   8567   3.468   1.390   6.046
 2142WAT  MW    8568   3.519   1.459   6.030
 2143WAT  OW    8569   0.214   0.543   5.574
 2143WAT  HW1   8570   0.145   0.481   5.550
 2143WAT  HW2   8571   0.185   0.578   5.659
 2143WAT  MW    8572   0.201   0.540   5.582
 2144WAT  OW    8573   5.350   1.639   5.659
 2144WAT  HW1   8574   5.258   1.618   5.673
 2144WAT  HW2   8575   5.365   1.716   5.713
 2144WAT  MW    8576   5.340   1.646   5.668
 2145WAT  OW    8577   0.221   4.065   5.343
 2145WAT  HW1   8578   0.214   3.970   5.355
 2145WAT  HW2   8579   0.301   4.089   5.389
 2145WAT  MW    8580   0.231   4.056   5.351
 2146WAT  OW    8581   0.871   5.722   5.055
 2146WAT  HW1   8582   0.894   5.805   5.097
 2146WAT  HW2   8583   0.950   5.668   5.065
 2146WAT  MW    8584   0.885   5.725   5.062
 2147WAT  OW    8585   6.085   5.078   2.220
 2147WAT  HW1   8586   6.040   5.080   2.305
 2147WAT  HW2   8587   6.177   5.094   2.242
 2147WAT  MW    8588   6.092   5.080   2.234
 2148WAT  OW    8589   2.948   5.265   5.679
 2148WAT  HW1   8590   2.960   5.281   5.586
 2148WAT  HW2   8591   2.893   5.337   5.710
 2148WAT  MW    8592   2.942   5.276   5.671
 2149WAT  OW    8593   0.472   3.840   2.136
 2149WAT  HW1   8594   0.517   3.917   2.100
 2149WAT  HW2   8595   0.409   3.815   2.068
 2149WAT  MW    8596   0.470   3.847   2.123
 2150WAT  OW    8597   3.315   5.405   6.476
 2150WAT  HW1   8598   3.316   5.489   6.522
 2150WAT  HW2   8599   3.381   5.352   6.522
 2150WAT  MW    8600   3.324   5.409   6.488
 2151WAT  OW    8601   3.149   5.854   6.426
 2151WAT  HW1   8602   3.223   5.851   6.366
 2151WAT  HW2   8603   3.149   5.944   6.460
 2151WAT  MW    8604   3.159   5.866   6.423
 2152WAT  OW    8605   1.373   0.334   6.090
 2152WAT  HW1   8606   1.389   0.408   6.031
 2152WAT  HW2   8607   1.307   0.281   6.044
 2152WAT  MW    8608   1.366   0.337   6.076
 2153WAT  OW    8609   5.410   4.566   5.697
 2153WAT  HW1   8610   5.447   4.651   5.722
 2153WAT  HW2   8611   5.478   4.524   5.645
 2153WAT  MW    8612   5.424   4.572   5.694
 2154WAT  OW    8613   1.062   2.254   2.408
 2154WAT  HW1   8614   1.153   2.228   2.420
 2154WAT  HW2   8615   1.051   2.258   2.313
 2154WAT  MW    8616   1.072   2.251   2.397
 2155WAT  OW    8617   3.379   1.849   5.242
 2155WAT  HW1   8618   3.286   1.868   5.247
 2155WAT  HW2   8619   3.417   1.928   5.204
 2155WAT  MW    8620   3.372   1.862   5.238
 2156WAT  OW    8621   6.313   6.397   4.580
 2156WAT  HW1   8622   6.269   6.377   4.498
 2156WAT  HW2   8623   6.248   6.378   4.647
 2156WAT  MW    8624   6.299   6.392   4.578
 2157WAT  OW    8625   5.924   0.905   1.377
 2157WAT  HW1   8626   5.893   0.935   1.291
 2157WAT  HW2   8627   6.002   0.854   1.359
 2157WAT  MW    8628   5.930   0.903   1.363
 2158WAT  OW    8629   4.363   3.436   6.035
 2158WAT  HW1   8630   4.298   3.396   5.976
 2158WAT  HW2   8631   4.441   3.382   6.024
 2158WAT  MW    8632   4.365   3.424   6.026
 2159WAT  OW    8633   6.695   4.519   2.055
 2159WAT  HW1   8634   6.719   4.438   2.010
 2159WAT  HW2   8635   6.777   4.553   2.090
 2159WAT  MW    8636   6.709   4.513   2.054
 2160WAT  OW    8637   2.731   3.195   3.021
 2160WAT  HW1   8638   2.651   3.185   3.072
 2160WAT  HW2   8639   2.781   3.262   3.067
 2160WAT  MW    8640   2.727   3.203   3.033
 2161WAT  OW    8641   1.373   1.715   1.598
 2161WAT  HW1   8642   1.321   1.672   1.530
 2161WAT  HW2   8643   1.326   1.796   1.616
 2161WAT  MW    8644   1.360   1.720   1.591
 2162WAT  OW    8645   0.107   1.356   6.496
 2162WAT  HW1   8646   0.132   1.300   6.423
 2162WAT  HW2   8647   0.184   1.410   6.512
 2162WAT  MW    8648   0.120   1.356   6.488
 2163WAT  OW    8649   1.064   0.325   5.428
 2163WAT  HW1   8650   1.090   0.329   5.336
 2163WAT  HW2   8651   1.094   0.408   5.465
 2163WAT  MW    8652   1.071   0.336   5.421
 2164WAT  OW    8653   1.002   4.195   0.766
 2164WAT  HW1   8654   1.024   4.228   0.679
 2164WAT  HW2   8655   0.908   4.178   0.762
 2164WAT  MW    8656   0.993   4.197   0.754
 2165WAT  OW    8657   5.719   6.658   0.400
 2165WAT  HW1   8658   5.745   6.606   0.476
 2165WAT  HW2   8659   5.702   6.594   0.331
 2165WAT  MW    8660   5.720   6.643   0.401
 2166WAT  OW    8661   3.409   0.219   2.864
 2166WAT  HW1   8662   3.377   0.135   2.896
 2166WAT  HW2   8663   3.482   0.241   2.922
 2166WAT  MW    8664   3.415   0.211   2.876
 2167WAT  OW    8665   1.206   4.126   0.378
 2167WAT  HW1   8666   1.300   4.111   0.379
 2167WAT  HW2   8667   1.191   4.195   0.442
 2167WAT  MW    8668   1.216   4.133   0.387
 2168WAT  OW    8669   3.022   6.257   3.132
 2168WAT  HW1   8670   3.021   6.162   3.143
 2168WAT  HW2   8671   3.096   6.274   3.074
 2168WAT  MW    8672   3.031   6.247   3.126
 2169WAT  OW    8673   0.544   1.380   5.543
 2169WAT  HW1   8674   0.588   1.377   5.628
 2169WAT  HW2   8675   0.609   1.346   5.482
 2169WAT  MW    8676   0.559   1.375   5.547
 2170WAT  OW    8677   0.307   3.461   5.140
 2170WAT  HW1   8678   0.291   3.436   5.231
 2170WAT  HW2   8679   0.370   3.397   5.108
 2170WAT  MW    8680   0.313   3.449   5.148
 2171WAT  OW    8681   6.249   0.211   5.667
 2171WAT  HW1   8682   6.312   0.283   5.672
 2171WAT  HW2   8683   6.300   0.133   5.684
 2171WAT  MW    8684   6.264   0.210   5.670
 2172WAT  OW    8685   3.519   4.066   3.576
 2172WAT  HW1   8686   3.574   4.111   3.511
 2172WAT  HW2   8687   3.517   3.975   3.547
 2172WAT  MW    8688   3.526   4.060   3.564
 2173WAT  OW    8689   1.921   2.853   5.701
 2173WAT  HW1   8690   1.954   2.772   5.663
 2173WAT  HW2   8691   1.996   2.913   5.699
 2173WAT  MW    8692   1.935   2.851   5.695
 2174WAT  OW    8693   6.574   5.335   3.447
 2174WAT  HW1   8694   6.621   5.293   3.375
 2174WAT  HW2   8695   6.635   5.403   3.478
 2174WAT  MW    8696   6.589   5.338   3.441
 2175WAT  OW    8697   3.260   5.004   4.760
 2175WAT  HW1   8698   3.296   5.064   4.696
 2175WAT  HW2   8699   3.215   4.937   4.708
 2175WAT  MW    8700   3.259   5.003   4.745
 2176WAT  OW    8701   5.506   3.007   1.071
 2176WAT  HW1   8702   5.573   2.940   1.057
 2176WAT  HW2   8703   5.427   2.971   1.031
 2176WAT  MW    8704   5.505   2.993   1.064
 2177WAT  OW    8705   1.337   2.368   1.913
 2177WAT  HW1   8706   1.288   2.440   1.873
 2177WAT  HW2   8707   1.318   2.375   2.006
 2177WAT  MW    8708   1.328   2.378   1.920
 2178WAT  OW    8709   1.826   4.287   4.725
 2178WAT  HW1   8710   1.802   4.377   4.746
 2178WAT  HW2   8711   1.779   4.267   4.644
 2178WAT  MW    8712   1.816   4.296   4.717
 2179WAT  OW    8713   0.003   0.968   5.179
 2179WAT  HW1   8714   0.028   1.040   5.236
 2179WAT  HW2   8715   0.066   0.899   5.199
 2179WAT  MW    8716   0.014   0.968   5.189
 2180WAT  OW    8717   6.018   2.867   3.533
 2180WAT  HW1   8718   6.068   2.904   3.460
 2180WAT  HW2   8719   5.930   2.903   3.523
 2180WAT  MW    8720   6.013   2.876   3.522
 2181WAT  OW    8721   5.262   1.694   2.430
 2181WAT  HW1   8722   5.208   1.620   2.458
 2181WAT  HW2   8723   5.234   1.767   2.484
 2181WAT  MW    8724   5.252   1.694   2.441
 2182WAT  OW    8725   4.074   3.435   2.139
 2182WAT  HW1   8726   4.103   3.370   2.075
 2182WAT  HW2   8727   4.106   3.518   2.105
 2182WAT  MW    8728   4.082   3.437   2.126
 2183WAT  OW    8729   1.488   5.706   0.434
 2183WAT  HW1   8730   1.427   5.769   0.472
 2183WAT  HW2   8731   1.466   5.705   0.341
 2183WAT  MW    8732   1.477   5.714   0.427
 2184WAT  OW    8733   3.294   3.153   2.984
 2184WAT  HW1   8734   3.204   3.182   2.997
 2184WAT  HW2   8735   3.289   3.095   2.908
 2184WAT  MW    8736   3.282   3.149   2.975
 2185WAT  OW    8737   3.098   5.579   4.350
 2185WAT  HW1   8738   3.038   5.506   4.367
 2185WAT  HW2   8739   3.176   5.538   4.313
 2185WAT  MW    8740   3.100   5.564   4.347
 2186WAT  OW    8741   3.460   1.090   3.594
 2186WAT  HW1   8742   3.478   1.038   3.672
 2186WAT  HW2   8743   3.487   1.179   3.616
 2186WAT  MW    8744   3.466   1.095   3.607
 2187WAT  OW    8745   5.477   3.419   5.343
 2187WAT  HW1   8746   5.394   3.381   5.372
 2187WAT  HW2   8747   5.528   3.430   5.424
 2187WAT  MW    8748   5.473   3.415   5.358
 2188WAT  OW    8749   3.312   4.812   0.778
 2188WAT  HW1   8750   3.336   4.752   0.707
 2188WAT  HW2   8751   3.238   4.862   0.743
 2188WAT  MW    8752   3.305   4.810   0.764
 2189WAT  OW    8753   6.662   1.079   0.680
 2189WAT  HW1   8754   6.617   1.146   0.732
 2189WAT  HW2   8755   6.663   1.115   0.592
 2189WAT  MW    8756   6.656   1.092   0.675
 2190WAT  OW    8757   5.416   1.601   2.195
 2190WAT  HW1   8758   5.391   1.666   2.262
 2190WAT  HW2   8759   5.430   1.653   2.116
 2190WAT  MW    8760   5.414   1.616   2.194
 2191WAT  OW    8761   3.313   1.303   6.064
 2191WAT  HW1   8762   3.249   1.356   6.016
 2191WAT  HW2   8763   3.335   1.231   6.005
 2191WAT  MW    8764   3.307   1.301   6.050
 2192WAT  OW    8765   4.065   0.726   4.098
 2192WAT  HW1   8766   4.081   0.650   4.154
 2192WAT  HW2   8767   4.108   0.704   4.015
 2192WAT  MW    8768   4.073   0.713   4.094
 2193WAT  OW    8769   1.956   2.637   6.292
 2193WAT  HW1   8770   1.981   2.698   6.222
 2193WAT  HW2   8771   1.899   2.573   6.249
 2193WAT  MW    8772   1.952   2.637   6.277
 2194WAT  OW    8773   4.909   4.738   3.234
 2194WAT  HW1   8774   4.856   4.689   3.171
 2194WAT  HW2   8775   4.973   4.784   3.179
 2194WAT  MW    8776   4.911   4.737   3.218
 2195WAT  OW    8777   2.123   2.404   1.638
 2195WAT  HW1   8778   2.066   2.412   1.561
 2195WAT  HW2   8779   2.193   2.346   1.609
 2195WAT  MW    8780   2.124   2.397   1.624
 2196WAT  OW    8781   1.004   1.168   3.548
 2196WAT  HW1   8782   1.007   1.089   3.494
 2196WAT  HW2   8783   1.054   1.233   3.499
 2196WAT  MW    8784   1.011   1.166   3.535
 2197WAT  OW    8785   5.142   3.953   5.054
 2197WAT  HW1   8786   5.134   4.035   5.005
 2197WAT  HW2   8787   5.077   3.895   5.015
 2197WAT  MW    8788   5.132   3.956   5.043
 2198WAT  OW    8789   6.527   1.735   1.890
 2198WAT  HW1   8790   6.506   1.664   1.950
 2198WAT  HW2   8791   6.619   1.719   1.866
 2198WAT  MW    8792   6.536   1.723   1.895
 2199WAT  OW    8793   0.833   1.277   3.905
 2199WAT  HW1   8794   0.820   1.286   3.811
 2199WAT  HW2   8795   0.902   1.212   3.914
 2199WAT  MW    8796   0.840   1.269   3.894
 2200WAT  OW    8797   2.570   4.155   0.082
 2200WAT  HW1   8798   2.614   4.203   0.012
 2200WAT  HW2   8799   2.479   4.147   0.052
 2200WAT  MW    8800   2.564   4.160   0.069
 2201WAT  OW    8801   2.585   0.605   4.829
 2201WAT  HW1   8802   2.536   0.535   4.786
 2201WAT  HW2   8803   2.599   0.670   4.760
 2201WAT  MW    8804   2.580   0.604   4.814
 2202WAT  OW    8805   0.169   3.596   0.927
 2202WAT  HW1   8806   0.181   3.549   1.010
 2202WAT  HW2   8807   0.074   3.592   0.912
 2202WAT  MW    8808   0.158   3.589   0.936
 2203WAT  OW    8809   0.426   4.821   1.580
 2203WAT  HW1   8810   0.416   4.728   1.599
 2203WAT  HW2   8811   0.471   4.823   1.496
 2203WAT  MW    8812   0.430   4.809   1.571
 2204WAT  OW    8813   4.422   6.236   0.433
 2204WAT  HW1   8814   4.505   6.284   0.431
 2204WAT  HW2   8815   4.407   6.218   0.526
 2204WAT  MW    8816   4.431   6.240   0.445
 2205WAT  OW    8817   0.282   1.699   0.049
 2205WAT  HW1   8818   0.202   1.714  -0.000
 2205WAT  HW2   8819   0.352   1.703  -0.016
 2205WAT  MW    8820   0.281   1.701   0.034
 2206WAT  OW    8821   4.481   2.130   2.423
 2206WAT  HW1   8822   4.430   2.131   2.342
 2206WAT  HW2   8823   4.444   2.058   2.474
 2206WAT  MW    8824   4.470   2.121   2.419
 2207WAT  OW    8825   6.417   2.206   0.035
 2207WAT  HW1   8826   6.490   2.226   0.094
 2207WAT  HW2   8827   6.437   2.255  -0.045
 2207WAT  MW    8828   6.429   2.215   0.032
 2208WAT  OW    8829   5.324   0.402   0.399
 2208WAT  HW1   8830   5.297   0.313   0.423
 2208WAT  HW2   8831   5.243   0.453   0.403
 2208WAT  MW    8832   5.310   0.397   0.403
 2209WAT  OW    8833   1.351   6.483   4.584
 2209WAT  HW1   8834   1.259   6.458   4.581
 2209WAT  HW2   8835   1.361   6.528   4.668
 2209WAT  MW    8836   1.340   6.486   4.595
 2210WAT  OW    8837   2.349   1.526   0.514
 2210WAT  HW1   8838   2.375   1.464   0.445
 2210WAT  HW2   8839   2.409   1.508   0.586
 2210WAT  MW    8840   2.360   1.515   0.514
 2211WAT  OW    8841   3.214   0.554   6.003
 2211WAT  HW1   8842   3.230   0.493   5.932
 2211WAT  HW2   8843   3.264   0.633   5.979
 2211WAT  MW    8844   3.223   0.557   5.991
 2212WAT  OW    8845   3.894   1.601   2.136
 2212WAT  HW1   8846   3.839   1.556   2.199
 2212WAT  HW2   8847   3.849   1.683   2.117
 2212WAT  MW    8848   3.881   1.606   2.142
 2213WAT  OW    8849   0.386   4.060   5.117
 2213WAT  HW1   8850   0.325   4.077   5.189
 2213WAT  HW2   8851   0.458   4.122   5.131
 2213WAT  MW    8852   0.387   4.071   5.128
 2214WAT  OW    8853   5.163   5.642   5.928
 2214WAT  HW1   8854   5.080   5.680   5.955
 2214WAT  HW2   8855   5.211   5.628   6.009
 2214WAT  MW    8856   5.158   5.645   5.942
 2215WAT  OW    8857   4.485   2.064   2.848
 2215WAT  HW1   8858   4.409   2.073   2.906
 2215WAT  HW2   8859   4.543   2.135   2.874
 2215WAT  MW    8860   4.482   2.074   2.859
 2216WAT  OW    8861   2.819   2.974   6.410
 2216WAT  HW1   8862   2.867   2.925   6.478
 2216WAT  HW2   8863   2.817   3.064   6.443
 2216WAT  MW    8864   2.825   2.979   6.424
 2217WAT  OW    8865   2.867   6.259   6.090
 2217WAT  HW1   8866   2.871   6.237   6.183
 2217WAT  HW2   8867   2.876   6.355   6.088
 2217WAT  MW    8868   2.869   6.269   6.102
 2218WAT  OW    8869   0.369   2.859   5.983
 2218WAT  HW1   8870   0.416   2.782   5.951
 2218WAT  HW2   8871   0.282   2.852   5.945
 2218WAT  MW    8872   0.364   2.848   5.974
 2219WAT  OW    8873   1.900   5.269   2.366
 2219WAT  HW1   8874   1.947   5.326   2.306
 2219WAT  HW2   8875   1.901   5.183   2.325
 2219WAT  MW    8876   1.906   5.265   2.353
 2220WAT  OW    8877   4.067   2.499   0.347
 2220WAT  HW1   8878   4.030   2.572   0.396
 2220WAT  HW2   8879   3.992   2.462   0.299
 2220WAT  MW    8880   4.052   2.503   0.347
 2221WAT  OW    8881   2.606   3.774   6.331
 2221WAT  HW1   8882   2.562   3.692   6.308
 2221WAT  HW2   8883   2.553   3.842   6.291
 2221WAT  MW    8884   2.593   3.772   6.323
 2222WAT  OW    8885   0.956   0.546   1.557
 2222WAT  HW1   8886   0.871   0.532   1.599
 2222WAT  HW2   8887   0.941   0.615   1.493
 2222WAT  MW    8888   0.943   0.553   1.554
 2223WAT  OW    8889   6.012   2.363   2.927
 2223WAT  HW1   8890   5.991   2.449   2.891
 2223WAT  HW2   8891   5.952   2.352   3.001
 2223WAT  MW    8892   6.001   2.373   2.932
 2224WAT  OW    8893   0.399   6.121   2.813
 2224WAT  HW1   8894   0.346   6.181   2.865
 2224WAT  HW2   8895   0.376   6.142   2.722
 2224WAT  MW    8896   0.389   6.132   2.808
 2225WAT  OW    8897   2.519   1.215   4.993
 2225WAT  HW1   8898   2.496   1.274   5.065
 2225WAT  HW2   8899   2.481   1.257   4.915
 2225WAT  MW    8900   2.511   1.228   4.992
 2226WAT  OW    8901   2.107   4.876   6.283
 2226WAT  HW1   8902   2.120   4.970   6.299
 2226WAT  HW2   8903   2.026   4.872   6.232
 2226WAT  MW    8904   2.098   4.888   6.278
 2227WAT  OW    8905   1.419   4.761   6.057
 2227WAT  HW1   8906   1.327   4.732   6.060
 2227WAT  HW2   8907   1.424   4.831   6.122
 2227WAT  MW    8908   1.407   4.766   6.066
 2228WAT  OW    8909   0.148   3.635   2.844
 2228WAT  HW1   8910   0.236   3.617   2.876
 2228WAT  HW2   8911   0.090   3.598   2.912
 2228WAT  MW    8912   0.152   3.627   2.858
 2229WAT  OW    8913   0.808   4.813   0.271
 2229WAT  HW1   8914   0.856   4.809   0.189
 2229WAT  HW2   8915   0.779   4.904   0.278
 2229WAT  MW    8916   0.810   4.824   0.261
 2230WAT  OW    8917   0.352   5.981   4.145
 2230WAT  HW1   8918   0.332   5.931   4.225
 2230WAT  HW2   8919   0.399   5.919   4.089
 2230WAT  MW    8920   0.355   5.966   4.148
 2231WAT  OW    8921   1.890   6.226   3.657
 2231WAT  HW1   8922   1.946   6.292   3.617
 2231WAT  HW2   8923   1.948   6.177   3.715
 2231WAT  MW    8924   1.905   6.228   3.659
 2232WAT  OW    8925   3.133   6.643   3.564
 2232WAT  HW1   8926   3.196   6.605   3.503
 2232WAT  HW2   8927   3.051   6.648   3.515
 2232WAT  MW    8928   3.130   6.639   3.549
 2233WAT  OW    8929   1.789   2.157   5.547
 2233WAT  HW1   8930   1.821   2.088   5.606
 2233WAT  HW2   8931   1.868   2.196   5.510
 2233WAT  MW    8932   1.803   2.153   5.550
 2234WAT  OW    8933   0.496   2.650   5.835
 2234WAT  HW1   8934   0.539   2.634   5.919
 2234WAT  HW2   8935   0.464   2.564   5.808
 2234WAT  MW    8936   0.498   2.637   5.842
 2235WAT  OW    8937   2.858   2.405   2.121
 2235WAT  HW1   8938   2.884   2.315   2.142
 2235WAT  HW2   8939   2.767   2.411   2.151
 2235WAT  MW    8940   2.849   2.394   2.128
 2236WAT  OW    8941   6.676   0.418   6.411
 2236WAT  HW1   8942   6.621   0.432   6.488
 2236WAT  HW2   8943   6.681   0.503   6.369
 2236WAT  MW    8944   6.669   0.431   6.416
 2237WAT  OW    8945   1.805   1.788   4.018
 2237WAT  HW1   8946   1.792   1.760   3.927
 2237WAT  HW2   8947   1.727   1.755   4.064
 2237WAT  MW    8948   1.793   1.780   4.012
 2238WAT  OW    8949   5.970   5.527   5.668
 2238WAT  HW1   8950   5.952   5.510   5.760
 2238WAT  HW2   8951   5.902   5.589   5.642
 2238WAT  MW    8952   5.958   5.533   5.677
 2239WAT  OW    8953   2.629   4.571   2.785
 2239WAT  HW1   8954   2.615   4.558   2.691
 2239WAT  HW2   8955   2.542   4.586   2.820
 2239WAT  MW    8956   2.616   4.571   2.777
 2240WAT  OW    8957   1.123   0.357   0.044
 2240WAT  HW1   8958   1.089   0.270   0.065
 2240WAT  HW2   8959   1.047   0.415   0.051
 2240WAT  MW    8960   1.108   0.353   0.048
 2241WAT  OW    8961   2.990   3.265   3.689
 2241WAT  HW1   8962   2.973   3.177   3.721
 2241WAT  HW2   8963   2.950   3.267   3.602
 2241WAT  MW    8964   2.982   3.254   3.682
 2242WAT  OW    8965   0.501   5.362   2.637
 2242WAT  HW1   8966   0.595   5.371   2.646
 2242WAT  HW2   8967   0.465   5.443   2.675
 2242WAT  MW    8968   0.508   5.374   2.643
 2243WAT  OW    8969   0.083   4.059   3.431
 2243WAT  HW1   8970   0.024   4.110   3.486
 2243WAT  HW2   8971   0.142   4.124   3.391
 2243WAT  MW    8972   0.083   4.074   3.433
 2244WAT  OW    8973   5.917   2.899   0.792
 2244WAT  HW1   8974   5.874   2.862   0.715
 2244WAT  HW2   8975   5.849   2.898   0.859
 2244WAT  MW    8976   5.902   2.894   0.791
 2245WAT  OW    8977   2.291   2.948   5.182
 2245WAT  HW1   8978   2.215   3.006   5.180
 2245WAT  HW2   8979   2.349   2.987   5.247
 2245WAT  MW    8980   2.289   2.961   5.190
 2246WAT  OW    8981   5.045   2.563   3.330
 2246WAT  HW1   8982   5.012   2.633   3.386
 2246WAT  HW2   8983   4.989   2.488   3.350
 2246WAT  MW    8984   5.033   2.562   3.340
 2247WAT  OW    8985   0.437   1.518   1.457
 2247WAT  HW1   8986   0.504   1.518   1.389
 2247WAT  HW2   8987   0.485   1.531   1.538
 2247WAT  MW    8988   0.452   1.519   1.459
 2248WAT  OW    8989   6.284   3.749   0.956
 2248WAT  HW1   8990   6.295   3.697   0.876
 2248WAT  HW2   8991   6.235   3.826   0.927
 2248WAT  MW    8992   6.279   3.752   0.941
 2249WAT  OW    8993   0.504   1.964   5.995
 2249WAT  HW1   8994   0.498   1.909   5.917
 2249WAT  HW2   8995   0.596   1.957   6.021
 2249WAT  MW    8996   0.516   1.956   5.988
 2250WAT  OW    8997   0.073   3.693   3.271
 2250WAT  HW1   8998   0.056   3.771   3.217
 2250WAT  HW2   8999   0.113   3.727   3.351
 2250WAT  MW    9000   0.076   3.708   3.274
 2251WAT  OW    9001   3.787   2.611   2.751
 2251WAT  HW1   9002   3.779   2.640   2.661
 2251WAT  HW2   9003   3.875   2.573   2.757
 2251WAT  MW    9004   3.798   2.610   2.740
 2252WAT  OW    9005   6.147   3.129   0.806
 2252WAT  HW1   9006   6.102   3.061   0.858
 2252WAT  HW2   9007   6.207   3.080   0.750
 2252WAT  MW    9008   6.149   3.113   0.805
 2253WAT  OW    9009   5.017   0.886   0.206
 2253WAT  HW1   9010   5.025   0.793   0.228
 2253WAT  HW2   9011   4.923   0.898   0.189
 2253WAT  MW    9012   5.005   0.875   0.207
 2254WAT  OW    9013   5.023   1.251   6.135
 2254WAT  HW1   9014   5.039   1.330   6.085
 2254WAT  HW2   9015   5.084   1.187   6.099
 2254WAT  MW    9016   5.033   1.253   6.124
 2255WAT  OW    9017   0.416   5.540   6.164
 2255WAT  HW1   9018   0.350   5.594   6.123
 2255WAT  HW2   9019   0.472   5.602   6.211
 2255WAT  MW    9020   0.415   5.555   6.165
 2256WAT  OW    9021   5.217   1.608   3.708
 2256WAT  HW1   9022   5.186   1.656   3.631
 2256WAT  HW2   9023   5.305   1.643   3.724
 2256WAT  MW    9024   5.225   1.619   3.700
 2257WAT  OW    9025   2.802   3.242   3.396
 2257WAT  HW1   9026   2.791   3.148   3.381
 2257WAT  HW2   9027   2.730   3.266   3.455
 2257WAT  MW    9028   2.791   3.233   3.402
 2258WAT  OW    9029   5.000   1.518   2.752
 2258WAT  HW1   9030   5.016   1.433   2.795
 2258WAT  HW2   9031   4.984   1.578   2.825
 2258WAT  MW    9032   5.000   1.515   2.768
 2259WAT  OW    9033   4.892   6.260   5.940
 2259WAT  HW1   9034   4.829   6.312   5.991
 2259WAT  HW2   9035   4.844   6.236   5.861
 2259WAT  MW    9036   4.877   6.264   5.936
 2260WAT  OW    9037   1.472   2.338   5.922
 2260WAT  HW1   9038   1.378   2.319   5.927
 2260WAT  HW2   9039   1.504   2.326   6.012
 2260WAT  MW    9040   1.464   2.334   5.935
 2261WAT  OW    9041   1.663   2.609   1.903
 2261WAT  HW1   9042   1.706   2.587   1.986
 2261WAT  HW2   9043   1.719   2.676   1.864
 2261WAT  MW    9044   1.676   2.615   1.909
 2262WAT  OW    9045   4.348   0.162   2.997
 2262WAT  HW1   9046   4.319   0.165   3.088
 2262WAT  HW2   9047   4.278   0.205   2.948
 2262WAT  MW    9048   4.335   0.168   3.002
 2263WAT  OW    9049   1.097   3.881   0.425
 2263WAT  HW1   9050   1.114   3.974   0.408
 2263WAT  HW2   9051   1.183   3.839   0.418
 2263WAT  MW    9052   1.111   3.888   0.422
 2264WAT  OW    9053   5.400   1.447   4.211
 2264WAT  HW1   9054   5.459   1.424   4.139
 2264WAT  HW2   9055   5.389   1.366   4.260
 2264WAT  MW    9056   5.407   1.434   4.208
 2265WAT  OW    9057   5.811   4.981   6.553
 2265WAT  HW1   9058   5.884   4.919   6.550
 2265WAT  HW2   9059   5.804   5.006   6.645
 2265WAT  MW    9060   5.820   4.976   6.565
 2266WAT  OW    9061   1.815   2.918   5.457
 2266WAT  HW1   9062   1.838   2.903   5.549
 2266WAT  HW2   9063   1.877   2.866   5.407
 2266WAT  MW    9064   1.826   2.909   5.463
 2267WAT  OW    9065   5.843   1.596   5.595
 2267WAT  HW1   9066   5.857   1.516   5.545
 2267WAT  HW2   9067   5.763   1.581   5.645
 2267WAT  MW    9068   5.834   1.584   5.595
 2268WAT  OW    9069   6.358   3.919   5.516
 2268WAT  HW1   9070   6.370   3.928   5.610
 2268WAT  HW2   9071   6.356   4.009   5.483
 2268WAT  MW    9072   6.359   3.932   5.524
 2269WAT  OW    9073   3.570   4.265   3.789
 2269WAT  HW1   9074   3.512   4.333   3.824
 2269WAT  HW2   9075   3.514   4.213   3.732
 2269WAT  MW    9076   3.555   4.267   3.786
 2270WAT  OW    9077   0.865   3.177   4.690
 2270WAT  HW1   9078   0.839   3.210   4.604
 2270WAT  HW2   9079   0.881   3.084   4.676
 2270WAT  MW    9080   0.864   3.169   4.677
 2271WAT  OW    9081   6.164   4.574   5.704
 2271WAT  HW1   9082   6.127   4.554   5.618
 2271WAT  HW2   9083   6.145   4.496   5.756
 2271WAT  MW    9084   6.157   4.561   5.700
 2272WAT  OW    9085   2.012   4.578   5.116
 2272WAT  HW1   9086   2.001   4.602   5.208
 2272WAT  HW2   9087   1.964   4.496   5.107
 2272WAT  MW    9088   2.004   4.571   5.127
 2273WAT  OW    9089   0.305   0.806   4.627
 2273WAT  HW1   9090   0.365   0.788   4.699
 2273WAT  HW2   9091   0.299   0.902   4.624
 2273WAT  MW    9092   0.312   0.816   4.636
 2274WAT  OW    9093   0.372   5.971   0.348
 2274WAT  HW1   9094   0.391   5.881   0.376
 2274WAT  HW2   9095   0.293   5.963   0.294
 2274WAT  MW    9096   0.364   5.958   0.345
 2275WAT  OW    9097   5.574   3.573   3.771
 2275WAT  HW1   9098   5.611   3.588   3.858
 2275WAT  HW2   9099   5.539   3.658   3.746
 2275WAT  MW    9100   5.574   3.586   3.779
 2276WAT  OW    9101   3.815   2.688   1.635
 2276WAT  HW1   9102   3.851   2.676   1.722
 2276WAT  HW2   9103   3.727   2.721   1.650
 2276WAT  MW    9104   3.808   2.691   1.648
 2277WAT  OW    9105   5.344   0.525   6.265
 2277WAT  HW1   9106   5.266   0.532   6.210
 2277WAT  HW2   9107   5.399   0.461   6.219
 2277WAT  MW    9108   5.341   0.517   6.252
 2278WAT  OW    9109   6.258   2.655   2.701
 2278WAT  HW1   9110   6.291   2.744   2.710
 2278WAT  HW2   9111   6.166   2.660   2.726
 2278WAT  MW    9112   6.250   2.667   2.705
 2279WAT  OW    9113   0.636   5.824   1.652
 2279WAT  HW1   9114   0.674   5.844   1.566
 2279WAT  HW2   9115   0.545   5.854   1.646
 2279WAT  MW    9116   0.629   5.830   1.640
 2280WAT  OW    9117   1.423   2.792   6.047
 2280WAT  HW1   9118   1.408   2.868   5.992
 2280WAT  HW2   9119   1.439   2.720   5.985
 2280WAT  MW    9120   1.423   2.792   6.032
 2281WAT  OW    9121   5.078   4.464   5.419
 2281WAT  HW1   9122   5.001   4.502   5.376
 2281WAT  HW2   9123   5.054   4.372   5.433
 2281WAT  MW    9124   5.065   4.456   5.415
 2282WAT  OW    9125   0.233   5.144   1.901
 2282WAT  HW1   9126   0.162   5.201   1.931
 2282WAT  HW2   9127   0.219   5.062   1.948
 2282WAT  MW    9128   0.222   5.141   1.911
 2283WAT  OW    9129   1.175   3.487   0.386
 2283WAT  HW1   9130   1.189   3.440   0.468
 2283WAT  HW2   9131   1.116   3.431   0.336
 2283WAT  MW    9132   1.169   3.474   0.390
 2284WAT  OW    9133   0.743   3.556   3.897
 2284WAT  HW1   9134   0.718   3.464   3.907
 2284WAT  HW2   9135   0.742   3.592   3.985
 2284WAT  MW    9136   0.740   3.548   3.910
 2285WAT  OW    9137   5.814   4.606   5.967
 2285WAT  HW1   9138   5.907   4.627   5.969
 2285WAT  HW2   9139   5.773   4.671   6.025
 2285WAT  MW    9140   5.821   4.617   5.975
 2286WAT  OW    9141   0.393   0.831   6.610
 2286WAT  HW1   9142   0.421   0.768   6.676
 2286WAT  HW2   9143   0.371   0.778   6.534
 2286WAT  MW    9144   0.394   0.816   6.609
 2287WAT  OW    9145   3.593   2.229   0.778
 2287WAT  HW1   9146   3.624   2.162   0.718
 2287WAT  HW2   9147   3.625   2.202   0.864
 2287WAT  MW    9148   3.601   2.217   0.781
 2288WAT  OW    9149   4.011   5.673   4.036
 2288WAT  HW1   9150   4.033   5.740   4.101
 2288WAT  HW2   9151   3.916   5.682   4.024
 2288WAT  MW    9152   4.001   5.683   4.043
 2289WAT  OW    9153   0.396   3.181   2.691
 2289WAT  HW1   9154   0.327   3.231   2.736
 2289WAT  HW2   9155   0.454   3.248   2.656
 2289WAT  MW    9156   0.395   3.197   2.692
 2290WAT  OW    9157   2.873   4.708   5.278
 2290WAT  HW1   9158   2.905   4.629   5.321
 2290WAT  HW2   9159   2.938   4.726   5.209
 2290WAT  MW    9160   2.886   4.700   5.274
 2291WAT  OW    9161   5.879   1.941   1.608
 2291WAT  HW1   9162   5.943   1.895   1.662
 2291WAT  HW2   9163   5.929   2.012   1.567
 2291WAT  MW    9164   5.894   1.945   1.610
 2292WAT  OW    9165   0.565   4.134   4.806
 2292WAT  HW1   9166   0.583   4.193   4.733
 2292WAT  HW2   9167   0.495   4.177   4.855
 2292WAT  MW    9168   0.558   4.147   4.803
 2293WAT  OW    9169   4.988   5.610   5.037
 2293WAT  HW1   9170   4.906   5.589   4.994
 2293WAT  HW2   9171   5.019   5.527   5.073
 2293WAT  MW    9172   4.982   5.596   5.036
 2294WAT  OW    9173   1.768   1.096   6.463
 2294WAT  HW1   9174   1.828   1.037   6.509
 2294WAT  HW2   9175   1.761   1.172   6.521
 2294WAT  MW    9176   1.775   1.098   6.477
 2295WAT  OW    9177   4.011   6.116   4.000
 2295WAT  HW1   9178   3.943   6.072   4.050
 2295WAT  HW2   9179   3.992   6.094   3.908
 2295WAT  MW    9180   4.000   6.107   3.994
 2296WAT  OW    9181   1.026   6.101   5.405
 2296WAT  HW1   9182   1.083   6.035   5.444
 2296WAT  HW2   9183   0.987   6.057   5.329
 2296WAT  MW    9184   1.028   6.086   5.400
 2297WAT  OW    9185   6.619   2.565   0.657
 2297WAT  HW1   9186   6.528   2.581   0.681
 2297WAT  HW2   9187   6.621   2.473   0.629
 2297WAT  MW    9188   6.607   2.555   0.656
 2298WAT  OW    9189   1.124   3.124   0.130
 2298WAT  HW1   9190   1.053   3.146   0.070
 2298WAT  HW2   9191   1.193   3.187   0.109
 2298WAT  MW    9192   1.124   3.135   0.119
 2299WAT  OW    9193   4.558   0.144   0.719
 2299WAT  HW1   9194   4.475   0.190   0.712
 2299WAT  HW2   9195   4.623   0.206   0.687
 2299WAT  MW    9196   4.556   0.158   0.714
 2300WAT  OW    9197   1.085   6.613   1.600
 2300WAT  HW1   9198   1.008   6.613   1.544
 2300WAT  HW2   9199   1.145   6.551   1.558
 2300WAT  MW    9200   1.083   6.605   1.587
 2301WAT  OW    9201   6.031   0.562   3.819
 2301WAT  HW1   9202   6.082   0.518   3.887
 2301WAT  HW2   9203   6.034   0.502   3.744
 2301WAT  MW    9204   6.038   0.549   3.818
 2302WAT  OW    9205   1.807   0.325   2.354
 2302WAT  HW1   9206   1.852   0.253   2.310
 2302WAT  HW2   9207   1.811   0.303   2.447
 2302WAT  MW    9208   1.814   0.313   2.360
 2303WAT  OW    9209   1.379   1.008   4.700
 2303WAT  HW1   9210   1.332   1.090   4.687
 2303WAT  HW2   9211   1.470   1.029   4.680
 2303WAT  MW    9212   1.385   1.021   4.696
 2304WAT  OW    9213   0.355   4.070   0.806
 2304WAT  HW1   9214   0.364   3.979   0.835
 2304WAT  HW2   9215   0.342   4.064   0.712
 2304WAT  MW    9216   0.355   4.058   0.798
 2305WAT  OW    9217   3.644   4.713   5.139
 2305WAT  HW1   9218   3.581   4.678   5.075
 2305WAT  HW2   9219   3.598   4.710   5.222
 2305WAT  MW    9220   3.630   4.708   5.141
 2306WAT  OW    9221   4.353   4.554   3.155
 2306WAT  HW1   9222   4.346   4.459   3.168
 2306WAT  HW2   9223   4.270   4.578   3.113
 2306WAT  MW    9224   4.341   4.545   3.151
 2307WAT  OW    9225   1.358   5.448   1.240
 2307WAT  HW1   9226   1.271   5.474   1.269
 2307WAT  HW2   9227   1.408   5.530   1.238
 2307WAT  MW    9228   1.353   5.462   1.243
 2308WAT  OW    9229   3.281   4.966   6.696
 2308WAT  HW1   9230   3.244   5.046   6.660
 2308WAT  HW2   9231   3.281   4.980   6.791
 2308WAT  MW    9232   3.276   4.978   6.704
 2309WAT  OW    9233   5.176   0.818   2.668
 2309WAT  HW1   9234   5.100   0.769   2.701
 2309WAT  HW2   9235   5.190   0.783   2.580
 2309WAT  MW    9236   5.168   0.807   2.661
 2310WAT  OW    9237   4.298   3.402   2.372
 2310WAT  HW1   9238   4.284   3.491   2.405
 2310WAT  HW2   9239   4.220   3.384   2.319
 2310WAT  MW    9240   4.286   3.412   2.369
 2311WAT  OW    9241   6.608   1.342   2.742
 2311WAT  HW1   9242   6.599   1.246   2.737
 2311WAT  HW2   9243   6.690   1.361   2.696
 2311WAT  MW    9244   6.617   1.332   2.735
 2312WAT  OW    9245   0.793   0.445   3.083
 2312WAT  HW1   9246   0.862   0.412   3.025
 2312WAT  HW2   9247   0.714   0.400   3.056
 2312WAT  MW    9248   0.792   0.435   3.071
 2313WAT  OW    9249   4.256   3.138   0.886
 2313WAT  HW1   9250   4.276   3.140   0.792
 2313WAT  HW2   9251   4.167   3.105   0.891
 2313WAT  MW    9252   4.247   3.134   0.874
 2314WAT  OW    9253   5.979   0.932   6.341
 2314WAT  HW1   9254   6.026   0.854   6.311
 2314WAT  HW2   9255   5.886   0.908   6.333
 2314WAT  MW    9256   5.973   0.918   6.336
 2315WAT  OW    9257   0.366   1.261   2.709
 2315WAT  HW1   9258   0.341   1.245   2.800
 2315WAT  HW2   9259   0.429   1.333   2.713
 2315WAT  MW    9260   0.371   1.268   2.721
 2316WAT  OW    9261   2.857   6.590   5.298
 2316WAT  HW1   9262   2.919   6.580   5.226
 2316WAT  HW2   9263   2.889   6.530   5.365
 2316WAT  MW    9264   2.869   6.580   5.297
 2317WAT  OW    9265   0.347   3.003   3.303
 2317WAT  HW1   9266   0.341   3.044   3.390
 2317WAT  HW2   9267   0.321   2.912   3.317
 2317WAT  MW    9268   0.343   2.997   3.316
 2318WAT  OW    9269   5.227   3.436   1.803
 2318WAT  HW1   9270   5.213   3.470   1.715
 2318WAT  HW2   9271   5.138   3.423   1.838
 2318WAT  MW    9272   5.213   3.438   1.796
 2319WAT  OW    9273   6.677   6.693   4.560
 2319WAT  HW1   9274   6.737   6.674   4.632
 2319WAT  HW2   9275   6.733   6.723   4.489
 2319WAT  MW    9276   6.692   6.694   4.560
 2320WAT  OW    9277   6.470   4.917   4.280
 2320WAT  HW1   9278   6.522   4.845   4.314
 2320WAT  HW2   9279   6.403   4.932   4.347
 2320WAT  MW    9280   6.468   4.910   4.293
 2321WAT  OW    9281   3.810   0.623   1.407
 2321WAT  HW1   9282   3.829   0.647   1.498
 2321WAT  HW2   9283   3.768   0.538   1.413
 2321WAT  MW    9284   3.807   0.615   1.420
 2322WAT  OW    9285   4.887   2.898   3.212
 2322WAT  HW1   9286   4.821   2.859   3.269
 2322WAT  HW2   9287   4.837   2.955   3.153
 2322WAT  MW    9288   4.871   2.900   3.212
 2323WAT  OW    9289   3.051   3.782   4.070
 2323WAT  HW1   9290   3.027   3.813   3.983
 2323WAT  HW2   9291   3.143   3.809   4.080
 2323WAT  MW    9292   3.060   3.790   4.060
 2324WAT  OW    9293   3.600   1.154   5.177
 2324WAT  HW1   9294   3.578   1.094   5.249
 2324WAT  HW2   9295   3.566   1.111   5.099
 2324WAT  MW    9296   3.593   1.141   5.176
 2325WAT  OW    9297   2.350   1.245   6.414
 2325WAT  HW1   9298   2.260   1.238   6.382
 2325WAT  HW2   9299   2.362   1.339   6.429
 2325WAT  MW    9300   2.339   1.257   6.411
 2326WAT  OW    9301   3.268   1.249   2.040
 2326WAT  HW1   9302   3.269   1.252   2.136
 2326WAT  HW2   9303   3.291   1.338   2.014
 2326WAT  MW    9304   3.271   1.261   2.049
 2327WAT  OW    9305   6.621   2.973   2.451
 2327WAT  HW1   9306   6.547   3.033   2.460
 2327WAT  HW2   9307   6.587   2.899   2.402
 2327WAT  MW    9308   6.607   2.971   2.446
 2328WAT  OW    9309   5.517   0.694   5.596
 2328WAT  HW1   9310   5.583   0.626   5.578
 2328WAT  HW2   9311   5.435   0.656   5.564
 2328WAT  MW    9312   5.515   0.680   5.589
 2329WAT  OW    9313   1.001   0.931   1.604
 2329WAT  HW1   9314   1.059   1.004   1.583
 2329WAT  HW2   9315   1.059   0.857   1.620
 2329WAT  MW    9316   1.016   0.931   1.604
 2330WAT  OW    9317   1.862   5.966   1.280
 2330WAT  HW1   9318   1.921   6.004   1.216
 2330WAT  HW2   9319   1.833   6.040   1.333
 2330WAT  MW    9320   1.866   5.980   1.279
 2331WAT  OW    9321   2.104   1.539   3.393
 2331WAT  HW1   9322   2.152   1.602   3.339
 2331WAT  HW2   9323   2.135   1.555   3.482
 2331WAT  MW    9324   2.114   1.550   3.398
 2332WAT  OW    9325   1.184   6.549   1.256
 2332WAT  HW1   9326   1.163   6.604   1.180
 2332WAT  HW2   9327   1.163   6.603   1.332
 2332WAT  MW    9328   1.179   6.564   1.256
 2333WAT  OW    9329   5.603   2.892   5.307
 2333WAT  HW1   9330   5.586   2.965   5.366
 2333WAT  HW2   9331   5.648   2.827   5.361
 2333WAT  MW    9332   5.607   2.893   5.322
 2334WAT  OW    9333   0.352   4.558   1.557
 2334WAT  HW1   9334   0.328   4.520   1.642
 2334WAT  HW2   9335   0.444   4.534   1.545
 2334WAT  MW    9336   0.361   4.550   1.567
 2335WAT  OW    9337   6.432   4.271   0.699
 2335WAT  HW1   9338   6.398   4.353   0.735
 2335WAT  HW2   9339   6.482   4.298   0.621
 2335WAT  MW    9340   6.434   4.285   0.693
 2336WAT  OW    9341   2.504   0.302   1.499
 2336WAT  HW1   9342   2.504   0.370   1.432
 2336WAT  HW2   9343   2.550   0.340   1.573
 2336WAT  MW    9344   2.510   0.316   1.500
 2337WAT  OW    9345   4.488   0.363   6.286
 2337WAT  HW1   9346   4.479   0.384   6.380
 2337WAT  HW2   9347   4.398   0.363   6.253
 2337WAT  MW    9348   4.475   0.366   6.294
 2338WAT  OW    9349   0.008   3.933   3.165
 2338WAT  HW1   9350  -0.085   3.951   3.178
 2338WAT  HW2   9351   0.051   3.979   3.237
 2338WAT  MW    9352   0.001   3.941   3.176
 2339WAT  OW    9353   2.524   3.339   4.674
 2339WAT  HW1   9354   2.551   3.252   4.643
 2339WAT  HW2   9355   2.510   3.327   4.768
 2339WAT  MW    9356   2.526   3.326   4.682
 2340WAT  OW    9357   2.441   1.155   6.074
 2340WAT  HW1   9358   2.378   1.224   6.056
 2340WAT  HW2   9359   2.389   1.085   6.115
 2340WAT  MW    9360   2.426   1.155   6.077
 2341WAT  OW    9361   5.204   1.121   3.559
 2341WAT  HW1   9362   5.230   1.212   3.548
 2341WAT  HW2   9363   5.265   1.086   3.625
 2341WAT  MW    9364   5.215   1.128   3.567
 2342WAT  OW    9365   4.219   5.487   2.665
 2342WAT  HW1   9366   4.197   5.466   2.574
 2342WAT  HW2   9367   4.134   5.488   2.710
 2342WAT  MW    9368   4.205   5.484   2.659
 2343WAT  OW    9369   5.466   4.643   1.782
 2343WAT  HW1   9370   5.415   4.564   1.801
 2343WAT  HW2   9371   5.551   4.626   1.822
 2343WAT  MW    9372   5.471   4.630   1.790
 2344WAT  OW    9373   2.558   1.494   0.695
 2344WAT  HW1   9374   2.544   1.489   0.789
 2344WAT  HW2   9375   2.607   1.415   0.673
 2344WAT  MW    9376   2.563   1.483   0.705
 2345WAT  OW    9377   3.509   4.766   0.358
 2345WAT  HW1   9378   3.428   4.734   0.318
 2345WAT  HW2   9379   3.534   4.840   0.304
 2345WAT  MW    9380   3.501   4.771   0.346
 2346WAT  OW    9381   1.016   2.638   2.694
 2346WAT  HW1   9382   0.935   2.687   2.709
 2346WAT  HW2   9383   1.082   2.706   2.677
 2346WAT  MW    9384   1.014   2.653   2.694
 2347WAT  OW    9385   4.882   4.479   1.508
 2347WAT  HW1   9386   4.825   4.499   1.434
 2347WAT  HW2   9387   4.968   4.465   1.469
 2347WAT  MW    9388   4.886   4.479   1.493
 2348WAT  OW    9389   1.548   4.396   2.975
 2348WAT  HW1   9390   1.530   4.474   3.027
 2348WAT  HW2   9391   1.553   4.325   3.040
 2348WAT  MW    9392   1.546   4.397   2.991
 2349WAT  OW    9393   6.079   1.649   4.259
 2349WAT  HW1   9394   6.093   1.555   4.269
 2349WAT  HW2   9395   5.987   1.662   4.282
 2349WAT  MW    9396   6.069   1.638   4.264
 2350WAT  OW    9397   3.893   0.367   2.906
 2350WAT  HW1   9398   3.961   0.301   2.895
 2350WAT  HW2   9399   3.940   0.446   2.932
 2350WAT  MW    9400   3.908   0.369   2.908
 2351WAT  OW    9401   0.576   2.062   4.944
 2351WAT  HW1   9402   0.655   2.047   4.995
 2351WAT  HW2   9403   0.506   2.023   4.997
 2351WAT  MW    9404   0.577   2.055   4.958
 2352WAT  OW    9405   3.969   1.730   0.178
 2352WAT  HW1   9406   3.958   1.804   0.118
 2352WAT  HW2   9407   4.015   1.664   0.126
 2352WAT  MW    9408   3.973   1.731   0.163
 2353WAT  OW    9409   6.104   3.506   4.998
 2353WAT  HW1   9410   6.096   3.412   5.015
 2353WAT  HW2   9411   6.163   3.537   5.067
 2353WAT  MW    9412   6.111   3.498   5.010
 2354WAT  OW    9413   6.063   2.305   4.144
 2354WAT  HW1   9414   6.156   2.283   4.138
 2354WAT  HW2   9415   6.034   2.312   4.054
 2354WAT  MW    9416   6.072   2.303   4.132
 2355WAT  OW    9417   6.632   5.316   0.993
 2355WAT  HW1   9418   6.570   5.245   0.977
 2355WAT  HW2   9419   6.711   5.290   0.947
 2355WAT  MW    9420   6.634   5.304   0.985
 2356WAT  OW    9421   5.497   3.488   5.073
 2356WAT  HW1   9422   5.561   3.553   5.044
 2356WAT  HW2   9423   5.522   3.469   5.163
 2356WAT  MW    9424   5.509   3.494   5.081
 2357WAT  OW    9425   2.090   2.169   2.658
 2357WAT  HW1   9426   2.123   2.099   2.714
 2357WAT  HW2   9427   2.117   2.145   2.570
 2357WAT  MW    9428   2.098   2.157   2.654
 2358WAT  OW    9429   5.898   2.719   3.040
 2358WAT  HW1   9430   5.845   2.798   3.023
 2358WAT  HW2   9431   5.978   2.733   2.990
 2358WAT  MW    9432   5.901   2.732   3.031
 2359WAT  OW    9433   1.902   4.832   4.896
 2359WAT  HW1   9434   1.837   4.873   4.839
 2359WAT  HW2   9435   1.981   4.828   4.842
 2359WAT  MW    9436   1.904   4.837   4.881
 2360WAT  OW    9437   3.496   1.846   3.698
 2360WAT  HW1   9438   3.514   1.907   3.769
 2360WAT  HW2   9439   3.566   1.861   3.635
 2360WAT  MW    9440   3.507   1.856   3.699
 2361WAT  OW    9441   1.028   5.721   0.238
 2361WAT  HW1   9442   1.102   5.663   0.255
 2361WAT  HW2   9443   0.965   5.668   0.191
 2361WAT  MW    9444   1.030   5.707   0.234
 2362WAT  OW    9445   0.799   3.479   2.259
 2362WAT  HW1   9446   0.743   3.530   2.201
 2362WAT  HW2   9447   0.753   3.479   2.343
 2362WAT  MW    9448   0.785   3.485   2.262
 2363WAT  OW    9449   4.166   4.880   4.131
 2363WAT  HW1   9450   4.209   4.873   4.046
 2363WAT  HW2   9451   4.125   4.794   4.144
 2363WAT  MW    9452   4.166   4.868   4.122
 2364WAT  OW    9453   2.134   5.644   4.829
 2364WAT  HW1   9454   2.063   5.707   4.845
 2364WAT  HW2   9455   2.098   5.559   4.854
 2364WAT  MW    9456   2.120   5.641   4.834
 2365WAT  OW    9457   3.383   5.800   6.308
 2365WAT  HW1   9458   3.411   5.709   6.308
 2365WAT  HW2   9459   3.417   5.836   6.390
 2365WAT  MW    9460   3.391   5.793   6.319
 2366WAT  OW    9461   3.685   3.424   3.217
 2366WAT  HW1   9462   3.660   3.403   3.307
 2366WAT  HW2   9463   3.711   3.516   3.220
 2366WAT  MW    9464   3.685   3.433   3.229
 2367WAT  OW    9465   6.263   1.715   0.784
 2367WAT  HW1   9466   6.195   1.740   0.846
 2367WAT  HW2   9467   6.240   1.761   0.703
 2367WAT  MW    9468   6.251   1.724   0.781
 2368WAT  OW    9469   4.975   4.202   5.502
 2368WAT  HW1   9470   4.946   4.143   5.572
 2368WAT  HW2   9471   5.042   4.153   5.455
 2368WAT  MW    9472   4.980   4.188   5.505
 2369WAT  OW    9473   5.903   1.562   0.742
 2369WAT  HW1   9474   5.943   1.482   0.776
 2369WAT  HW2   9475   5.908   1.624   0.814
 2369WAT  MW    9476   5.909   1.560   0.756
 2370WAT  OW    9477   5.310   4.275   4.376
 2370WAT  HW1   9478   5.256   4.351   4.398
 2370WAT  HW2   9479   5.397   4.311   4.359
 2370WAT  MW    9480   5.314   4.290   4.377
 2371WAT  OW    9481   0.975   5.187   0.505
 2371WAT  HW1   9482   1.005   5.224   0.421
 2371WAT  HW2   9483   0.938   5.101   0.481
 2371WAT  MW    9484   0.974   5.180   0.491
 2372WAT  OW    9485   2.802   0.158   5.354
 2372WAT  HW1   9486   2.806   0.062   5.362
 2372WAT  HW2   9487   2.880   0.181   5.304
 2372WAT  MW    9488   2.813   0.148   5.349
 2373WAT  OW    9489   5.935   6.519   2.216
 2373WAT  HW1   9490   5.999   6.582   2.250
 2373WAT  HW2   9491   5.960   6.436   2.256
 2373WAT  MW    9492   5.947   6.516   2.226
 2374WAT  OW    9493   1.860   2.376   2.891
 2374WAT  HW1   9494   1.779   2.350   2.935
 2374WAT  HW2   9495   1.894   2.448   2.943
 2374WAT  MW    9496   1.854   2.382   2.904
 2375WAT  OW    9497   2.431   2.889   3.113
 2375WAT  HW1   9498   2.465   2.822   3.172
 2375WAT  HW2   9499   2.400   2.840   3.036
 2375WAT  MW    9500   2.431   2.874   3.110
 2376WAT  OW    9501   1.922   0.042   1.758
 2376WAT  HW1   9502   1.961  -0.001   1.834
 2376WAT  HW2   9503   1.851   0.095   1.794
 2376WAT  MW    9504   1.918   0.043   1.772
 2377WAT  OW    9505   6.636   6.246   1.760
 2377WAT  HW1   9506   6.581   6.321   1.781
 2377WAT  HW2   9507   6.579   6.170   1.772
 2377WAT  MW    9508   6.621   6.246   1.765
 2378WAT  OW    9509   5.983   3.870   5.418
 2378WAT  HW1   9510   5.908   3.839   5.367
 2378WAT  HW2   9511   6.058   3.823   5.381
 2378WAT  MW    9512   5.983   3.860   5.407
 2379WAT  OW    9513   2.573   3.536   0.424
 2379WAT  HW1   9514   2.552   3.456   0.472
 2379WAT  HW2   9515   2.543   3.518   0.335
 2379WAT  MW    9516   2.566   3.523   0.419
 2380WAT  OW    9517   1.824   5.699   5.482
 2380WAT  HW1   9518   1.898   5.714   5.542
 2380WAT  HW2   9519   1.855   5.632   5.422
 2380WAT  MW    9520   1.838   5.693   5.482
 2381WAT  OW    9521   0.557   2.526   6.050
 2381WAT  HW1   9522   0.603   2.444   6.067
 2381WAT  HW2   9523   0.471   2.515   6.091
 2381WAT  MW    9524   0.552   2.514   6.058
 2382WAT  OW    9525   0.092   2.045   6.156
 2382WAT  HW1   9526   0.058   1.973   6.210
 2382WAT  HW2   9527   0.015   2.097   6.134
 2382WAT  MW    9528   0.077   2.042   6.160
 2383WAT  OW    9529   4.661   0.901   2.712
 2383WAT  HW1   9530   4.586   0.855   2.674
 2383WAT  HW2   9531   4.622   0.975   2.759
 2383WAT  MW    9532   4.646   0.905   2.713
 2384WAT  OW    9533   4.023   0.997   4.907
 2384WAT  HW1   9534   4.009   0.958   4.821
 2384WAT  HW2   9535   3.935   1.006   4.944
 2384WAT  MW    9536   4.010   0.993   4.900
 2385WAT  OW    9537   5.484   3.227   2.916
 2385WAT  HW1   9538   5.537   3.219   2.995
 2385WAT  HW2   9539   5.547   3.218   2.844
 2385WAT  MW    9540   5.500   3.225   2.917
 2386WAT  OW    9541   1.898   1.461   4.676
 2386WAT  HW1   9542   1.824   1.417   4.634
 2386WAT  HW2   9543   1.969   1.458   4.612
 2386WAT  MW    9544   1.898   1.455   4.662
 2387WAT  OW    9545   3.013   6.474   6.383
 2387WAT  HW1   9546   3.061   6.436   6.457
 2387WAT  HW2   9547   2.962   6.402   6.347
 2387WAT  MW    9548   3.013   6.459   6.388
 2388WAT  OW    9549   1.522   6.557   2.344
 2388WAT  HW1   9550   1.604   6.545   2.391
 2388WAT  HW2   9551   1.477   6.626   2.392
 2388WAT  MW    9552   1.527   6.564   2.357
 2389WAT  OW    9553   6.114   5.532   3.044
 2389WAT  HW1   9554   6.091   5.612   2.995
 2389WAT  HW2   9555   6.129   5.562   3.133
 2389WAT  MW    9556   6.113   5.547   3.049
 2390WAT  OW    9557   4.700   4.459   2.161
 2390WAT  HW1   9558   4.704   4.455   2.257
 2390WAT  HW2   9559   4.791   4.445   2.133
 2390WAT  MW    9560   4.713   4.456   2.170
 2391WAT  OW    9561   0.468   4.860   5.788
 2391WAT  HW1   9562   0.401   4.929   5.789
 2391WAT  HW2   9563   0.446   4.806   5.712
 2391WAT  MW    9564   0.456   4.862   5.778
 2392WAT  OW    9565   3.717   4.591   0.597
 2392WAT  HW1   9566   3.767   4.616   0.675
 2392WAT  HW2   9567   3.784   4.574   0.531
 2392WAT  MW    9568   3.733   4.592   0.599
 2393WAT  OW    9569   0.884   2.981   1.091
 2393WAT  HW1   9570   0.812   2.936   1.047
 2393WAT  HW2   9571   0.913   3.047   1.029
 2393WAT  MW    9572   0.878   2.984   1.077
 2394WAT  OW    9573   1.205   2.341   0.077
 2394WAT  HW1   9574   1.274   2.292   0.122
 2394WAT  HW2   9575   1.250   2.417   0.039
 2394WAT  MW    9576   1.220   2.344   0.078
 2395WAT  OW    9577   2.414   1.967   3.719
 2395WAT  HW1   9578   2.367   1.968   3.802
 2395WAT  HW2   9579   2.505   1.951   3.743
 2395WAT  MW    9580   2.420   1.965   3.733
 2396WAT  OW    9581   2.895   1.279   1.256
 2396WAT  HW1   9582   2.897   1.252   1.165
 2396WAT  HW2   9583   2.985   1.266   1.287
 2396WAT  MW    9584   2.907   1.274   1.248
 2397WAT  OW    9585   6.510   0.255   1.768
 2397WAT  HW1   9586   6.517   0.236   1.675
 2397WAT  HW2   9587   6.450   0.329   1.774
 2397WAT  MW    9588   6.503   0.262   1.757
 2398WAT  OW    9589   1.259   4.489   6.235
 2398WAT  HW1   9590   1.306   4.546   6.296
 2398WAT  HW2   9591   1.215   4.425   6.290
 2398WAT  MW    9592   1.260   4.488   6.250
 2399WAT  OW    9593   3.489   2.273   4.947
 2399WAT  HW1   9594   3.524   2.249   4.861
 2399WAT  HW2   9595   3.549   2.340   4.979
 2399WAT  MW    9596   3.501   2.279   4.940
 2400WAT  OW    9597   2.026   4.923   5.762
 2400WAT  HW1   9598   2.068   4.848   5.720
 2400WAT  HW2   9599   1.935   4.896   5.774
 2400WAT  MW    9600   2.020   4.910   5.758
 2401WAT  OW    9601   0.381   4.574   5.189
 2401WAT  HW1   9602   0.297   4.538   5.160
 2401WAT  HW2   9603   0.359   4.631   5.262
 2401WAT  MW    9604   0.367   4.577   5.195
 2402WAT  OW    9605   0.167   6.457   1.259
 2402WAT  HW1   9606   0.169   6.512   1.180
 2402WAT  HW2   9607   0.180   6.368   1.226
 2402WAT  MW    9608   0.169   6.452   1.244
 2403WAT  OW    9609   6.241   0.431   0.160
 2403WAT  HW1   9610   6.205   0.493   0.224
 2403WAT  HW2   9611   6.183   0.439   0.084
 2403WAT  MW    9612   6.229   0.441   0.158
 2404WAT  OW    9613   0.913   6.512   6.216
 2404WAT  HW1   9614   0.968   6.547   6.147
 2404WAT  HW2   9615   0.939   6.421   6.224
 2404WAT  MW    9616   0.923   6.505   6.208
 2405WAT  OW    9617   0.318   4.298   1.388
 2405WAT  HW1   9618   0.317   4.329   1.297
 2405WAT  HW2   9619   0.343   4.374   1.439
 2405WAT  MW    9620   0.321   4.312   1.382
 2406WAT  OW    9621   3.812   2.653   0.076
 2406WAT  HW1   9622   3.886   2.695   0.120
 2406WAT  HW2   9623   3.767   2.725   0.031
 2406WAT  MW    9624   3.816   2.668   0.076
 2407WAT  OW    9625   5.999   5.563   1.976
 2407WAT  HW1   9626   6.062   5.578   1.906
 2407WAT  HW2   9627   6.020   5.475   2.009
 2407WAT  MW    9628   6.010   5.553   1.971
 2408WAT  OW    9629   5.284   0.194   5.421
 2408WAT  HW1   9630   5.311   0.146   5.499
 2408WAT  HW2   9631   5.364   0.235   5.389
 2408WAT  MW    9632   5.298   0.193   5.427
 2409WAT  OW    9633   3.393   3.040   1.708
 2409WAT  HW1   9634   3.442   3.119   1.688
 2409WAT  HW2   9635   3.352   3.058   1.793
 2409WAT  MW    9636   3.394   3.053   1.717
 2410WAT  OW    9637   3.257   4.146   5.557
 2410WAT  HW1   9638   3.169   4.179   5.542
 2410WAT  HW2   9639   3.315   4.216   5.527
 2410WAT  MW    9640   3.253   4.159   5.551
 2411WAT  OW    9641   4.323   1.864   0.303
 2411WAT  HW1   9642   4.238   1.876   0.346
 2411WAT  HW2   9643   4.304   1.869   0.210
 2411WAT  MW    9644   4.310   1.866   0.296
 2412WAT  OW    9645   5.345   5.470   5.380
 2412WAT  HW1   9646   5.375   5.443   5.293
 2412WAT  HW2   9647   5.367   5.397   5.437
 2412WAT  MW    9648   5.352   5.457   5.376
 2413WAT  OW    9649   1.917   3.841   2.702
 2413WAT  HW1   9650   1.822   3.848   2.698
 2413WAT  HW2   9651   1.939   3.781   2.631
 2413WAT  MW    9652   1.907   3.834   2.692
 2414WAT  OW    9653   3.139   5.208   3.901
 2414WAT  HW1   9654   3.213   5.267   3.914
 2414WAT  HW2   9655   3.101   5.197   3.988
 2414WAT  MW    9656   3.144   5.214   3.914
 2415WAT  OW    9657   4.967   3.373   2.176
 2415WAT  HW1   9658   4.960   3.285   2.213
 2415WAT  HW2   9659   5.058   3.398   2.191
 2415WAT  MW    9660   4.978   3.365   2.183
 2416WAT  OW    9661   6.308   2.920   2.746
 2416WAT  HW1   9662   6.377   2.986   2.746
 2416WAT  HW2   9663   6.253   2.943   2.671
 2416WAT  MW    9664   6.310   2.932   2.736
 2417WAT  OW    9665   5.002   2.916   2.164
 2417WAT  HW1   9666   5.098   2.916   2.172
 2417WAT  HW2   9667   4.973   2.988   2.219
 2417WAT  MW    9668   5.011   2.925   2.172
 2418WAT  OW    9669   1.337   6.623   4.001
 2418WAT  HW1   9670   1.362   6.567   4.075
 2418WAT  HW2   9671   1.248   6.652   4.022
 2418WAT  MW    9672   1.329   6.620   4.014
 2419WAT  OW    9673   0.423   0.055   6.136
 2419WAT  HW1   9674   0.354   0.056   6.202
 2419WAT  HW2   9675   0.491  -0.001   6.173
 2419WAT  MW    9676   0.423   0.048   6.149
 2420WAT  OW    9677   5.208   4.973   1.344
 2420WAT  HW1   9678   5.270   5.038   1.376
 2420WAT  HW2   9679   5.138   5.025   1.303
 2420WAT  MW    9680   5.207   4.988   1.343
 2421WAT  OW    9681   0.058   5.878   2.938
 2421WAT  HW1   9682   0.074   5.858   3.031
 2421WAT  HW2   9683   0.143   5.862   2.896
 2421WAT  MW    9684   0.071   5.873   2.945
 2422WAT  OW    9685   3.732   0.560   2.068
 2422WAT  HW1   9686   3.664   0.495   2.053
 2422WAT  HW2   9687   3.704   0.637   2.018
 2422WAT  MW    9688   3.719   0.562   2.060
 2423WAT  OW    9689   3.081   6.557   2.485
 2423WAT  HW1   9690   3.172   6.555   2.457
 2423WAT  HW2   9691   3.069   6.643   2.525
 2423WAT  MW    9692   3.091   6.568   2.487
 2424WAT  OW    9693   4.239   3.970   3.984
 2424WAT  HW1   9694   4.155   4.017   3.979
 2424WAT  HW2   9695   4.226   3.906   4.054
 2424WAT  MW    9696   4.226   3.968   3.993
 2425WAT  OW    9697   5.874   0.276   6.655
 2425WAT  HW1   9698   5.860   0.332   6.731
 2425WAT  HW2   9699   5.921   0.200   6.690
 2425WAT  MW    9700   5.878   0.273   6.670
 2426WAT  OW    9701   4.715   6.097   3.936
 2426WAT  HW1   9702   4.656   6.025   3.915
 2426WAT  HW2   9703   4.713   6.102   4.032
 2426WAT  MW    9704   4.707   6.088   3.946
 2427WAT  OW    9705   3.642   5.152   5.383
 2427WAT  HW1   9706   3.715   5.122   5.438
 2427WAT  HW2   9707   3.675   5.144   5.293
 2427WAT  MW    9708   3.656   5.147   5.378
 2428WAT  OW    9709   1.220   5.410   2.168
 2428WAT  HW1   9710   1.193   5.321   2.192
 2428WAT  HW2   9711   1.152   5.439   2.107
 2428WAT  MW    9712   1.207   5.402   2.163
 2429WAT  OW    9713   5.180   5.517   6.671
 2429WAT  HW1   9714   5.228   5.473   6.740
 2429WAT  HW2   9715   5.089   5.494   6.686
 2429WAT  MW    9716   5.175   5.508   6.682
 2430WAT  OW    9717   3.444   1.915   1.548
 2430WAT  HW1   9718   3.416   1.844   1.491
 2430WAT  HW2   9719   3.394   1.991   1.518
 2430WAT  MW    9720   3.434   1.916   1.536
 2431WAT  OW    9721   3.658   4.478   1.005
 2431WAT  HW1   9722   3.585   4.511   1.056
 2431WAT  HW2   9723   3.640   4.384   0.996
 2431WAT  MW    9724   3.646   4.470   1.010
 2432WAT  OW    9725   0.989   2.547   2.959
 2432WAT  HW1   9726   0.963   2.621   3.014
 2432WAT  HW2   9727   1.019   2.587   2.878
 2432WAT  MW    9728   0.990   2.562   2.956
 2433WAT  OW    9729   3.203   2.448   2.075
 2433WAT  HW1   9730   3.145   2.387   2.122
 2433WAT  HW2   9731   3.143   2.514   2.040
 2433WAT  MW    9732   3.187   2.449   2.077
 2434WAT  OW    9733   4.633   0.077   0.194
 2434WAT  HW1   9734   4.638   0.168   0.165
 2434WAT  HW2   9735   4.649   0.025   0.115
 2434WAT  MW    9736   4.636   0.082   0.180
 2435WAT  OW    9737   6.483   0.193   2.390
 2435WAT  HW1   9738   6.562   0.164   2.437
 2435WAT  HW2   9739   6.498   0.167   2.299
 2435WAT  MW    9740   6.496   0.186   2.384
 2436WAT  OW    9741   6.607   4.928   1.837
 2436WAT  HW1   9742   6.664   4.978   1.779
 2436WAT  HW2   9743   6.598   4.842   1.795
 2436WAT  MW    9744   6.613   4.923   1.824
 2437WAT  OW    9745   3.371   5.282   0.407
 2437WAT  HW1   9746   3.439   5.292   0.340
 2437WAT  HW2   9747   3.292   5.260   0.358
 2437WAT  MW    9748   3.369   5.280   0.392
 2438WAT  OW    9749   6.532   5.803   4.288
 2438WAT  HW1   9750   6.455   5.778   4.340
 2438WAT  HW2   9751   6.560   5.887   4.324
 2438WAT  MW    9752   6.526   5.811   4.300
 2439WAT  OW    9753   5.890   2.367   5.598
 2439WAT  HW1   9754   5.942   2.290   5.619
 2439WAT  HW2   9755   5.954   2.438   5.591
 2439WAT  MW    9756   5.905   2.366   5.600
 2440WAT  OW    9757   1.637   2.911   0.631
 2440WAT  HW1   9758   1.586   2.991   0.621
 2440WAT  HW2   9759   1.577   2.851   0.676
 2440WAT  MW    9760   1.622   2.913   0.636
 2441WAT  OW    9761   0.894   4.924   3.003
 2441WAT  HW1   9762   0.800   4.940   3.013
 2441WAT  HW2   9763   0.932   4.956   3.084
 2441WAT  MW    9764   0.886   4.931   3.015
 2442WAT  OW    9765   3.896   5.800   0.240
 2442WAT  HW1   9766   3.837   5.789   0.314
 2442WAT  HW2   9767   3.874   5.730   0.179
 2442WAT  MW    9768   3.885   5.790   0.242
 2443WAT  OW    9769   2.987   1.392   2.378
 2443WAT  HW1   9770   2.903   1.439   2.378
 2443WAT  HW2   9771   2.971   1.313   2.328
 2443WAT  MW    9772   2.974   1.388   2.371
 2444WAT  OW    9773   4.251   3.120   1.590
 2444WAT  HW1   9774   4.318   3.139   1.656
 2444WAT  HW2   9775   4.198   3.050   1.629
 2444WAT  MW    9776   4.253   3.113   1.603
 2445WAT  OW    9777   2.060   4.171   6.182
 2445WAT  HW1   9778   2.090   4.239   6.122
 2445WAT  HW2   9779   2.140   4.124   6.207
 2445WAT  MW    9780   2.075   4.174   6.177
 2446WAT  OW    9781   3.861   4.698   4.974
 2446WAT  HW1   9782   3.797   4.694   5.045
 2446WAT  HW2   9783   3.915   4.774   4.995
 2446WAT  MW    9784   3.859   4.708   4.986
 2447WAT  OW    9785   0.121   5.929   0.588
 2447WAT  HW1   9786   0.032   5.946   0.560
 2447WAT  HW2   9787   0.121   5.949   0.682
 2447WAT  MW    9788   0.109   5.934   0.597
 2448WAT  OW    9789   3.480   0.508   5.262
 2448WAT  HW1   9790   3.508   0.416   5.254
 2448WAT  HW2   9791   3.522   0.552   5.189
 2448WAT  MW    9792   3.489   0.502   5.251
 2449WAT  OW    9793   0.281   6.413   2.054
 2449WAT  HW1   9794   0.282   6.396   1.960
 2449WAT  HW2   9795   0.264   6.328   2.094
 2449WAT  MW    9796   0.279   6.400   2.047
 2450WAT  OW    9797   3.534   6.637   4.388
 2450WAT  HW1   9798   3.548   6.713   4.445
 2450WAT  HW2   9799   3.465   6.666   4.328
 2450WAT  MW    9800   3.527   6.651   4.388
 2451WAT  OW    9801   2.678   3.791   1.323
 2451WAT  HW1   9802   2.688   3.882   1.350
 2451WAT  HW2   9803   2.735   3.781   1.247
 2451WAT  MW    9804   2.687   3.802   1.316
 2452WAT  OW    9805   0.999   5.066   2.005
 2452WAT  HW1   9806   0.905   5.052   1.993
 2452WAT  HW2   9807   1.033   5.073   1.916
 2452WAT  MW    9808   0.991   5.065   1.991
 2453WAT  OW    9809   6.252   1.510   2.552
 2453WAT  HW1   9810   6.314   1.505   2.479
 2453WAT  HW2   9811   6.171   1.472   2.516
 2453WAT  MW    9812   6.249   1.504   2.537
 2454WAT  OW    9813   5.639   0.370   1.733
 2454WAT  HW1   9814   5.564   0.337   1.683
 2454WAT  HW2   9815   5.708   0.384   1.667
 2454WAT  MW    9816   5.638   0.367   1.717
 2455WAT  OW    9817   2.042   3.425   0.139
 2455WAT  HW1   9818   2.074   3.354   0.083
 2455WAT  HW2   9819   2.048   3.503   0.084
 2455WAT  MW    9820   2.047   3.426   0.124
 2456WAT  OW    9821   5.750   5.305   5.616
 2456WAT  HW1   9822   5.667   5.260   5.601
 2456WAT  HW2   9823   5.760   5.362   5.540
 2456WAT  MW    9824   5.741   5.306   5.604
 2457WAT  OW    9825   1.206   0.350   3.915
 2457WAT  HW1   9826   1.265   0.338   3.989
 2457WAT  HW2   9827   1.211   0.268   3.866
 2457WAT  MW    9828   1.215   0.338   3.918
 2458WAT  OW    9829   5.814   0.299   2.546
 2458WAT  HW1   9830   5.868   0.232   2.587
 2458WAT  HW2   9831   5.830   0.290   2.453
 2458WAT  MW    9832   5.823   0.289   2.539
 2459WAT  OW    9833   4.746   2.061   1.430
 2459WAT  HW1   9834   4.743   1.965   1.427
 2459WAT  HW2   9835   4.707   2.083   1.515
 2459WAT  MW    9836   4.740   2.051   1.441
 2460WAT  OW    9837   6.113   1.051   4.438
 2460WAT  HW1   9838   6.198   1.031   4.477
 2460WAT  HW2   9839   6.092   1.140   4.467
 2460WAT  MW    9840   6.121   1.060   4.447
 2461WAT  OW    9841   1.627   5.891   1.121
 2461WAT  HW1   9842   1.649   5.882   1.214
 2461WAT  HW2   9843   1.707   5.865   1.075
 2461WAT  MW    9844   1.640   5.886   1.127
 2462WAT  OW    9845   2.895   1.652   3.742
 2462WAT  HW1   9846   2.971   1.705   3.716
 2462WAT  HW2   9847   2.925   1.605   3.821
 2462WAT  MW    9848   2.909   1.653   3.749
 2463WAT  OW    9849   4.885   3.123   0.329
 2463WAT  HW1   9850   4.978   3.137   0.313
 2463WAT  HW2   9851   4.875   3.138   0.423
 2463WAT  MW    9852   4.896   3.127   0.339
 2464WAT  OW    9853   1.088   0.156   5.738
 2464WAT  HW1   9854   1.138   0.120   5.665
 2464WAT  HW2   9855   1.143   0.227   5.771
 2464WAT  MW    9856   1.102   0.161   5.733
 2465WAT  OW    9857   2.237   2.276   6.526
 2465WAT  HW1   9858   2.278   2.251   6.443
 2465WAT  HW2   9859   2.240   2.372   6.527
 2465WAT  MW    9860   2.243   2.285   6.515
 2466WAT  OW    9861   0.742   5.136   4.250
 2466WAT  HW1   9862   0.803   5.095   4.189
 2466WAT  HW2   9863   0.769   5.103   4.336
 2466WAT  MW    9864   0.754   5.126   4.253
 2467WAT  OW    9865   4.903   4.658   2.330
 2467WAT  HW1   9866   4.930   4.596   2.263
 2467WAT  HW2   9867   4.975   4.658   2.393
 2467WAT  MW    9868   4.916   4.650   2.329
 2468WAT  OW    9869   5.176   6.575   5.955
 2468WAT  HW1   9870   5.119   6.547   5.883
 2468WAT  HW2   9871   5.121   6.568   6.033
 2468WAT  MW    9872   5.161   6.570   5.956
 2469WAT  OW    9873   3.802   5.967   4.116
 2469WAT  HW1   9874   3.809   6.007   4.203
 2469WAT  HW2   9875   3.709   5.948   4.106
 2469WAT  MW    9876   3.791   5.970   4.126
 2470WAT  OW    9877   1.053   2.239   0.917
 2470WAT  HW1   9878   1.054   2.302   0.990
 2470WAT  HW2   9879   1.097   2.285   0.845
 2470WAT  MW    9880   1.059   2.254   0.917
 2471WAT  OW    9881   4.476   5.563   4.118
 2471WAT  HW1   9882   4.566   5.546   4.090
 2471WAT  HW2   9883   4.439   5.476   4.134
 2471WAT  MW    9884   4.483   5.549   4.116
 2472WAT  OW    9885   1.941   4.590   3.060
 2472WAT  HW1   9886   1.945   4.525   3.130
 2472WAT  HW2   9887   2.017   4.647   3.076
 2472WAT  MW    9888   1.952   4.589   3.072
 2473WAT  OW    9889   3.684   4.372   2.894
 2473WAT  HW1   9890   3.700   4.453   2.847
 2473WAT  HW2   9891   3.593   4.350   2.872
 2473WAT  MW    9892   3.674   4.379   2.885
 2474WAT  OW    9893   3.921   2.731   0.425
 2474WAT  HW1   9894   3.825   2.736   0.418
 2474WAT  HW2   9895   3.952   2.764   0.340
 2474WAT  MW    9896   3.912   2.736   0.413
 2475WAT  OW    9897   3.539   6.215   5.441
 2475WAT  HW1   9898   3.530   6.166   5.523
 2475WAT  HW2   9899   3.630   6.202   5.414
 2475WAT  MW    9900   3.550   6.207   5.448
 2476WAT  OW    9901   2.434   0.254   4.387
 2476WAT  HW1   9902   2.423   0.180   4.328
 2476WAT  HW2   9903   2.518   0.238   4.431
 2476WAT  MW    9904   2.444   0.242   4.385
 2477WAT  OW    9905   5.463   3.670   4.531
 2477WAT  HW1   9906   5.419   3.594   4.492
 2477WAT  HW2   9907   5.403   3.743   4.515
 2477WAT  MW    9908   5.449   3.669   4.524
 2478WAT  OW    9909   4.897   3.951   2.589
 2478WAT  HW1   9910   4.987   3.942   2.621
 2478WAT  HW2   9911   4.907   3.969   2.496
 2478WAT  MW    9912   4.911   3.952   2.581
 2479WAT  OW    9913   5.687   3.655   1.812
 2479WAT  HW1   9914   5.624   3.584   1.825
 2479WAT  HW2   9915   5.743   3.625   1.740
 2479WAT  MW    9916   5.686   3.642   1.804
 2480WAT  OW    9917   5.704   0.464   5.300
 2480WAT  HW1   9918   5.796   0.476   5.275
 2480WAT  HW2   9919   5.654   0.509   5.232
 2480WAT  MW    9920   5.709   0.472   5.288
 2481WAT  OW    9921   2.623   6.138   4.117
 2481WAT  HW1   9922   2.607   6.221   4.072
 2481WAT  HW2   9923   2.693   6.096   4.067
 2481WAT  MW    9924   2.630   6.144   4.105
 2482WAT  OW    9925   3.696   6.658   1.637
 2482WAT  HW1   9926   3.661   6.698   1.557
 2482WAT  HW2   9927   3.790   6.655   1.622
 2482WAT  MW    9928   3.704   6.663   1.624
 2483WAT  OW    9929   4.206   2.626   6.117
 2483WAT  HW1   9930   4.154   2.628   6.037
 2483WAT  HW2   9931   4.142   2.605   6.186
 2483WAT  MW    9932   4.190   2.623   6.116
 2484WAT  OW    9933   0.093   0.485   1.022
 2484WAT  HW1   9934   0.050   0.400   1.010
 2484WAT  HW2   9935   0.130   0.481   1.110
 2484WAT  MW    9936   0.092   0.473   1.032
 2485WAT  OW    9937   3.976   1.333   6.625
 2485WAT  HW1   9938   4.008   1.406   6.678
 2485WAT  HW2   9939   3.901   1.369   6.577
 2485WAT  MW    9940   3.970   1.347   6.626
 2486WAT  OW    9941   5.065   2.191   4.626
 2486WAT  HW1   9942   5.030   2.185   4.715
 2486WAT  HW2   9943   5.065   2.101   4.594
 2486WAT  MW    9944   5.060   2.178   4.634
 2487WAT  OW    9945   3.155   6.138   6.479
 2487WAT  HW1   9946   3.236   6.188   6.467
 2487WAT  HW2   9947   3.114   6.139   6.393
 2487WAT  MW    9948   3.160   6.145   6.466
 2488WAT  OW    9949   3.296   3.230   2.599
 2488WAT  HW1   9950   3.253   3.155   2.640
 2488WAT  HW2   9951   3.287   3.215   2.505
 2488WAT  MW    9952   3.289   3.218   2.592
 2489WAT  OW    9953   6.132   5.069   5.733
 2489WAT  HW1   9954   6.056   5.115   5.766
 2489WAT  HW2   9955   6.099   5.016   5.660
 2489WAT  MW    9956   6.118   5.068   5.728
 2490WAT  OW    9957   1.015   4.863   0.478
 2490WAT  HW1   9958   0.937   4.839   0.429
 2490WAT  HW2   9959   0.989   4.858   0.570
 2490WAT  MW    9960   1.002   4.859   0.483
 2491WAT  OW    9961   4.930   3.396   4.150
 2491WAT  HW1   9962   4.902   3.310   4.119
 2491WAT  HW2   9963   5.010   3.414   4.102
 2491WAT  MW    9964   4.937   3.387   4.140
 2492WAT  OW    9965   6.606   3.479   5.006
 2492WAT  HW1   9966   6.546   3.549   5.031
 2492WAT  HW2   9967   6.552   3.400   5.009
 2492WAT  MW    9968   6.591   3.478   5.010
 2493WAT  OW    9969   1.831   5.505   3.714
 2493WAT  HW1   9970   1.863   5.449   3.785
 2493WAT  HW2   9971   1.836   5.594   3.749
 2493WAT  MW    9972   1.836   5.509   3.728
 2494WAT  OW    9973   3.724   0.352   1.820
 2494WAT  HW1   9974   3.696   0.270   1.860
 2494WAT  HW2   9975   3.819   0.352   1.830
 2494WAT  MW    9976   3.733   0.341   1.827
 2495WAT  OW    9977   5.695   2.845   0.972
 2495WAT  HW1   9978   5.629   2.813   0.910
 2495WAT  HW2   9979   5.693   2.781   1.043
 2495WAT  MW    9980   5.686   2.832   0.973
 2496WAT  OW    9981   5.438   4.107   1.260
 2496WAT  HW1   9982   5.436   4.069   1.173
 2496WAT  HW2   9983   5.378   4.182   1.255
 2496WAT  MW    9984   5.430   4.112   1.248
 2497WAT  OW    9985   5.087   4.204   4.889
 2497WAT  HW1   9986   5.075   4.290   4.849
 2497WAT  HW2   9987   5.026   4.146   4.844
 2497WAT  MW    9988   5.078   4.207   4.878
 2498WAT  OW    9989   2.337   4.644   6.604
 2498WAT  HW1   9990   2.317   4.737   6.619
 2498WAT  HW2   9991   2.406   4.645   6.538
 2498WAT  MW    9992   2.343   4.657   6.597
 2499WAT  OW    9993   5.642   4.765   6.408
 2499WAT  HW1   9994   5.670   4.823   6.479
 2499WAT  HW2   9995   5.550   4.788   6.393
 2499WAT  MW    9996   5.634   4.776   6.415
 2500WAT  OW    9997   6.032   4.798   2.981
 2500WAT  HW1   9998   6.053   4.706   2.996
 2500WAT  HW2   9999   6.035   4.808   2.886
 2500WAT  MW   10000   6.035   4.787   2.970
 2501WAT  OW   10001   2.875   3.024   2.827
 2501WAT  HW1  10002   2.936   2.972   2.878
 2501WAT  HW2  10003   2.831   3.080   2.892
 2501WAT  MW   10004   2.877   3.025   2.842
 2502WAT  OW   10005   3.507   1.608   2.924
 2502WAT  HW1  10006   3.494   1.702   2.914
 2502WAT  HW2  10007   3.430   1.568   2.882
 2502WAT  MW   10008   3.495   1.615   2.917
 2503WAT  OW   10009   0.395   4.954   1.021
 2503WAT  HW1  10010   0.435   5.027   1.069
 2503WAT  HW2  10011   0.421   4.969   0.930
 2503WAT  MW   10012   0.404   4.966   1.015
 2504WAT  OW   10013   4.122   5.170   0.859
 2504WAT  HW1  10014   4.090   5.091   0.815
 2504WAT  HW2  10015   4.170   5.218   0.791
 2504WAT  MW   10016   4.124   5.166   0.844
 2505WAT  OW   10017   6.432   0.080   4.653
 2505WAT  HW1  10018   6.440   0.171   4.681
 2505WAT  HW2  10019   6.523   0.051   4.642
 2505WAT  MW   10020   6.445   0.088   4.655
 2506WAT  OW   10021   1.810   4.264   3.462
 2506WAT  HW1  10022   1.776   4.199   3.524
 2506WAT  HW2  10023   1.807   4.221   3.377
 2506WAT  MW   10024   1.805   4.250   3.459
 2507WAT  OW   10025   6.180   6.674   0.873
 2507WAT  HW1  10026   6.262   6.681   0.825
 2507WAT  HW2  10027   6.123   6.740   0.834
 2507WAT  MW   10028   6.183   6.684   0.862
 2508WAT  OW   10029   2.787   2.299   3.120
 2508WAT  HW1  10030   2.776   2.301   3.215
 2508WAT  HW2  10031   2.745   2.379   3.089
 2508WAT  MW   10032   2.780   2.310   3.129
 2509WAT  OW   10033   4.992   5.894   6.565
 2509WAT  HW1  10034   5.079   5.880   6.604
 2509WAT  HW2  10035   4.982   5.822   6.503
 2509WAT  MW   10036   5.003   5.883   6.562
 2510WAT  OW   10037   4.510   0.710   1.698
 2510WAT  HW1  10038   4.423   0.731   1.662
 2510WAT  HW2  10039   4.508   0.745   1.786
 2510WAT  MW   10040   4.498   0.717   1.705
 2511WAT  OW   10041   5.625   4.954   1.544
 2511WAT  HW1  10042   5.592   4.864   1.536
 2511WAT  HW2  10043   5.709   4.952   1.499
 2511WAT  MW   10044   5.631   4.942   1.537
 2512WAT  OW   10045   2.082   4.188   0.965
 2512WAT  HW1  10046   2.127   4.147   1.039
 2512WAT  HW2  10047   2.088   4.282   0.983
 2512WAT  MW   10048   2.089   4.195   0.977
 2513WAT  OW   10049   5.998   6.006   4.582
 2513WAT  HW1  10050   5.939   6.041   4.648
 2513WAT  HW2  10051   6.016   6.080   4.525
 2513WAT  MW   10052   5.993   6.020   4.583
 2514WAT  OW   10053   0.875   3.199   3.695
 2514WAT  HW1  10054   0.959   3.194   3.739
 2514WAT  HW2  10055   0.848   3.107   3.683
 2514WAT  MW   10056   0.882   3.186   3.699
 2515WAT  OW   10057   0.049   1.183   0.424
 2515WAT  HW1  10058  -0.011   1.143   0.361
 2515WAT  HW2  10059   0.136   1.164   0.389
 2515WAT  MW   10060   0.052   1.175   0.411
 2516WAT  OW   10061   0.090   2.292   1.518
 2516WAT  HW1  10062   0.148   2.330   1.584
 2516WAT  HW2  10063   0.008   2.276   1.564
 2516WAT  MW   10064   0.087   2.295   1.533
 2517WAT  OW   10065   0.571   0.119   5.688
 2517WAT  HW1  10066   0.553   0.202   5.645
 2517WAT  HW2  10067   0.666   0.108   5.680
 2517WAT  MW   10068   0.581   0.128   5.681
 2518WAT  OW   10069   5.405   4.363   5.903
 2518WAT  HW1  10070   5.415   4.323   5.816
 2518WAT  HW2  10071   5.387   4.455   5.885
 2518WAT  MW   10072   5.404   4.369   5.889
 2519WAT  OW   10073   1.314   1.281   1.898
 2519WAT  HW1  10074   1.230   1.325   1.885
 2519WAT  HW2  10075   1.291   1.196   1.934
 2519WAT  MW   10076   1.300   1.276   1.901
 2520WAT  OW   10077   4.119   0.283   1.103
 2520WAT  HW1  10078   4.210   0.270   1.074
 2520WAT  HW2  10079   4.117   0.248   1.192
 2520WAT  MW   10080   4.131   0.277   1.111
 2521WAT  OW   10081   4.529   6.270   2.305
 2521WAT  HW1  10082   4.464   6.292   2.371
 2521WAT  HW2  10083   4.575   6.352   2.288
 2521WAT  MW   10084   4.527   6.284   2.311
 2522WAT  OW   10085   2.040   6.682   2.739
 2522WAT  HW1  10086   2.124   6.671   2.783
 2522WAT  HW2  10087   2.062   6.696   2.647
 2522WAT  MW   10088   2.054   6.683   2.733
 2523WAT  OW   10089   0.735   0.835   3.140
 2523WAT  HW1  10090   0.662   0.874   3.090
 2523WAT  HW2  10091   0.692   0.788   3.211
 2523WAT  MW   10092   0.719   0.834   3.143
 2524WAT  OW   10093   1.145   0.160   3.161
 2524WAT  HW1  10094   1.092   0.088   3.127
 2524WAT  HW2  10095   1.220   0.164   3.102
 2524WAT  MW   10096   1.148   0.151   3.149
 2525WAT  OW   10097   6.103   6.329   4.756
 2525WAT  HW1  10098   6.018   6.286   4.748
 2525WAT  HW2  10099   6.154   6.271   4.814
 2525WAT  MW   10100   6.099   6.316   4.763
 2526WAT  OW   10101   1.777   6.325   2.865
 2526WAT  HW1  10102   1.804   6.325   2.957
 2526WAT  HW2  10103   1.739   6.412   2.851
 2526WAT  MW   10104   1.776   6.337   2.875
 2527WAT  OW   10105   1.765   6.354   1.195
 2527WAT  HW1  10106   1.718   6.432   1.224
 2527WAT  HW2  10107   1.718   6.326   1.116
 2527WAT  MW   10108   1.752   6.361   1.189
 2528WAT  OW   10109   6.080   4.106   3.716
 2528WAT  HW1  10110   6.147   4.143   3.773
 2528WAT  HW2  10111   6.078   4.013   3.738
 2528WAT  MW   10112   6.088   4.099   3.726
 2529WAT  OW   10113   3.356   4.960   3.952
 2529WAT  HW1  10114   3.348   4.934   3.860
 2529WAT  HW2  10115   3.265   4.967   3.982
 2529WAT  MW   10116   3.343   4.957   3.944
 2530WAT  OW   10117   0.374   1.465   6.520
 2530WAT  HW1  10118   0.459   1.497   6.490
 2530WAT  HW2  10119   0.381   1.370   6.516
 2530WAT  MW   10120   0.386   1.457   6.516
 2531WAT  OW   10121   3.077   5.196   0.957
 2531WAT  HW1  10122   2.991   5.156   0.965
 2531WAT  HW2  10123   3.116   5.185   1.044
 2531WAT  MW   10124   3.071   5.189   0.970
 2532WAT  OW   10125   4.260   2.066   0.614
 2532WAT  HW1  10126   4.351   2.041   0.622
 2532WAT  HW2  10127   4.260   2.140   0.552
 2532WAT  MW   10128   4.272   2.072   0.607
 2533WAT  OW   10129   5.100   4.933   1.585
 2533WAT  HW1  10130   5.114   4.944   1.490
 2533WAT  HW2  10131   5.188   4.925   1.621
 2533WAT  MW   10132   5.113   4.934   1.577
 2534WAT  OW   10133   1.626   0.535   5.127
 2534WAT  HW1  10134   1.693   0.471   5.149
 2534WAT  HW2  10135   1.670   0.620   5.134
 2534WAT  MW   10136   1.641   0.538   5.131
 2535WAT  OW   10137   0.659   5.362   1.410
 2535WAT  HW1  10138   0.581   5.417   1.401
 2535WAT  HW2  10139   0.694   5.383   1.497
 2535WAT  MW   10140   0.653   5.372   1.421
 2536WAT  OW   10141   2.038   3.822   4.247
 2536WAT  HW1  10142   1.958   3.770   4.243
 2536WAT  HW2  10143   2.049   3.841   4.340
 2536WAT  MW   10144   2.029   3.818   4.259
 2537WAT  OW   10145   4.586   6.053   3.014
 2537WAT  HW1  10146   4.529   6.101   3.074
 2537WAT  HW2  10147   4.558   5.961   3.022
 2537WAT  MW   10148   4.575   6.047   3.023
 2538WAT  OW   10149   1.853   5.501   0.045
 2538WAT  HW1  10150   1.768   5.502   0.002
 2538WAT  HW2  10151   1.838   5.453   0.127
 2538WAT  MW   10152   1.840   5.495   0.050
 2539WAT  OW   10153   2.343   5.273   6.353
 2539WAT  HW1  10154   2.425   5.270   6.304
 2539WAT  HW2  10155   2.370   5.292   6.443
 2539WAT  MW   10156   2.358   5.275   6.358
 2540WAT  OW   10157   3.018   2.631   2.003
 2540WAT  HW1  10158   2.977   2.614   1.918
 2540WAT  HW2  10159   2.964   2.582   2.065
 2540WAT  MW   10160   3.005   2.622   2.000
 2541WAT  OW   10161   5.397   2.275   0.388
 2541WAT  HW1  10162   5.463   2.344   0.387
 2541WAT  HW2  10163   5.438   2.203   0.437
 2541WAT  MW   10164   5.411   2.275   0.394
 2542WAT  OW   10165   5.363   3.771   4.832
 2542WAT  HW1  10166   5.384   3.797   4.921
 2542WAT  HW2  10167   5.412   3.690   4.818
 2542WAT  MW   10168   5.372   3.764   4.842
 2543WAT  OW   10169   0.584   5.442   3.425
 2543WAT  HW1  10170   0.625   5.527   3.435
 2543WAT  HW2  10171   0.505   5.447   3.480
 2543WAT  MW   10172   0.579   5.454   3.434
 2544WAT  OW   10173   3.318   3.232   0.668
 2544WAT  HW1  10174   3.225   3.253   0.670
 2544WAT  HW2  10175   3.362   3.318   0.672
 2544WAT  MW   10176   3.312   3.246   0.669
 2545WAT  OW   10177   4.043   0.152   4.360
 2545WAT  HW1  10178   3.952   0.143   4.389
 2545WAT  HW2  10179   4.039   0.144   4.265
 2545WAT  MW   10180   4.031   0.150   4.352
 2546WAT  OW   10181   5.979   5.873   3.401
 2546WAT  HW1  10182   6.025   5.797   3.365
 2546WAT  HW2  10183   5.896   5.876   3.353
 2546WAT  MW   10184   5.974   5.863   3.390
 2547WAT  OW   10185   4.532   6.632   5.810
 2547WAT  HW1  10186   4.620   6.626   5.773
 2547WAT  HW2  10187   4.477   6.659   5.737
 2547WAT  MW   10188   4.536   6.635   5.796
 2548WAT  OW   10189   5.280   4.878   2.203
 2548WAT  HW1  10190   5.346   4.830   2.154
 2548WAT  HW2  10191   5.280   4.839   2.290
 2548WAT  MW   10192   5.289   4.867   2.208
 2549WAT  OW   10193   0.122   1.334   6.175
 2549WAT  HW1  10194   0.121   1.244   6.208
 2549WAT  HW2  10195   0.214   1.360   6.178
 2549WAT  MW   10196   0.134   1.325   6.179
 2550WAT  OW   10197   0.368   1.216   5.980
 2550WAT  HW1  10198   0.379   1.281   5.911
 2550WAT  HW2  10199   0.453   1.210   6.022
 2550WAT  MW   10200   0.380   1.224   5.976
 2551WAT  OW   10201   3.883   4.833   2.545
 2551WAT  HW1  10202   3.973   4.828   2.576
 2551WAT  HW2  10203   3.884   4.897   2.475
 2551WAT  MW   10204   3.895   4.841   2.540
 2552WAT  OW   10205   4.152   3.088   1.190
 2552WAT  HW1  10206   4.132   3.066   1.098
 2552WAT  HW2  10207   4.093   3.032   1.241
 2552WAT  MW   10208   4.142   3.077   1.184
 2553WAT  OW   10209   2.979   4.921   2.665
 2553WAT  HW1  10210   2.913   4.871   2.712
 2553WAT  HW2  10211   3.050   4.859   2.650
 2553WAT  MW   10212   2.980   4.907   2.669
 2554WAT  OW   10213   6.326   0.897   2.867
 2554WAT  HW1  10214   6.339   0.887   2.962
 2554WAT  HW2  10215   6.334   0.808   2.832
 2554WAT  MW   10216   6.328   0.884   2.875
 2555WAT  OW   10217   4.293   4.847   1.386
 2555WAT  HW1  10218   4.249   4.763   1.373
 2555WAT  HW2  10219   4.386   4.825   1.397
 2555WAT  MW   10220   4.300   4.833   1.386
 2556WAT  OW   10221   4.832   5.893   0.528
 2556WAT  HW1  10222   4.749   5.868   0.487
 2556WAT  HW2  10223   4.806   5.940   0.608
 2556WAT  MW   10224   4.817   5.896   0.533
 2557WAT  OW   10225   4.580   3.800   1.012
 2557WAT  HW1  10226   4.526   3.781   1.090
 2557WAT  HW2  10227   4.543   3.744   0.944
 2557WAT  MW   10228   4.568   3.790   1.014
 2558WAT  OW   10229   1.067   1.084   3.873
 2558WAT  HW1  10230   1.059   1.051   3.784
 2558WAT  HW2  10231   1.138   1.147   3.869
 2558WAT  MW   10232   1.075   1.088   3.861
 2559WAT  OW   10233   0.465   3.970   0.286
 2559WAT  HW1  10234   0.468   4.047   0.229
 2559WAT  HW2  10235   0.376   3.937   0.276
 2559WAT  MW   10236   0.454   3.976   0.277
 2560WAT  OW   10237   4.128   4.036   0.271
 2560WAT  HW1  10238   4.205   4.062   0.322
 2560WAT  HW2  10239   4.059   4.095   0.300
 2560WAT  MW   10240   4.129   4.047   0.282
 2561WAT  OW   10241   0.836   5.485   3.076
 2561WAT  HW1  10242   0.760   5.460   3.023
 2561WAT  HW2  10243   0.907   5.496   3.012
 2561WAT  MW   10244   0.835   5.483   3.060
 2562WAT  OW   10245   6.192   3.652   2.366
 2562WAT  HW1  10246   6.216   3.745   2.363
 2562WAT  HW2  10247   6.117   3.645   2.307
 2562WAT  MW   10248   6.185   3.664   2.358
 2563WAT  OW   10249   6.526   6.436   2.757
 2563WAT  HW1  10250   6.443   6.404   2.792
 2563WAT  HW2  10251   6.530   6.528   2.785
 2563WAT  MW   10252   6.516   6.444   2.766
 2564WAT  OW   10253   1.396   6.087   5.580
 2564WAT  HW1  10254   1.450   6.136   5.518
 2564WAT  HW2  10255   1.329   6.046   5.526
 2564WAT  MW   10256   1.394   6.088   5.565
 2565WAT  OW   10257   3.324   3.182   5.035
 2565WAT  HW1  10258   3.417   3.192   5.016
 2565WAT  HW2  10259   3.279   3.233   4.968
 2565WAT  MW   10260   3.330   3.190   5.024
 2566WAT  OW   10261   4.445   5.314   4.696
 2566WAT  HW1  10262   4.434   5.353   4.609
 2566WAT  HW2  10263   4.502   5.239   4.681
 2566WAT  MW   10264   4.451   5.309   4.682
 2567WAT  OW   10265   2.288   5.352   4.003
 2567WAT  HW1  10266   2.361   5.322   3.950
 2567WAT  HW2  10267   2.319   5.345   4.093
 2567WAT  MW   10268   2.301   5.347   4.008
 2568WAT  OW   10269   2.078   0.690   1.569
 2568WAT  HW1  10270   2.004   0.675   1.510
 2568WAT  HW2  10271   2.119   0.604   1.579
 2568WAT  MW   10272   2.074   0.677   1.563
 2569WAT  OW   10273   3.098   4.264   2.409
 2569WAT  HW1  10274   3.087   4.169   2.398
 2569WAT  HW2  10275   3.150   4.290   2.333
 2569WAT  MW   10276   3.104   4.255   2.398
 2570WAT  OW   10277   4.951   0.016   3.439
 2570WAT  HW1  10278   4.920  -0.063   3.395
 2570WAT  HW2  10279   4.975  -0.013   3.527
 2570WAT  MW   10280   4.950   0.002   3.445
 2571WAT  OW   10281   1.847   0.349   5.150
 2571WAT  HW1  10282   1.856   0.271   5.095
 2571WAT  HW2  10283   1.865   0.319   5.239
 2571WAT  MW   10284   1.851   0.335   5.154
 2572WAT  OW   10285   6.192   1.450   2.801
 2572WAT  HW1  10286   6.249   1.373   2.800
 2572WAT  HW2  10287   6.191   1.480   2.710
 2572WAT  MW   10288   6.199   1.444   2.789
 2573WAT  OW   10289   3.149   1.328   0.391
 2573WAT  HW1  10290   3.163   1.234   0.393
 2573WAT  HW2  10291   3.141   1.354   0.482
 2573WAT  MW   10292   3.150   1.319   0.403
 2574WAT  OW   10293   6.345   6.349   3.309
 2574WAT  HW1  10294   6.262   6.365   3.264
 2574WAT  HW2  10295   6.380   6.270   3.268
 2574WAT  MW   10296   6.339   6.340   3.298
 2575WAT  OW   10297   2.014   4.560   5.579
 2575WAT  HW1  10298   2.086   4.601   5.625
 2575WAT  HW2  10299   1.957   4.632   5.553
 2575WAT  MW   10300   2.016   4.575   5.581
 2576WAT  OW   10301   5.337   0.801   0.588
 2576WAT  HW1  10302   5.377   0.735   0.531
 2576WAT  HW2  10303   5.409   0.860   0.611
 2576WAT  MW   10304   5.352   0.800   0.584
 2577WAT  OW   10305   4.140   6.570   3.147
 2577WAT  HW1  10306   4.184   6.649   3.179
 2577WAT  HW2  10307   4.074   6.550   3.213
 2577WAT  MW   10308   4.137   6.578   3.160
 2578WAT  OW   10309   6.273   1.610   1.440
 2578WAT  HW1  10310   6.269   1.548   1.368
 2578WAT  HW2  10311   6.360   1.599   1.477
 2578WAT  MW   10312   6.284   1.600   1.435
 2579WAT  OW   10313   1.713   2.690   1.596
 2579WAT  HW1  10314   1.797   2.721   1.628
 2579WAT  HW2  10315   1.663   2.769   1.578
 2579WAT  MW   10316   1.717   2.704   1.598
 2580WAT  OW   10317   2.033   4.405   3.247
 2580WAT  HW1  10318   1.978   4.327   3.243
 2580WAT  HW2  10319   2.106   4.385   3.188
 2580WAT  MW   10320   2.036   4.392   3.239
 2581WAT  OW   10321   0.786   3.547   0.665
 2581WAT  HW1  10322   0.857   3.522   0.724
 2581WAT  HW2  10323   0.787   3.480   0.596
 2581WAT  MW   10324   0.795   3.535   0.663
 2582WAT  OW   10325   2.129   6.537   0.911
 2582WAT  HW1  10326   2.207   6.493   0.945
 2582WAT  HW2  10327   2.111   6.493   0.828
 2582WAT  MW   10328   2.137   6.525   0.904
 2583WAT  OW   10329   3.859   5.789   6.256
 2583WAT  HW1  10330   3.806   5.718   6.219
 2583WAT  HW2  10331   3.810   5.868   6.236
 2583WAT  MW   10332   3.845   5.790   6.249
 2584WAT  OW   10333   6.121   2.062   5.479
 2584WAT  HW1  10334   6.194   2.122   5.465
 2584WAT  HW2  10335   6.161   1.976   5.487
 2584WAT  MW   10336   6.136   2.059   5.478
 2585WAT  OW   10337   3.161   2.476   0.549
 2585WAT  HW1  10338   3.102   2.454   0.477
 2585WAT  HW2  10339   3.217   2.545   0.514
 2585WAT  MW   10340   3.161   2.482   0.535
 2586WAT  OW   10341   5.600   2.044   2.172
 2586WAT  HW1  10342   5.525   1.986   2.182
 2586WAT  HW2  10343   5.562   2.132   2.168
 2586WAT  MW   10344   5.585   2.048   2.173
 2587WAT  OW   10345   1.338   2.944   5.820
 2587WAT  HW1  10346   1.327   3.035   5.792
 2587WAT  HW2  10347   1.414   2.913   5.770
 2587WAT  MW   10348   1.347   2.952   5.809
 2588WAT  OW   10349   1.668   1.699   1.021
 2588WAT  HW1  10350   1.710   1.784   1.011
 2588WAT  HW2  10351   1.602   1.712   1.088
 2588WAT  MW   10352   1.665   1.712   1.028
 2589WAT  OW   10353   6.589   4.320   2.267
 2589WAT  HW1  10354   6.634   4.390   2.220
 2589WAT  HW2  10355   6.659   4.269   2.308
 2589WAT  MW   10356   6.604   4.322   2.266
 2590WAT  OW   10357   3.461   2.710   2.019
 2590WAT  HW1  10358   3.460   2.629   2.070
 2590WAT  HW2  10359   3.440   2.683   1.929
 2590WAT  MW   10360   3.458   2.696   2.014
 2591WAT  OW   10361   4.763   5.118   3.629
 2591WAT  HW1  10362   4.677   5.160   3.641
 2591WAT  HW2  10363   4.796   5.107   3.718
 2591WAT  MW   10364   4.756   5.122   3.643
 2592WAT  OW   10365   4.564   5.926   3.622
 2592WAT  HW1  10366   4.649   5.952   3.585
 2592WAT  HW2  10367   4.519   5.883   3.549
 2592WAT  MW   10368   4.570   5.924   3.607
 2593WAT  OW   10369   1.901   2.338   4.196
 2593WAT  HW1  10370   1.964   2.337   4.269
 2593WAT  HW2  10371   1.955   2.323   4.118
 2593WAT  MW   10372   1.917   2.336   4.195
 2594WAT  OW   10373   6.586   6.343   4.161
 2594WAT  HW1  10374   6.643   6.418   4.147
 2594WAT  HW2  10375   6.602   6.316   4.252
 2594WAT  MW   10376   6.595   6.349   4.171
 2595WAT  OW   10377   0.190   0.553   2.628
 2595WAT  HW1  10378   0.246   0.493   2.581
 2595WAT  HW2  10379   0.118   0.572   2.568
 2595WAT  MW   10380   0.188   0.548   2.614
 2596WAT  OW   10381   5.761   6.289   0.453
 2596WAT  HW1  10382   5.761   6.216   0.516
 2596WAT  HW2  10383   5.829   6.265   0.389
 2596WAT  MW   10384   5.770   6.276   0.453
 2597WAT  OW   10385   0.989   4.373   3.171
 2597WAT  HW1  10386   0.943   4.418   3.243
 2597WAT  HW2  10387   1.064   4.429   3.153
 2597WAT  MW   10388   0.993   4.387   3.178
 2598WAT  OW   10389   5.855   5.484   4.401
 2598WAT  HW1  10390   5.923   5.421   4.378
 2598WAT  HW2  10391   5.899   5.548   4.456
 2598WAT  MW   10392   5.870   5.484   4.405
 2599WAT  OW   10393   1.587   2.992   3.728
 2599WAT  HW1  10394   1.625   2.906   3.748
 2599WAT  HW2  10395   1.637   3.023   3.653
 2599WAT  MW   10396   1.598   2.985   3.721
 2600WAT  OW   10397   3.869   0.781   3.050
 2600WAT  HW1  10398   3.813   0.838   2.997
 2600WAT  HW2  10399   3.834   0.789   3.139
 2600WAT  MW   10400   3.857   0.790   3.055
 2601WAT  OW   10401   6.482   0.058   5.765
 2601WAT  HW1  10402   6.560   0.030   5.717
 2601WAT  HW2  10403   6.514   0.078   5.853
 2601WAT  MW   10404   6.497   0.057   5.770
 2602WAT  OW   10405   0.824   4.210   5.271
 2602WAT  HW1  10406   0.910   4.174   5.292
 2602WAT  HW2  10407   0.788   4.150   5.205
 2602WAT  MW   10408   0.831   4.197   5.265
 2603WAT  OW   10409   2.255   3.812   1.503
 2603WAT  HW1  10410   2.258   3.813   1.598
 2603WAT  HW2  10411   2.168   3.778   1.482
 2603WAT  MW   10412   2.244   3.808   1.512
 2604WAT  OW   10413   1.774   1.491   2.475
 2604WAT  HW1  10414   1.706   1.440   2.431
 2604WAT  HW2  10415   1.831   1.425   2.515
 2604WAT  MW   10416   1.773   1.475   2.475
 2605WAT  OW   10417   1.920   0.535   4.921
 2605WAT  HW1  10418   2.005   0.580   4.920
 2605WAT  HW2  10419   1.922   0.483   5.001
 2605WAT  MW   10420   1.932   0.534   4.932
 2606WAT  OW   10421   5.376   5.218   1.865
 2606WAT  HW1  10422   5.456   5.167   1.855
 2606WAT  HW2  10423   5.334   5.182   1.943
 2606WAT  MW   10424   5.381   5.207   1.874
 2607WAT  OW   10425   5.336   4.876   5.351
 2607WAT  HW1  10426   5.428   4.899   5.358
 2607WAT  HW2  10427   5.335   4.781   5.338
 2607WAT  MW   10428   5.348   4.866   5.350
 2608WAT  OW   10429   1.975   4.234   1.321
 2608WAT  HW1  10430   1.995   4.250   1.413
 2608WAT  HW2  10431   1.893   4.281   1.305
 2608WAT  MW   10432   1.967   4.242   1.331
 2609WAT  OW   10433   2.300   1.973   3.996
 2609WAT  HW1  10434   2.309   1.917   4.073
 2609WAT  HW2  10435   2.210   1.961   3.967
 2609WAT  MW   10436   2.290   1.964   4.002
 2610WAT  OW   10437   3.217   1.091   4.725
 2610WAT  HW1  10438   3.240   1.115   4.635
 2610WAT  HW2  10439   3.123   1.072   4.721
 2610WAT  MW   10440   3.207   1.092   4.713
 2611WAT  OW   10441   5.376   0.663   3.100
 2611WAT  HW1  10442   5.333   0.592   3.148
 2611WAT  HW2  10443   5.464   0.668   3.137
 2611WAT  MW   10444   5.382   0.654   3.112
 2612WAT  OW   10445   4.196   3.605   1.300
 2612WAT  HW1  10446   4.191   3.512   1.277
 2612WAT  HW2  10447   4.135   3.648   1.240
 2612WAT  MW   10448   4.187   3.599   1.289
 2613WAT  OW   10449   4.212   5.355   5.652
 2613WAT  HW1  10450   4.178   5.358   5.563
 2613WAT  HW2  10451   4.181   5.272   5.688
 2613WAT  MW   10452   4.204   5.345   5.645
 2614WAT  OW   10453   2.805   4.095   3.018
 2614WAT  HW1  10454   2.749   4.172   3.003
 2614WAT  HW2  10455   2.890   4.132   3.043
 2614WAT  MW   10456   2.809   4.110   3.019
 2615WAT  OW   10457   5.730   1.318   1.653
 2615WAT  HW1  10458   5.783   1.250   1.612
 2615WAT  HW2  10459   5.672   1.271   1.713
 2615WAT  MW   10460   5.730   1.303   1.656
 2616WAT  OW   10461   1.456   5.332   5.219
 2616WAT  HW1  10462   1.481   5.359   5.130
 2616WAT  HW2  10463   1.374   5.284   5.207
 2616WAT  MW   10464   1.448   5.330   5.206
 2617WAT  OW   10465   0.497   3.757   1.716
 2617WAT  HW1  10466   0.549   3.836   1.730
 2617WAT  HW2  10467   0.430   3.783   1.653
 2617WAT  MW   10468   0.495   3.771   1.710
 2618WAT  OW   10469   1.485   0.869   6.247
 2618WAT  HW1  10470   1.397   0.878   6.212
 2618WAT  HW2  10471   1.480   0.905   6.336
 2618WAT  MW   10472   1.473   0.875   6.254
 2619WAT  OW   10473   3.785   2.236   1.988
 2619WAT  HW1  10474   3.867   2.188   1.999
 2619WAT  HW2  10475   3.807   2.327   2.006
 2619WAT  MW   10476   3.798   2.241   1.992
 2620WAT  OW   10477   3.789   1.253   5.502
 2620WAT  HW1  10478   3.784   1.346   5.479
 2620WAT  HW2  10479   3.703   1.232   5.538
 2620WAT  MW   10480   3.777   1.262   5.504
 2621WAT  OW   10481   1.154   1.363   3.380
 2621WAT  HW1  10482   1.247   1.382   3.371
 2621WAT  HW2  10483   1.122   1.354   3.290
 2621WAT  MW   10484   1.162   1.364   3.367
 2622WAT  OW   10485   6.049   2.086   6.044
 2622WAT  HW1  10486   5.989   2.032   5.992
 2622WAT  HW2  10487   6.136   2.059   6.015
 2622WAT  MW   10488   6.053   2.075   6.033
 2623WAT  OW   10489   4.350   0.340   2.008
 2623WAT  HW1  10490   4.344   0.281   1.934
 2623WAT  HW2  10491   4.436   0.323   2.046
 2623WAT  MW   10492   4.360   0.330   2.003
 2624WAT  OW   10493   0.317   1.065   4.619
 2624WAT  HW1  10494   0.236   1.069   4.569
 2624WAT  HW2  10495   0.294   1.101   4.705
 2624WAT  MW   10496   0.304   1.071   4.624
 2625WAT  OW   10497   3.709   0.320   5.553
 2625WAT  HW1  10498   3.646   0.326   5.624
 2625WAT  HW2  10499   3.776   0.259   5.584
 2625WAT  MW   10500   3.710   0.312   5.566
 2626WAT  OW   10501   0.550   3.037   4.697
 2626WAT  HW1  10502   0.624   2.993   4.654
 2626WAT  HW2  10503   0.511   2.969   4.753
 2626WAT  MW   10504   0.555   3.022   4.699
 2627WAT  OW   10505   2.623   3.214   0.756
 2627WAT  HW1  10506   2.686   3.148   0.724
 2627WAT  HW2  10507   2.667   3.255   0.830
 2627WAT  MW   10508   2.637   3.211   0.761
 2628WAT  OW   10509   6.528   4.420   5.383
 2628WAT  HW1  10510   6.607   4.473   5.374
 2628WAT  HW2  10511   6.457   4.483   5.393
 2628WAT  MW   10512   6.529   4.435   5.383
 2629WAT  OW   10513   0.845   0.072   5.700
 2629WAT  HW1  10514   0.938   0.087   5.716
 2629WAT  HW2  10515   0.843  -0.003   5.640
 2629WAT  MW   10516   0.857   0.064   5.694
 2630WAT  OW   10517   3.000   3.830   3.816
 2630WAT  HW1  10518   2.925   3.771   3.810
 2630WAT  HW2  10519   3.069   3.785   3.767
 2630WAT  MW   10520   3.000   3.816   3.809
 2631WAT  OW   10521   3.043   1.782   6.354
 2631WAT  HW1  10522   3.068   1.853   6.413
 2631WAT  HW2  10523   3.076   1.809   6.268
 2631WAT  MW   10524   3.051   1.795   6.350
 2632WAT  OW   10525   1.735   2.754   5.923
 2632WAT  HW1  10526   1.822   2.790   5.909
 2632WAT  HW2  10527   1.723   2.691   5.852
 2632WAT  MW   10528   1.745   2.751   5.912
 2633WAT  OW   10529   4.371   5.926   0.234
 2633WAT  HW1  10530   4.431   5.931   0.160
 2633WAT  HW2  10531   4.286   5.951   0.198
 2633WAT  MW   10532   4.368   5.930   0.220
 2634WAT  OW   10533   6.121   3.369   1.563
 2634WAT  HW1  10534   6.217   3.370   1.564
 2634WAT  HW2  10535   6.098   3.356   1.471
 2634WAT  MW   10536   6.131   3.368   1.551
 2635WAT  OW   10537   2.470   2.217   4.237
 2635WAT  HW1  10538   2.414   2.158   4.288
 2635WAT  HW2  10539   2.415   2.243   4.163
 2635WAT  MW   10540   2.455   2.213   4.234
 2636WAT  OW   10541   5.109   1.932   4.631
 2636WAT  HW1  10542   5.054   1.858   4.607
 2636WAT  HW2  10543   5.150   1.906   4.713
 2636WAT  MW   10544   5.107   1.919   4.639
 2637WAT  OW   10545   6.667   0.213   5.084
 2637WAT  HW1  10546   6.720   0.216   5.005
 2637WAT  HW2  10547   6.586   0.257   5.059
 2637WAT  MW   10548   6.663   0.219   5.070
 2638WAT  OW   10549   5.258   0.346   4.002
 2638WAT  HW1  10550   5.227   0.297   4.078
 2638WAT  HW2  10551   5.332   0.397   4.034
 2638WAT  MW   10552   5.263   0.346   4.016
 2639WAT  OW   10553   0.047   2.483   4.773
 2639WAT  HW1  10554   0.113   2.520   4.832
 2639WAT  HW2  10555   0.078   2.505   4.686
 2639WAT  MW   10556   0.060   2.491   4.770
 2640WAT  OW   10557   0.984   3.347   1.948
 2640WAT  HW1  10558   0.908   3.370   1.895
 2640WAT  HW2  10559   1.028   3.430   1.964
 2640WAT  MW   10560   0.980   3.361   1.943
 2641WAT  OW   10561   1.360   1.816   0.004
 2641WAT  HW1  10562   1.271   1.848  -0.004
 2641WAT  HW2  10563   1.410   1.866  -0.061
 2641WAT  MW   10564   1.355   1.827  -0.005
 2642WAT  OW   10565   2.432   2.255   3.499
 2642WAT  HW1  10566   2.358   2.242   3.439
 2642WAT  HW2  10567   2.493   2.185   3.476
 2642WAT  MW   10568   2.430   2.244   3.488
 2643WAT  OW   10569   3.836   4.050   5.558
 2643WAT  HW1  10570   3.802   4.138   5.541
 2643WAT  HW2  10571   3.929   4.063   5.578
 2643WAT  MW   10572   3.844   4.063   5.558
 2644WAT  OW   10573   0.084   5.277   6.300
 2644WAT  HW1  10574   0.055   5.186   6.297
 2644WAT  HW2  10575   0.037   5.314   6.375
 2644WAT  MW   10576   0.074   5.270   6.310
 2645WAT  OW   10577   2.502   6.416   1.411
 2645WAT  HW1  10578   2.588   6.446   1.382
 2645WAT  HW2  10579   2.443   6.487   1.386
 2645WAT  MW   10580   2.506   6.429   1.404
 2646WAT  OW   10581   4.244   0.082   5.790
 2646WAT  HW1  10582   4.331   0.118   5.771
 2646WAT  HW2  10583   4.249   0.055   5.881
 2646WAT  MW   10584   4.256   0.083   5.799
 2647WAT  OW   10585   0.858   5.574   2.451
 2647WAT  HW1  10586   0.833   5.577   2.543
 2647WAT  HW2  10587   0.949   5.544   2.452
 2647WAT  MW   10588   0.867   5.570   2.463
 2648WAT  OW   10589   4.159   5.038   2.885
 2648WAT  HW1  10590   4.220   4.968   2.908
 2648WAT  HW2  10591   4.213   5.103   2.840
 2648WAT  MW   10592   4.174   5.037   2.883
 2649WAT  OW   10593   5.873   2.069   6.648
 2649WAT  HW1  10594   5.820   2.050   6.571
 2649WAT  HW2  10595   5.952   2.111   6.613
 2649WAT  MW   10596   5.876   2.072   6.633
 2650WAT  OW   10597   6.552   2.556   6.659
 2650WAT  HW1  10598   6.499   2.531   6.584
 2650WAT  HW2  10599   6.507   2.520   6.734
 2650WAT  MW   10600   6.539   2.548   6.659
 2651WAT  OW   10601   0.682   0.591   1.616
 2651WAT  HW1  10602   0.631   0.579   1.536
 2651WAT  HW2  10603   0.630   0.549   1.684
 2651WAT  MW   10604   0.668   0.584   1.614
 2652WAT  OW   10605   2.771   5.233   6.534
 2652WAT  HW1  10606   2.809   5.321   6.537
 2652WAT  HW2  10607   2.719   5.232   6.453
 2652WAT  MW   10608   2.769   5.245   6.524
 2653WAT  OW   10609   0.332   3.371   5.421
 2653WAT  HW1  10610   0.381   3.298   5.459
 2653WAT  HW2  10611   0.240   3.342   5.425
 2653WAT  MW   10612   0.326   3.357   5.427
 2654WAT  OW   10613   3.926   3.720   5.649
 2654WAT  HW1  10614   3.898   3.792   5.706
 2654WAT  HW2  10615   3.847   3.666   5.638
 2654WAT  MW   10616   3.911   3.722   5.655
 2655WAT  OW   10617   0.037   5.178   4.117
 2655WAT  HW1  10618   0.002   5.196   4.029
 2655WAT  HW2  10619  -0.041   5.162   4.170
 2655WAT  MW   10620   0.022   5.178   4.112
 2656WAT  OW   10621   3.165   5.075   5.566
 2656WAT  HW1  10622   3.157   5.025   5.484
 2656WAT  HW2  10623   3.181   5.009   5.633
 2656WAT  MW   10624   3.166   5.059   5.564
 2657WAT  OW   10625   4.184   4.231   4.944
 2657WAT  HW1  10626   4.095   4.199   4.961
 2657WAT  HW2  10627   4.240   4.175   4.998
 2657WAT  MW   10628   4.180   4.219   4.954
 2658WAT  OW   10629   2.297   6.137   3.915
 2658WAT  HW1  10630   2.341   6.194   3.852
 2658WAT  HW2  10631   2.277   6.194   3.990
 2658WAT  MW   10632   2.300   6.152   3.917
 2659WAT  OW   10633   0.654   6.630   6.243
 2659WAT  HW1  10634   0.647   6.603   6.335
 2659WAT  HW2  10635   0.743   6.607   6.218
 2659WAT  MW   10636   0.665   6.623   6.252
 2660WAT  OW   10637   6.215   4.264   6.543
 2660WAT  HW1  10638   6.261   4.311   6.613
 2660WAT  HW2  10639   6.284   4.216   6.497
 2660WAT  MW   10640   6.230   4.264   6.546
 2661WAT  OW   10641   0.766   4.522   6.245
 2661WAT  HW1  10642   0.822   4.599   6.259
 2661WAT  HW2  10643   0.678   4.558   6.234
 2661WAT  MW   10644   0.762   4.537   6.246
 2662WAT  OW   10645   4.279   0.892   0.747
 2662WAT  HW1  10646   4.326   0.951   0.688
 2662WAT  HW2  10647   4.188   0.921   0.741
 2662WAT  MW   10648   4.273   0.904   0.739
 2663WAT  OW   10649   1.288   1.240   3.105
 2663WAT  HW1  10650   1.345   1.170   3.071
 2663WAT  HW2  10651   1.235   1.266   3.029
 2663WAT  MW   10652   1.288   1.234   3.090
 2664WAT  OW   10653   3.848   2.169   4.380
 2664WAT  HW1  10654   3.891   2.254   4.383
 2664WAT  HW2  10655   3.867   2.135   4.293
 2664WAT  MW   10656   3.856   2.176   4.369
 2665WAT  OW   10657   1.818   2.566   3.771
 2665WAT  HW1  10658   1.875   2.609   3.835
 2665WAT  HW2  10659   1.739   2.621   3.770
 2665WAT  MW   10660   1.815   2.579   3.780
 2666WAT  OW   10661   1.941   0.995   1.043
 2666WAT  HW1  10662   2.002   0.947   1.100
 2666WAT  HW2  10663   1.997   1.038   0.979
 2666WAT  MW   10664   1.957   0.995   1.042
 2667WAT  OW   10665   0.600   0.444   4.780
 2667WAT  HW1  10666   0.693   0.439   4.759
 2667WAT  HW2  10667   0.576   0.534   4.757
 2667WAT  MW   10668   0.609   0.455   4.774
 2668WAT  OW   10669   3.356   1.650   3.416
 2668WAT  HW1  10670   3.345   1.733   3.463
 2668WAT  HW2  10671   3.321   1.667   3.329
 2668WAT  MW   10672   3.350   1.663   3.411
 2669WAT  OW   10673   0.510   1.676   5.260
 2669WAT  HW1  10674   0.438   1.618   5.235
 2669WAT  HW2  10675   0.572   1.670   5.188
 2669WAT  MW   10676   0.508   1.668   5.248
 2670WAT  OW   10677   5.162   3.475   3.990
 2670WAT  HW1  10678   5.111   3.532   3.932
 2670WAT  HW2  10679   5.236   3.447   3.937
 2670WAT  MW   10680   5.165   3.479   3.976
 2671WAT  OW   10681   2.176   0.807   2.125
 2671WAT  HW1  10682   2.193   0.835   2.035
 2671WAT  HW2  10683   2.085   0.776   2.124
 2671WAT  MW   10684   2.166   0.807   2.113
 2672WAT  OW   10685   1.556   2.391   3.022
 2672WAT  HW1  10686   1.506   2.404   2.941
 2672WAT  HW2  10687   1.517   2.452   3.085
 2672WAT  MW   10688   1.544   2.401   3.020
 2673WAT  OW   10689   1.035   2.895   4.306
 2673WAT  HW1  10690   1.073   2.982   4.316
 2673WAT  HW2  10691   1.106   2.841   4.272
 2673WAT  MW   10692   1.049   2.900   4.303
 2674WAT  OW   10693   6.054   1.906   2.003
 2674WAT  HW1  10694   6.061   1.860   1.919
 2674WAT  HW2  10695   5.975   1.872   2.043
 2674WAT  MW   10696   6.045   1.896   1.997
 2675WAT  OW   10697   3.869   0.798   6.618
 2675WAT  HW1  10698   3.914   0.801   6.533
 2675WAT  HW2  10699   3.786   0.752   6.598
 2675WAT  MW   10700   3.864   0.792   6.604
 2676WAT  OW   10701   3.130   3.239   5.226
 2676WAT  HW1  10702   3.182   3.242   5.307
 2676WAT  HW2  10703   3.195   3.221   5.157
 2676WAT  MW   10704   3.146   3.237   5.227
 2677WAT  OW   10705   2.061   5.396   2.140
 2677WAT  HW1  10706   2.064   5.482   2.099
 2677WAT  HW2  10707   2.093   5.336   2.072
 2677WAT  MW   10708   2.066   5.399   2.125
 2678WAT  OW   10709   2.193   0.644   4.983
 2678WAT  HW1  10710   2.217   0.737   4.986
 2678WAT  HW2  10711   2.210   0.618   4.892
 2678WAT  MW   10712   2.198   0.653   4.971
 2679WAT  OW   10713   2.569   1.971   0.499
 2679WAT  HW1  10714   2.540   2.046   0.551
 2679WAT  HW2  10715   2.544   1.895   0.551
 2679WAT  MW   10716   2.562   1.971   0.513
 2680WAT  OW   10717   4.047   0.710   2.722
 2680WAT  HW1  10718   4.080   0.774   2.786
 2680WAT  HW2  10719   3.957   0.737   2.706
 2680WAT  MW   10720   4.039   0.722   2.729
 2681WAT  OW   10721   3.002   6.056   5.722
 2681WAT  HW1  10722   3.020   5.987   5.657
 2681WAT  HW2  10723   3.088   6.077   5.758
 2681WAT  MW   10724   3.016   6.049   5.719
 2682WAT  OW   10725   3.054   5.858   1.736
 2682WAT  HW1  10726   3.118   5.789   1.754
 2682WAT  HW2  10727   2.976   5.811   1.708
 2682WAT  MW   10728   3.052   5.843   1.735
 2683WAT  OW   10729   6.385   2.464   0.189
 2683WAT  HW1  10730   6.319   2.396   0.181
 2683WAT  HW2  10731   6.364   2.510   0.270
 2683WAT  MW   10732   6.374   2.461   0.199
 2684WAT  OW   10733   1.399   3.373   1.348
 2684WAT  HW1  10734   1.469   3.356   1.411
 2684WAT  HW2  10735   1.444   3.406   1.270
 2684WAT  MW   10736   1.414   3.375   1.346
 2685WAT  OW   10737   1.545   2.449   4.721
 2685WAT  HW1  10738   1.545   2.376   4.659
 2685WAT  HW2  10739   1.494   2.417   4.795
 2685WAT  MW   10740   1.538   2.435   4.723
 2686WAT  OW   10741   3.961   6.423   1.133
 2686WAT  HW1  10742   3.961   6.406   1.228
 2686WAT  HW2  10743   3.868   6.437   1.111
 2686WAT  MW   10744   3.948   6.422   1.143
 2687WAT  OW   10745   2.543   6.137   0.797
 2687WAT  HW1  10746   2.494   6.083   0.735
 2687WAT  HW2  10747   2.570   6.075   0.866
 2687WAT  MW   10748   2.540   6.121   0.798
 2688WAT  OW   10749   6.619   1.907   2.076
 2688WAT  HW1  10750   6.661   1.847   2.137
 2688WAT  HW2  10751   6.587   1.851   2.005
 2688WAT  MW   10752   6.620   1.892   2.075
 2689WAT  OW   10753   2.793   1.197   2.556
 2689WAT  HW1  10754   2.847   1.183   2.478
 2689WAT  HW2  10755   2.834   1.272   2.600
 2689WAT  MW   10756   2.806   1.205   2.551
 2690WAT  OW   10757   0.218   6.295   0.418
 2690WAT  HW1  10758   0.250   6.217   0.463
 2690WAT  HW2  10759   0.148   6.328   0.476
 2690WAT  MW   10760   0.213   6.289   0.432
 2691WAT  OW   10761   4.076   2.867   3.604
 2691WAT  HW1  10762   4.130   2.946   3.602
 2691WAT  HW2  10763   3.988   2.898   3.625
 2691WAT  MW   10764   4.071   2.882   3.607
 2692WAT  OW   10765   2.995   0.638   2.871
 2692WAT  HW1  10766   2.941   0.715   2.888
 2692WAT  HW2  10767   3.028   0.651   2.782
 2692WAT  MW   10768   2.993   0.649   2.861
 2693WAT  OW   10769   6.620   1.801   5.640
 2693WAT  HW1  10770   6.591   1.888   5.668
 2693WAT  HW2  10771   6.665   1.765   5.715
 2693WAT  MW   10772   6.622   1.808   5.653
 2694WAT  OW   10773   3.463   3.140   1.316
 2694WAT  HW1  10774   3.391   3.098   1.269
 2694WAT  HW2  10775   3.430   3.226   1.340
 2694WAT  MW   10776   3.449   3.146   1.313
 2695WAT  OW   10777   1.878   5.385   5.911
 2695WAT  HW1  10778   1.812   5.451   5.933
 2695WAT  HW2  10779   1.908   5.352   5.996
 2695WAT  MW   10780   1.873   5.389   5.925
 2696WAT  OW   10781   2.067   6.557   6.482
 2696WAT  HW1  10782   2.130   6.485   6.483
 2696WAT  HW2  10783   2.122   6.636   6.475
 2696WAT  MW   10784   2.083   6.558   6.481
 2697WAT  OW   10785   4.951   4.525   0.269
 2697WAT  HW1  10786   4.869   4.481   0.291
 2697WAT  HW2  10787   4.929   4.578   0.192
 2697WAT  MW   10788   4.937   4.526   0.262
 2698WAT  OW   10789   1.709   1.285   4.571
 2698WAT  HW1  10790   1.693   1.198   4.607
 2698WAT  HW2  10791   1.627   1.333   4.586
 2698WAT  MW   10792   1.696   1.280   4.577
 2699WAT  OW   10793   1.628   2.182   0.121
 2699WAT  HW1  10794   1.557   2.162   0.182
 2699WAT  HW2  10795   1.700   2.124   0.148
 2699WAT  MW   10796   1.628   2.171   0.133
 2700WAT  OW   10797   1.383   2.192   0.219
 2700WAT  HW1  10798   1.386   2.234   0.305
 2700WAT  HW2  10799   1.322   2.119   0.231
 2700WAT  MW   10800   1.375   2.188   0.232
 2701WAT  OW   10801   5.567   2.016   1.125
 2701WAT  HW1  10802   5.633   2.082   1.145
 2701WAT  HW2  10803   5.500   2.062   1.075
 2701WAT  MW   10804   5.567   2.031   1.121
 2702WAT  OW   10805   6.361   6.690   2.766
 2702WAT  HW1  10806   6.308   6.694   2.687
 2702WAT  HW2  10807   6.397   6.778   2.775
 2702WAT  MW   10808   6.359   6.702   2.757
 2703WAT  OW   10809   4.429   1.115   4.887
 2703WAT  HW1  10810   4.359   1.148   4.944
 2703WAT  HW2  10811   4.458   1.034   4.930
 2703WAT  MW   10812   4.423   1.108   4.900
 2704WAT  OW   10813   0.581   0.262   6.032
 2704WAT  HW1  10814   0.663   0.223   6.000
 2704WAT  HW2  10815   0.526   0.187   6.054
 2704WAT  MW   10816   0.585   0.247   6.030
 2705WAT  OW   10817   2.721   5.170   3.021
 2705WAT  HW1  10818   2.627   5.153   3.028
 2705WAT  HW2  10819   2.733   5.206   2.934
 2705WAT  MW   10820   2.710   5.172   3.011
 2706WAT  OW   10821   0.063   1.832   3.507
 2706WAT  HW1  10822  -0.003   1.765   3.526
 2706WAT  HW2  10823   0.023   1.885   3.438
 2706WAT  MW   10824   0.049   1.830   3.500
 2707WAT  OW   10825   2.203   0.622   3.108
 2707WAT  HW1  10826   2.190   0.710   3.143
 2707WAT  HW2  10827   2.173   0.564   3.178
 2707WAT  MW   10828   2.197   0.626   3.122
 2708WAT  OW   10829   3.503   5.439   2.702
 2708WAT  HW1  10830   3.446   5.391   2.642
 2708WAT  HW2  10831   3.509   5.383   2.780
 2708WAT  MW   10832   3.496   5.426   2.705
 2709WAT  OW   10833   0.812   4.432   0.200
 2709WAT  HW1  10834   0.778   4.481   0.125
 2709WAT  HW2  10835   0.839   4.348   0.163
 2709WAT  MW   10836   0.811   4.427   0.185
 2710WAT  OW   10837   1.945   6.534   3.886
 2710WAT  HW1  10838   2.010   6.603   3.895
 2710WAT  HW2  10839   1.893   6.559   3.809
 2710WAT  MW   10840   1.947   6.546   3.877
 2711WAT  OW   10841   0.997   0.118   2.097
 2711WAT  HW1  10842   0.942   0.094   2.172
 2711WAT  HW2  10843   1.086   0.117   2.130
 2711WAT  MW   10844   1.001   0.114   2.111
 2712WAT  OW   10845   2.134   1.464   3.655
 2712WAT  HW1  10846   2.218   1.429   3.625
 2712WAT  HW2  10847   2.070   1.399   3.626
 2712WAT  MW   10848   2.137   1.450   3.647
 2713WAT  OW   10849   0.186   0.018   0.615
 2713WAT  HW1  10850   0.099   0.010   0.575
 2713WAT  HW2  10851   0.245  -0.022   0.551
 2713WAT  MW   10852   0.182   0.011   0.601
 2714WAT  OW   10853   5.606   3.430   5.579
 2714WAT  HW1  10854   5.662   3.358   5.605
 2714WAT  HW2  10855   5.651   3.509   5.610
 2714WAT  MW   10856   5.619   3.431   5.586
 2715WAT  OW   10857   2.059   2.821   0.382
 2715WAT  HW1  10858   1.965   2.840   0.385
 2715WAT  HW2  10859   2.066   2.729   0.408
 2715WAT  MW   10860   2.048   2.811   0.386
 2716WAT  OW   10861   5.274   4.555   3.492
 2716WAT  HW1  10862   5.188   4.554   3.451
 2716WAT  HW2  10863   5.323   4.487   3.446
 2716WAT  MW   10864   5.270   4.546   3.481
 2717WAT  OW   10865   5.754   5.288   1.314
 2717WAT  HW1  10866   5.741   5.304   1.407
 2717WAT  HW2  10867   5.842   5.321   1.296
 2717WAT  MW   10868   5.764   5.294   1.324
 2718WAT  OW   10869   4.937   4.445   6.453
 2718WAT  HW1  10870   4.917   4.355   6.428
 2718WAT  HW2  10871   4.975   4.438   6.541
 2718WAT  MW   10872   4.939   4.432   6.461
 2719WAT  OW   10873   2.178   3.565   6.351
 2719WAT  HW1  10874   2.145   3.644   6.394
 2719WAT  HW2  10875   2.263   3.591   6.315
 2719WAT  MW   10876   2.185   3.579   6.352
 2720WAT  OW   10877   1.917   2.990   4.612
 2720WAT  HW1  10878   1.989   3.051   4.628
 2720WAT  HW2  10879   1.873   2.982   4.697
 2720WAT  MW   10880   1.920   2.997   4.625
 2721WAT  OW   10881   5.578   2.035   2.538
 2721WAT  HW1  10882   5.583   2.026   2.633
 2721WAT  HW2  10883   5.634   1.964   2.504
 2721WAT  MW   10884   5.586   2.025   2.546
 2722WAT  OW   10885   2.626   1.923   3.198
 2722WAT  HW1  10886   2.612   1.963   3.112
 2722WAT  HW2  10887   2.721   1.914   3.205
 2722WAT  MW   10888   2.637   1.927   3.188
 2723WAT  OW   10889   5.308   3.982   0.238
 2723WAT  HW1  10890   5.344   4.021   0.158
 2723WAT  HW2  10891   5.247   3.915   0.207
 2723WAT  MW   10892   5.305   3.978   0.223
 2724WAT  OW   10893   2.521   4.112   5.389
 2724WAT  HW1  10894   2.503   4.018   5.396
 2724WAT  HW2  10895   2.480   4.138   5.307
 2724WAT  MW   10896   2.513   4.103   5.379
 2725WAT  OW   10897   3.831   5.362   6.412
 2725WAT  HW1  10898   3.779   5.309   6.352
 2725WAT  HW2  10899   3.885   5.298   6.460
 2725WAT  MW   10900   3.831   5.346   6.411
 2726WAT  OW   10901   2.734   6.265   5.069
 2726WAT  HW1  10902   2.685   6.300   5.143
 2726WAT  HW2  10903   2.673   6.206   5.025
 2726WAT  MW   10904   2.719   6.262   5.073
 2727WAT  OW   10905   5.414   5.817   1.626
 2727WAT  HW1  10906   5.490   5.856   1.670
 2727WAT  HW2  10907   5.429   5.722   1.635
 2727WAT  MW   10908   5.426   5.809   1.633
 2728WAT  OW   10909   0.420   2.821   1.070
 2728WAT  HW1  10910   0.510   2.834   1.042
 2728WAT  HW2  10911   0.422   2.828   1.165
 2728WAT  MW   10912   0.432   2.823   1.079
 2729WAT  OW   10913   3.203   2.592   5.822
 2729WAT  HW1  10914   3.240   2.649   5.754
 2729WAT  HW2  10915   3.176   2.652   5.892
 2729WAT  MW   10916   3.204   2.608   5.822
 2730WAT  OW   10917   1.651   6.677   6.388
 2730WAT  HW1  10918   1.716   6.654   6.455
 2730WAT  HW2  10919   1.696   6.661   6.305
 2730WAT  MW   10920   1.666   6.672   6.386
 2731WAT  OW   10921   4.214   3.059   6.602
 2731WAT  HW1  10922   4.263   3.139   6.619
 2731WAT  HW2  10923   4.194   3.061   6.509
 2731WAT  MW   10924   4.218   3.069   6.592
 2732WAT  OW   10925   4.771   2.463   0.170
 2732WAT  HW1  10926   4.808   2.494   0.252
 2732WAT  HW2  10927   4.841   2.479   0.105
 2732WAT  MW   10928   4.785   2.470   0.172
 2733WAT  OW   10929   1.873   3.934   3.602
 2733WAT  HW1  10930   1.892   3.950   3.510
 2733WAT  HW2  10931   1.914   4.007   3.648
 2733WAT  MW   10932   1.881   3.946   3.596
 2734WAT  OW   10933   0.407   0.936   1.145
 2734WAT  HW1  10934   0.423   1.025   1.178
 2734WAT  HW2  10935   0.477   0.922   1.081
 2734WAT  MW   10936   0.419   0.946   1.141
 2735WAT  OW   10937   4.717   1.800   6.118
 2735WAT  HW1  10938   4.639   1.801   6.063
 2735WAT  HW2  10939   4.686   1.771   6.204
 2735WAT  MW   10940   4.703   1.796   6.122
 2736WAT  OW   10941   1.041   4.072   4.524
 2736WAT  HW1  10942   1.106   4.021   4.571
 2736WAT  HW2  10943   1.004   4.012   4.460
 2736WAT  MW   10944   1.045   4.057   4.522
 2737WAT  OW   10945   5.204   5.219   5.476
 2737WAT  HW1  10946   5.120   5.264   5.488
 2737WAT  HW2  10947   5.191   5.134   5.520
 2737WAT  MW   10948   5.191   5.214   5.484
 2738WAT  OW   10949   3.068   0.233   5.701
 2738WAT  HW1  10950   3.010   0.163   5.670
 2738WAT  HW2  10951   3.102   0.273   5.621
 2738WAT  MW   10952   3.064   0.229   5.686
 2739WAT  OW   10953   5.789   2.403   1.455
 2739WAT  HW1  10954   5.811   2.496   1.451
 2739WAT  HW2  10955   5.874   2.358   1.459
 2739WAT  MW   10956   5.803   2.409   1.455
 2740WAT  OW   10957   2.508   5.066   4.876
 2740WAT  HW1  10958   2.562   4.987   4.874
 2740WAT  HW2  10959   2.500   5.088   4.969
 2740WAT  MW   10960   2.514   5.058   4.888
 2741WAT  OW   10961   4.791   1.144   5.975
 2741WAT  HW1  10962   4.747   1.085   6.036
 2741WAT  HW2  10963   4.869   1.173   6.022
 2741WAT  MW   10964   4.796   1.140   5.990
 2742WAT  OW   10965   2.087   5.056   4.404
 2742WAT  HW1  10966   2.096   4.964   4.381
 2742WAT  HW2  10967   2.100   5.103   4.321
 2742WAT  MW   10968   2.090   5.050   4.390
 2743WAT  OW   10969   4.049   3.727   1.095
 2743WAT  HW1  10970   3.983   3.770   1.149
 2743WAT  HW2  10971   4.009   3.720   1.008
 2743WAT  MW   10972   4.035   3.732   1.091
 2744WAT  OW   10973   3.061   5.097   2.855
 2744WAT  HW1  10974   3.026   5.095   2.944
 2744WAT  HW2  10975   3.013   5.028   2.809
 2744WAT  MW   10976   3.050   5.088   2.861
 2745WAT  OW   10977   0.948   1.069   2.434
 2745WAT  HW1  10978   0.980   1.070   2.524
 2745WAT  HW2  10979   0.977   0.984   2.399
 2745WAT  MW   10980   0.956   1.058   2.441
 2746WAT  OW   10981   0.064   2.361   6.599
 2746WAT  HW1  10982   0.144   2.397   6.638
 2746WAT  HW2  10983  -0.006   2.418   6.632
 2746WAT  MW   10984   0.065   2.374   6.608
 2747WAT  OW   10985   2.972   2.284   3.745
 2747WAT  HW1  10986   2.946   2.318   3.830
 2747WAT  HW2  10987   2.995   2.362   3.694
 2747WAT  MW   10988   2.972   2.299   3.749
 2748WAT  OW   10989   1.151   2.963   4.716
 2748WAT  HW1  10990   1.181   3.004   4.635
 2748WAT  HW2  10991   1.058   2.945   4.700
 2748WAT  MW   10992   1.142   2.966   4.703
 2749WAT  OW   10993   2.260   0.766   3.728
 2749WAT  HW1  10994   2.201   0.771   3.803
 2749WAT  HW2  10995   2.229   0.833   3.668
 2749WAT  MW   10996   2.248   0.775   3.730
 2750WAT  OW   10997   5.381   1.571   1.688
 2750WAT  HW1  10998   5.451   1.536   1.632
 2750WAT  HW2  10999   5.325   1.495   1.706
 2750WAT  MW   11000   5.383   1.556   1.683
 2751WAT  OW   11001   4.369   3.842   4.868
 2751WAT  HW1  11002   4.306   3.830   4.938
 2751WAT  HW2  11003   4.393   3.754   4.841
 2751WAT  MW   11004   4.364   3.829   4.874
 2752WAT  OW   11005   0.637   3.624   5.881
 2752WAT  HW1  11006   0.713   3.660   5.926
 2752WAT  HW2  11007   0.672   3.589   5.799
 2752WAT  MW   11008   0.651   3.624   5.876
 2753WAT  OW   11009   1.234   5.954   4.331
 2753WAT  HW1  11010   1.257   6.025   4.391
 2753WAT  HW2  11011   1.139   5.945   4.340
 2753WAT  MW   11012   1.224   5.962   4.340
 2754WAT  OW   11013   3.965   3.721   2.481
 2754WAT  HW1  11014   3.916   3.746   2.403
 2754WAT  HW2  11015   3.899   3.684   2.540
 2754WAT  MW   11016   3.949   3.719   2.479
 2755WAT  OW   11017   2.667   5.652   6.562
 2755WAT  HW1  11018   2.573   5.638   6.562
 2755WAT  HW2  11019   2.679   5.739   6.524
 2755WAT  MW   11020   2.656   5.662   6.557
 2756WAT  OW   11021   3.885   1.171   4.472
 2756WAT  HW1  11022   3.909   1.096   4.418
 2756WAT  HW2  11023   3.944   1.166   4.548
 2756WAT  MW   11024   3.896   1.160   4.475
 2757WAT  OW   11025   6.413   0.468   2.415
 2757WAT  HW1  11026   6.389   0.491   2.326
 2757WAT  HW2  11027   6.429   0.373   2.411
 2757WAT  MW   11028   6.412   0.458   2.403
 2758WAT  OW   11029   1.614   4.270   1.777
 2758WAT  HW1  11030   1.544   4.323   1.739
 2758WAT  HW2  11031   1.577   4.181   1.781
 2758WAT  MW   11032   1.600   4.265   1.773
 2759WAT  OW   11033   0.946   3.223   4.198
 2759WAT  HW1  11034   0.948   3.275   4.117
 2759WAT  HW2  11035   1.030   3.242   4.241
 2759WAT  MW   11036   0.958   3.232   4.193
 2760WAT  OW   11037   2.280   2.625   1.388
 2760WAT  HW1  11038   2.282   2.529   1.394
 2760WAT  HW2  11039   2.202   2.650   1.438
 2760WAT  MW   11040   2.270   2.615   1.396
 2761WAT  OW   11041   0.032   3.586   5.411
 2761WAT  HW1  11042   0.008   3.632   5.491
 2761WAT  HW2  11043  -0.050   3.574   5.364
 2761WAT  MW   11044   0.018   3.590   5.415
 2762WAT  OW   11045   3.274   5.739   2.525
 2762WAT  HW1  11046   3.198   5.797   2.535
 2762WAT  HW2  11047   3.249   5.680   2.454
 2762WAT  MW   11048   3.261   5.739   2.517
 2763WAT  OW   11049   5.597   1.532   6.201
 2763WAT  HW1  11050   5.651   1.466   6.157
 2763WAT  HW2  11051   5.540   1.566   6.132
 2763WAT  MW   11052   5.597   1.528   6.186
 2764WAT  OW   11053   2.376   3.044   0.499
 2764WAT  HW1  11054   2.361   2.998   0.582
 2764WAT  HW2  11055   2.408   3.130   0.525
 2764WAT  MW   11056   2.378   3.049   0.514
 2765WAT  OW   11057   5.370   1.620   0.316
 2765WAT  HW1  11058   5.425   1.579   0.249
 2765WAT  HW2  11059   5.294   1.562   0.322
 2765WAT  MW   11060   5.367   1.607   0.308
 2766WAT  OW   11061   5.727   0.004   6.233
 2766WAT  HW1  11062   5.713   0.073   6.298
 2766WAT  HW2  11063   5.821  -0.016   6.239
 2766WAT  MW   11064   5.738   0.011   6.242
 2767WAT  OW   11065   5.735   3.261   1.816
 2767WAT  HW1  11066   5.794   3.200   1.772
 2767WAT  HW2  11067   5.788   3.340   1.830
 2767WAT  MW   11068   5.749   3.263   1.812
 2768WAT  OW   11069   0.606   0.119   1.853
 2768WAT  HW1  11070   0.560   0.164   1.782
 2768WAT  HW2  11071   0.559   0.036   1.863
 2768WAT  MW   11072   0.594   0.114   1.845
 2769WAT  OW   11073   4.017   1.698   5.302
 2769WAT  HW1  11074   4.086   1.725   5.362
 2769WAT  HW2  11075   3.960   1.642   5.355
 2769WAT  MW   11076   4.018   1.694   5.317
 2770WAT  OW   11077   2.814   5.814   3.345
 2770WAT  HW1  11078   2.843   5.903   3.361
 2770WAT  HW2  11079   2.775   5.816   3.258
 2770WAT  MW   11080   2.813   5.826   3.336
 2771WAT  OW   11081   2.567   6.578   0.873
 2771WAT  HW1  11082   2.571   6.519   0.798
 2771WAT  HW2  11083   2.648   6.629   0.868
 2771WAT  MW   11084   2.579   6.577   0.863
 2772WAT  OW   11085   0.319   2.360   5.041
 2772WAT  HW1  11086   0.386   2.294   5.028
 2772WAT  HW2  11087   0.251   2.316   5.092
 2772WAT  MW   11088   0.319   2.346   5.046
 2773WAT  OW   11089   0.327   6.366   0.830
 2773WAT  HW1  11090   0.336   6.405   0.743
 2773WAT  HW2  11091   0.239   6.327   0.829
 2773WAT  MW   11092   0.317   6.366   0.818
 2774WAT  OW   11093   0.514   5.181   1.111
 2774WAT  HW1  11094   0.517   5.167   1.206
 2774WAT  HW2  11095   0.438   5.238   1.098
 2774WAT  MW   11096   0.504   5.187   1.122
 2775WAT  OW   11097   1.708   1.537   1.784
 2775WAT  HW1  11098   1.699   1.617   1.733
 2775WAT  HW2  11099   1.761   1.479   1.728
 2775WAT  MW   11100   1.714   1.540   1.770
 2776WAT  OW   11101   4.502   2.757   4.081
 2776WAT  HW1  11102   4.453   2.686   4.122
 2776WAT  HW2  11103   4.435   2.810   4.038
 2776WAT  MW   11104   4.487   2.755   4.081
 2777WAT  OW   11105   0.555   2.579   3.479
 2777WAT  HW1  11106   0.589   2.652   3.530
 2777WAT  HW2  11107   0.626   2.554   3.421
 2777WAT  MW   11108   0.569   2.585   3.478
 2778WAT  OW   11109   5.641   4.444   4.109
 2778WAT  HW1  11110   5.593   4.451   4.027
 2778WAT  HW2  11111   5.652   4.350   4.122
 2778WAT  MW   11112   5.636   4.433   4.100
 2779WAT  OW   11113   4.569   5.999   1.090
 2779WAT  HW1  11114   4.523   5.916   1.079
 2779WAT  HW2  11115   4.608   5.993   1.178
 2779WAT  MW   11116   4.568   5.987   1.100
 2780WAT  OW   11117   6.666   2.581   1.778
 2780WAT  HW1  11118   6.640   2.516   1.843
 2780WAT  HW2  11119   6.688   2.659   1.829
 2780WAT  MW   11120   6.666   2.583   1.793
 2781WAT  OW   11121   4.646   0.994   3.159
 2781WAT  HW1  11122   4.729   1.016   3.200
 2781WAT  HW2  11123   4.647   1.039   3.075
 2781WAT  MW   11124   4.657   1.003   3.153
 2782WAT  OW   11125   4.007   4.921   5.051
 2782WAT  HW1  11126   4.079   4.933   5.114
 2782WAT  HW2  11127   4.031   4.976   4.977
 2782WAT  MW   11128   4.020   4.930   5.050
 2783WAT  OW   11129   4.213   5.833   5.400
 2783WAT  HW1  11130   4.278   5.762   5.402
 2783WAT  HW2  11131   4.263   5.910   5.374
 2783WAT  MW   11132   4.228   5.833   5.397
 2784WAT  OW   11133   0.142   3.705   5.685
 2784WAT  HW1  11134   0.183   3.776   5.733
 2784WAT  HW2  11135   0.214   3.662   5.639
 2784WAT  MW   11136   0.157   3.709   5.685
 2785WAT  OW   11137   4.832   6.020   1.740
 2785WAT  HW1  11138   4.751   6.031   1.689
 2785WAT  HW2  11139   4.867   6.108   1.749
 2785WAT  MW   11140   4.826   6.033   1.734
 2786WAT  OW   11141   4.183   6.345   5.883
 2786WAT  HW1  11142   4.278   6.357   5.880
 2786WAT  HW2  11143   4.150   6.424   5.925
 2786WAT  MW   11144   4.191   6.357   5.888
 2787WAT  OW   11145   3.634   0.825   4.713
 2787WAT  HW1  11146   3.668   0.776   4.639
 2787WAT  HW2  11147   3.657   0.916   4.695
 2787WAT  MW   11148   3.642   0.830   4.701
 2788WAT  OW   11149   1.314   2.576   6.687
 2788WAT  HW1  11150   1.400   2.556   6.650
 2788WAT  HW2  11151   1.320   2.667   6.715
 2788WAT  MW   11152   1.326   2.585   6.686
 2789WAT  OW   11153   4.157   4.875   3.388
 2789WAT  HW1  11154   4.160   4.807   3.456
 2789WAT  HW2  11155   4.231   4.856   3.331
 2789WAT  MW   11156   4.167   4.864   3.390
 2790WAT  OW   11157   2.209   6.570   0.046
 2790WAT  HW1  11158   2.165   6.611  -0.028
 2790WAT  HW2  11159   2.177   6.620   0.122
 2790WAT  MW   11160   2.199   6.582   0.046
 2791WAT  OW   11161   6.584   3.014   0.882
 2791WAT  HW1  11162   6.544   2.931   0.908
 2791WAT  HW2  11163   6.559   3.025   0.791
 2791WAT  MW   11164   6.575   3.005   0.874
 2792WAT  OW   11165   1.923   3.732   2.974
 2792WAT  HW1  11166   1.920   3.656   3.032
 2792WAT  HW2  11167   1.899   3.699   2.888
 2792WAT  MW   11168   1.920   3.718   2.971
 2793WAT  OW   11169   5.276   4.453   3.077
 2793WAT  HW1  11170   5.275   4.547   3.056
 2793WAT  HW2  11171   5.331   4.447   3.155
 2793WAT  MW   11172   5.283   4.465   3.084
 2794WAT  OW   11173   2.472   6.576   0.364
 2794WAT  HW1  11174   2.397   6.517   0.369
 2794WAT  HW2  11175   2.540   6.524   0.321
 2794WAT  MW   11176   2.471   6.561   0.359
 2795WAT  OW   11177   3.317   2.727   5.610
 2795WAT  HW1  11178   3.392   2.695   5.559
 2795WAT  HW2  11179   3.242   2.711   5.554
 2795WAT  MW   11180   3.317   2.721   5.596
 2796WAT  OW   11181   1.367   1.122   4.268
 2796WAT  HW1  11182   1.430   1.188   4.297
 2796WAT  HW2  11183   1.420   1.057   4.222
 2796WAT  MW   11184   1.383   1.122   4.266
 2797WAT  OW   11185   3.323   2.223   1.876
 2797WAT  HW1  11186   3.308   2.318   1.880
 2797WAT  HW2  11187   3.416   2.215   1.856
 2797WAT  MW   11188   3.333   2.235   1.874
 2798WAT  OW   11189   1.079   1.875   3.561
 2798WAT  HW1  11190   1.032   1.957   3.549
 2798WAT  HW2  11191   1.166   1.901   3.592
 2798WAT  MW   11192   1.084   1.889   3.563
 2799WAT  OW   11193   6.669   5.643   0.520
 2799WAT  HW1  11194   6.689   5.734   0.541
 2799WAT  HW2  11195   6.577   5.644   0.492
 2799WAT  MW   11196   6.659   5.655   0.519
 2800WAT  OW   11197   1.787   1.394   4.008
 2800WAT  HW1  11198   1.873   1.435   4.021
 2800WAT  HW2  11199   1.777   1.392   3.913
 2800WAT  MW   11200   1.797   1.399   3.997
 2801WAT  OW   11201   4.660   2.082   3.256
 2801WAT  HW1  11202   4.625   2.003   3.215
 2801WAT  HW2  11203   4.645   2.069   3.350
 2801WAT  MW   11204   4.653   2.070   3.263
 2802WAT  OW   11205   4.098   1.419   0.698
 2802WAT  HW1  11206   4.045   1.480   0.750
 2802WAT  HW2  11207   4.040   1.389   0.629
 2802WAT  MW   11208   4.083   1.423   0.696
 2803WAT  OW   11209   0.386   1.746   0.636
 2803WAT  HW1  11210   0.448   1.777   0.702
 2803WAT  HW2  11211   0.363   1.824   0.586
 2803WAT  MW   11212   0.391   1.760   0.638
 2804WAT  OW   11213   5.484   5.158   6.002
 2804WAT  HW1  11214   5.487   5.252   6.019
 2804WAT  HW2  11215   5.405   5.145   5.950
 2804WAT  MW   11216   5.474   5.169   5.997
 2805WAT  OW   11217   4.332   2.051   2.172
 2805WAT  HW1  11218   4.402   1.989   2.191
 2805WAT  HW2  11219   4.374   2.121   2.122
 2805WAT  MW   11220   4.347   2.052   2.168
 2806WAT  OW   11221   0.401   0.369   3.837
 2806WAT  HW1  11222   0.463   0.406   3.774
 2806WAT  HW2  11223   0.450   0.299   3.881
 2806WAT  MW   11224   0.416   0.364   3.835
 2807WAT  OW   11225   0.709   2.429   2.255
 2807WAT  HW1  11226   0.684   2.354   2.308
 2807WAT  HW2  11227   0.699   2.505   2.313
 2807WAT  MW   11228   0.705   2.429   2.269
 2808WAT  OW   11229   1.381   2.380   4.922
 2808WAT  HW1  11230   1.308   2.442   4.929
 2808WAT  HW2  11231   1.420   2.378   5.009
 2808WAT  MW   11232   1.377   2.388   4.934
 2809WAT  OW   11233   5.473   3.368   4.668
 2809WAT  HW1  11234   5.500   3.457   4.693
 2809WAT  HW2  11235   5.427   3.379   4.585
 2809WAT  MW   11236   5.471   3.381   4.660
 2810WAT  OW   11237   0.203   0.592   0.126
 2810WAT  HW1  11238   0.292   0.595   0.162
 2810WAT  HW2  11239   0.152   0.649   0.185
 2810WAT  MW   11240   0.208   0.600   0.139
 2811WAT  OW   11241   3.041   3.068   6.272
 2811WAT  HW1  11242   3.107   2.999   6.261
 2811WAT  HW2  11243   2.969   3.024   6.318
 2811WAT  MW   11244   3.040   3.053   6.277
 2812WAT  OW   11245   6.633   4.923   3.860
 2812WAT  HW1  11246   6.595   4.906   3.773
 2812WAT  HW2  11247   6.559   4.956   3.911
 2812WAT  MW   11248   6.618   4.925   3.855
 2813WAT  OW   11249   4.325   5.210   0.006
 2813WAT  HW1  11250   4.399   5.243   0.057
 2813WAT  HW2  11251   4.260   5.185   0.072
 2813WAT  MW   11252   4.326   5.211   0.022
 2814WAT  OW   11253   2.303   0.868   5.312
 2814WAT  HW1  11254   2.213   0.896   5.293
 2814WAT  HW2  11255   2.357   0.941   5.282
 2814WAT  MW   11256   2.298   0.881   5.306
 2815WAT  OW   11257   0.831   5.577   0.520
 2815WAT  HW1  11258   0.782   5.642   0.469
 2815WAT  HW2  11259   0.923   5.598   0.504
 2815WAT  MW   11260   0.837   5.588   0.511
 2816WAT  OW   11261   3.495   6.370   5.025
 2816WAT  HW1  11262   3.470   6.450   4.978
 2816WAT  HW2  11263   3.491   6.302   4.958
 2816WAT  MW   11264   3.491   6.372   5.010
 2817WAT  OW   11265   3.670   5.459   4.837
 2817WAT  HW1  11266   3.669   5.420   4.924
 2817WAT  HW2  11267   3.578   5.479   4.818
 2817WAT  MW   11268   3.657   5.457   4.846
 2818WAT  OW   11269   1.244   5.805   4.791
 2818WAT  HW1  11270   1.169   5.849   4.830
 2818WAT  HW2  11271   1.207   5.753   4.720
 2818WAT  MW   11272   1.229   5.804   4.787
 2819WAT  OW   11273   5.597   5.609   3.175
 2819WAT  HW1  11274   5.564   5.538   3.231
 2819WAT  HW2  11275   5.529   5.676   3.178
 2819WAT  MW   11276   5.584   5.608   3.183
 2820WAT  OW   11277   3.767   3.646   1.792
 2820WAT  HW1  11278   3.672   3.632   1.789
 2820WAT  HW2  11279   3.804   3.559   1.805
 2820WAT  MW   11280   3.759   3.633   1.793
 2821WAT  OW   11281   0.037   4.909   6.275
 2821WAT  HW1  11282   0.036   4.828   6.224
 2821WAT  HW2  11283   0.047   4.880   6.366
 2821WAT  MW   11284   0.038   4.894   6.280
 2822WAT  OW   11285   1.189   5.929   5.504
 2822WAT  HW1  11286   1.185   5.862   5.435
 2822WAT  HW2  11287   1.167   5.881   5.584
 2822WAT  MW   11288   1.186   5.914   5.505
 2823WAT  OW   11289   5.042   1.593   4.856
 2823WAT  HW1  11290   4.979   1.640   4.802
 2823WAT  HW2  11291   4.993   1.519   4.892
 2823WAT  MW   11292   5.027   1.590   4.854
 2824WAT  OW   11293   5.358   2.345   1.887
 2824WAT  HW1  11294   5.330   2.288   1.816
 2824WAT  HW2  11295   5.277   2.368   1.933
 2824WAT  MW   11296   5.343   2.341   1.884
 2825WAT  OW   11297   0.084   1.703   0.314
 2825WAT  HW1  11298   0.081   1.616   0.354
 2825WAT  HW2  11299   0.176   1.729   0.322
 2825WAT  MW   11300   0.096   1.695   0.321
 2826WAT  OW   11301   5.205   5.438   1.781
 2826WAT  HW1  11302   5.274   5.380   1.815
 2826WAT  HW2  11303   5.241   5.526   1.790
 2826WAT  MW   11304   5.219   5.442   1.787
 2827WAT  OW   11305   6.671   2.178   2.882
 2827WAT  HW1  11306   6.585   2.138   2.895
 2827WAT  HW2  11307   6.659   2.269   2.909
 2827WAT  MW   11308   6.658   2.185   2.887
 2828WAT  OW   11309   1.023   5.411   4.404
 2828WAT  HW1  11310   1.014   5.504   4.420
 2828WAT  HW2  11311   0.982   5.369   4.480
 2828WAT  MW   11312   1.017   5.417   4.416
 2829WAT  OW   11313   1.938   6.031   2.565
 2829WAT  HW1  11314   1.882   5.955   2.551
 2829WAT  HW2  11315   1.901   6.076   2.641
 2829WAT  MW   11316   1.926   6.027   2.573
 2830WAT  OW   11317   5.478   4.839   4.025
 2830WAT  HW1  11318   5.566   4.819   3.992
 2830WAT  HW2  11319   5.464   4.930   3.999
 2830WAT  MW   11320   5.488   4.848   4.017
 2831WAT  OW   11321   6.166   4.552   3.354
 2831WAT  HW1  11322   6.261   4.542   3.343
 2831WAT  HW2  11323   6.134   4.576   3.268
 2831WAT  MW   11324   6.174   4.554   3.342
 2832WAT  OW   11325   0.766   2.938   0.315
 2832WAT  HW1  11326   0.736   2.848   0.330
 2832WAT  HW2  11327   0.792   2.940   0.223
 2832WAT  MW   11328   0.765   2.927   0.305
 2833WAT  OW   11329   6.408   2.510   6.439
 2833WAT  HW1  11330   6.445   2.473   6.359
 2833WAT  HW2  11331   6.385   2.600   6.415
 2833WAT  MW   11332   6.410   2.517   6.425
 2834WAT  OW   11333   0.805   4.183   1.060
 2834WAT  HW1  11334   0.804   4.279   1.057
 2834WAT  HW2  11335   0.734   4.157   1.001
 2834WAT  MW   11336   0.795   4.192   1.052
 2835WAT  OW   11337   1.865   0.924   4.871
 2835WAT  HW1  11338   1.890   0.993   4.932
 2835WAT  HW2  11339   1.946   0.901   4.826
 2835WAT  MW   11340   1.879   0.930   4.873
 2836WAT  OW   11341   0.741   0.751   6.024
 2836WAT  HW1  11342   0.792   0.700   6.087
 2836WAT  HW2  11343   0.790   0.742   5.942
 2836WAT  MW   11344   0.755   0.743   6.021
 2837WAT  OW   11345   3.449   1.993   2.054
 2837WAT  HW1  11346   3.477   1.931   2.120
 2837WAT  HW2  11347   3.498   1.969   1.975
 2837WAT  MW   11348   3.459   1.982   2.052
 2838WAT  OW   11349   5.524   6.591   4.803
 2838WAT  HW1  11350   5.475   6.672   4.789
 2838WAT  HW2  11351   5.583   6.611   4.876
 2838WAT  MW   11352   5.525   6.605   4.811
 2839WAT  OW   11353   6.505   2.660   4.260
 2839WAT  HW1  11354   6.415   2.693   4.263
 2839WAT  HW2  11355   6.548   2.717   4.196
 2839WAT  MW   11356   6.498   2.672   4.252
 2840WAT  OW   11357   5.907   0.617   0.440
 2840WAT  HW1  11358   5.957   0.568   0.505
 2840WAT  HW2  11359   5.824   0.571   0.433
 2840WAT  MW   11360   5.903   0.605   0.447
 2841WAT  OW   11361   2.414   5.990   0.604
 2841WAT  HW1  11362   2.330   5.966   0.644
 2841WAT  HW2  11363   2.391   6.055   0.537
 2841WAT  MW   11364   2.400   5.996   0.600
 2842WAT  OW   11365   3.584   4.540   5.741
 2842WAT  HW1  11366   3.558   4.463   5.792
 2842WAT  HW2  11367   3.502   4.579   5.712
 2842WAT  MW   11368   3.570   4.535   5.744
 2843WAT  OW   11369   0.737   2.697   6.203
 2843WAT  HW1  11370   0.802   2.639   6.243
 2843WAT  HW2  11371   0.672   2.639   6.165
 2843WAT  MW   11372   0.737   2.682   6.203
 2844WAT  OW   11373   0.110   6.241   6.518
 2844WAT  HW1  11374   0.148   6.195   6.593
 2844WAT  HW2  11375   0.184   6.265   6.463
 2844WAT  MW   11376   0.124   6.238   6.521
 2845WAT  OW   11377   2.866   5.537   5.411
 2845WAT  HW1  11378   2.940   5.487   5.378
 2845WAT  HW2  11379   2.837   5.589   5.335
 2845WAT  MW   11380   2.872   5.538   5.396
 2846WAT  OW   11381   1.832   3.921   3.302
 2846WAT  HW1  11382   1.868   3.834   3.317
 2846WAT  HW2  11383   1.738   3.907   3.292
 2846WAT  MW   11384   1.824   3.908   3.303
 2847WAT  OW   11385   4.282   1.158   0.570
 2847WAT  HW1  11386   4.354   1.101   0.544
 2847WAT  HW2  11387   4.309   1.193   0.655
 2847WAT  MW   11388   4.295   1.155   0.578
 2848WAT  OW   11389   1.776   0.129   4.040
 2848WAT  HW1  11390   1.754   0.036   4.034
 2848WAT  HW2  11391   1.743   0.156   4.126
 2848WAT  MW   11392   1.768   0.120   4.051
 2849WAT  OW   11393   4.250   6.222   4.738
 2849WAT  HW1  11394   4.273   6.218   4.645
 2849WAT  HW2  11395   4.183   6.155   4.749
 2849WAT  MW   11396   4.244   6.213   4.727
 2850WAT  OW   11397   3.509   0.922   4.262
 2850WAT  HW1  11398   3.423   0.889   4.235
 2850WAT  HW2  11399   3.532   0.985   4.194
 2850WAT  MW   11400   3.501   0.926   4.249
 2851WAT  OW   11401   2.660   3.859   5.542
 2851WAT  HW1  11402   2.711   3.932   5.578
 2851WAT  HW2  11403   2.692   3.850   5.452
 2851WAT  MW   11404   2.671   3.868   5.535
 2852WAT  OW   11405   5.146   5.966   0.842
 2852WAT  HW1  11406   5.234   5.942   0.872
 2852WAT  HW2  11407   5.139   5.928   0.755
 2852WAT  MW   11408   5.157   5.958   0.835
 2853WAT  OW   11409   0.569   1.598   0.464
 2853WAT  HW1  11410   0.511   1.649   0.520
 2853WAT  HW2  11411   0.620   1.545   0.524
 2853WAT  MW   11412   0.568   1.598   0.479
 2854WAT  OW   11413   2.247   5.715   5.414
 2854WAT  HW1  11414   2.204   5.651   5.471
 2854WAT  HW2  11415   2.190   5.721   5.338
 2854WAT  MW   11416   2.234   5.707   5.412
 2855WAT  OW   11417   4.508   4.844   2.816
 2855WAT  HW1  11418   4.545   4.920   2.859
 2855WAT  HW2  11419   4.429   4.824   2.866
 2855WAT  MW   11420   4.502   4.851   2.828
 2856WAT  OW   11421   4.914   5.177   5.931
 2856WAT  HW1  11422   4.981   5.241   5.909
 2856WAT  HW2  11423   4.836   5.207   5.883
 2856WAT  MW   11424   4.912   5.190   5.922
 2857WAT  OW   11425   5.598   1.426   3.994
 2857WAT  HW1  11426   5.590   1.518   3.969
 2857WAT  HW2  11427   5.547   1.379   3.928
 2857WAT  MW   11428   5.590   1.432   3.982
 2858WAT  OW   11429   6.132   1.561   1.924
 2858WAT  HW1  11430   6.146   1.479   1.877
 2858WAT  HW2  11431   6.073   1.539   1.995
 2858WAT  MW   11432   6.126   1.548   1.927
 2859WAT  OW   11433   0.465   4.880   2.262
 2859WAT  HW1  11434   0.516   4.941   2.315
 2859WAT  HW2  11435   0.374   4.900   2.283
 2859WAT  MW   11436   0.460   4.891   2.272
 2860WAT  OW   11437   1.318   3.102   0.972
 2860WAT  HW1  11438   1.389   3.107   1.036
 2860WAT  HW2  11439   1.240   3.129   1.020
 2860WAT  MW   11440   1.317   3.106   0.987
 2861WAT  OW   11441   4.227   3.567   6.335
 2861WAT  HW1  11442   4.299   3.576   6.273
 2861WAT  HW2  11443   4.258   3.609   6.415
 2861WAT  MW   11444   4.241   3.574   6.337
 2862WAT  OW   11445   3.521   4.920   4.378
 2862WAT  HW1  11446   3.547   4.836   4.415
 2862WAT  HW2  11447   3.603   4.959   4.347
 2862WAT  MW   11448   3.535   4.914   4.379
 2863WAT  OW   11449   4.475   0.788   5.787
 2863WAT  HW1  11450   4.469   0.877   5.753
 2863WAT  HW2  11451   4.431   0.735   5.720
 2863WAT  MW   11452   4.469   0.793   5.774
 2864WAT  OW   11453   5.773   0.225   5.056
 2864WAT  HW1  11454   5.787   0.310   5.015
 2864WAT  HW2  11455   5.727   0.245   5.138
 2864WAT  MW   11456   5.769   0.239   5.061
 2865WAT  OW   11457   5.617   2.263   1.294
 2865WAT  HW1  11458   5.683   2.320   1.333
 2865WAT  HW2  11459   5.587   2.207   1.365
 2865WAT  MW   11460   5.621   2.263   1.308
 2866WAT  OW   11461   4.844   0.104   1.241
 2866WAT  HW1  11462   4.925   0.124   1.289
 2866WAT  HW2  11463   4.825   0.013   1.263
 2866WAT  MW   11464   4.852   0.094   1.251
 2867WAT  OW   11465   5.431   4.128   1.551
 2867WAT  HW1  11466   5.440   4.035   1.571
 2867WAT  HW2  11467   5.435   4.133   1.455
 2867WAT  MW   11468   5.432   4.117   1.541
 2868WAT  OW   11469   3.149   3.996   1.977
 2868WAT  HW1  11470   3.172   4.088   1.969
 2868WAT  HW2  11471   3.066   3.988   1.930
 2868WAT  MW   11472   3.141   4.007   1.970
 2869WAT  OW   11473   6.539   5.671   4.986
 2869WAT  HW1  11474   6.553   5.742   5.049
 2869WAT  HW2  11475   6.619   5.618   4.991
 2869WAT  MW   11476   6.552   5.674   4.995
 2870WAT  OW   11477   0.774   6.657   1.697
 2870WAT  HW1  11478   0.752   6.734   1.749
 2870WAT  HW2  11479   0.855   6.624   1.737
 2870WAT  MW   11480   0.782   6.663   1.709
 2871WAT  OW   11481   6.270   6.038   2.147
 2871WAT  HW1  11482   6.252   6.132   2.153
 2871WAT  HW2  11483   6.206   5.998   2.206
 2871WAT  MW   11484   6.259   6.045   2.156
 2872WAT  OW   11485   5.354   3.579   4.152
 2872WAT  HW1  11486   5.295   3.553   4.082
 2872WAT  HW2  11487   5.351   3.675   4.152
 2872WAT  MW   11488   5.346   3.588   4.143
 2873WAT  OW   11489   1.769   2.551   6.094
 2873WAT  HW1  11490   1.776   2.635   6.049
 2873WAT  HW2  11491   1.687   2.513   6.061
 2873WAT  MW   11492   1.759   2.557   6.084
 2874WAT  OW   11493   1.178   4.765   0.276
 2874WAT  HW1  11494   1.250   4.826   0.258
 2874WAT  HW2  11495   1.129   4.806   0.348
 2874WAT  MW   11496   1.181   4.779   0.283
 2875WAT  OW   11497   1.820   5.705   3.216
 2875WAT  HW1  11498   1.871   5.778   3.252
 2875WAT  HW2  11499   1.883   5.653   3.168
 2875WAT  MW   11500   1.835   5.708   3.215
 2876WAT  OW   11501   4.785   5.631   2.393
 2876WAT  HW1  11502   4.720   5.615   2.325
 2876WAT  HW2  11503   4.742   5.690   2.454
 2876WAT  MW   11504   4.771   5.637   2.392
 2877WAT  OW   11505   4.308   4.200   4.111
 2877WAT  HW1  11506   4.322   4.175   4.202
 2877WAT  HW2  11507   4.294   4.117   4.065
 2877WAT  MW   11508   4.308   4.186   4.117
 2878WAT  OW   11509   1.378   5.205   1.123
 2878WAT  HW1  11510   1.379   5.292   1.162
 2878WAT  HW2  11511   1.470   5.181   1.114
 2878WAT  MW   11512   1.390   5.213   1.127
 2879WAT  OW   11513   3.162   6.006   0.171
 2879WAT  HW1  11514   3.120   6.079   0.216
 2879WAT  HW2  11515   3.113   5.929   0.200
 2879WAT  MW   11516   3.150   6.006   0.181
 2880WAT  OW   11517   2.518   5.090   2.666
 2880WAT  HW1  11518   2.500   5.116   2.575
 2880WAT  HW2  11519   2.462   5.148   2.718
 2880WAT  MW   11520   2.508   5.101   2.661
 2881WAT  OW   11521   4.690   3.065   0.962
 2881WAT  HW1  11522   4.778   3.060   0.924
 2881WAT  HW2  11523   4.704   3.063   1.056
 2881WAT  MW   11524   4.703   3.064   0.969
 2882WAT  OW   11525   3.835   2.581   3.668
 2882WAT  HW1  11526   3.776   2.656   3.663
 2882WAT  HW2  11527   3.899   2.595   3.598
 2882WAT  MW   11528   3.836   2.592   3.658
 2883WAT  OW   11529   3.350   0.203   2.199
 2883WAT  HW1  11530   3.367   0.193   2.292
 2883WAT  HW2  11531   3.260   0.174   2.187
 2883WAT  MW   11532   3.340   0.198   2.210
 2884WAT  OW   11533   2.683   3.924   2.818
 2884WAT  HW1  11534   2.734   3.844   2.804
 2884WAT  HW2  11535   2.736   3.978   2.876
 2884WAT  MW   11536   2.696   3.921   2.824
 2885WAT  OW   11537   1.453   3.042   4.478
 2885WAT  HW1  11538   1.537   3.057   4.435
 2885WAT  HW2  11539   1.448   3.110   4.545
 2885WAT  MW   11540   1.464   3.053   4.481
 2886WAT  OW   11541   3.289   6.009   4.880
 2886WAT  HW1  11542   3.310   5.918   4.860
 2886WAT  HW2  11543   3.213   6.005   4.937
 2886WAT  MW   11544   3.282   5.997   4.885
 2887WAT  OW   11545   0.212   6.405   3.899
 2887WAT  HW1  11546   0.262   6.421   3.979
 2887WAT  HW2  11547   0.264   6.339   3.851
 2887WAT  MW   11548   0.225   6.398   3.903
 2888WAT  OW   11549   3.204   3.024   2.740
 2888WAT  HW1  11550   3.121   2.989   2.772
 2888WAT  HW2  11551   3.234   2.961   2.675
 2888WAT  MW   11552   3.197   3.011   2.736
 2889WAT  OW   11553   1.205   1.624   4.583
 2889WAT  HW1  11554   1.168   1.676   4.654
 2889WAT  HW2  11555   1.262   1.561   4.626
 2889WAT  MW   11556   1.208   1.623   4.598
 2890WAT  OW   11557   4.427   3.288   2.632
 2890WAT  HW1  11558   4.350   3.317   2.584
 2890WAT  HW2  11559   4.394   3.218   2.690
 2890WAT  MW   11560   4.412   3.282   2.634
 2891WAT  OW   11561   5.114   3.294   3.162
 2891WAT  HW1  11562   5.056   3.252   3.099
 2891WAT  HW2  11563   5.177   3.225   3.186
 2891WAT  MW   11564   5.115   3.279   3.157
 2892WAT  OW   11565   2.005   3.174   3.878
 2892WAT  HW1  11566   2.001   3.268   3.897
 2892WAT  HW2  11567   1.923   3.139   3.915
 2892WAT  MW   11568   1.993   3.182   3.885
 2893WAT  OW   11569   0.717   1.953   3.219
 2893WAT  HW1  11570   0.653   1.997   3.163
 2893WAT  HW2  11571   0.796   1.946   3.166
 2893WAT  MW   11572   0.719   1.958   3.205
 2894WAT  OW   11573   2.841   4.351   2.372
 2894WAT  HW1  11574   2.924   4.304   2.382
 2894WAT  HW2  11575   2.776   4.290   2.406
 2894WAT  MW   11576   2.844   4.337   2.378
 2895WAT  OW   11577   6.101   4.519   5.450
 2895WAT  HW1  11578   6.190   4.553   5.449
 2895WAT  HW2  11579   6.048   4.588   5.412
 2895WAT  MW   11580   6.106   4.532   5.445
 2896WAT  OW   11581   0.656   6.141   1.961
 2896WAT  HW1  11582   0.588   6.131   2.028
 2896WAT  HW2  11583   0.716   6.068   1.976
 2896WAT  MW   11584   0.655   6.130   1.972
 2897WAT  OW   11585   0.889   1.979   2.415
 2897WAT  HW1  11586   0.882   2.016   2.503
 2897WAT  HW2  11587   0.936   2.045   2.365
 2897WAT  MW   11588   0.894   1.992   2.420
 2898WAT  OW   11589   3.383   3.816   3.266
 2898WAT  HW1  11590   3.452   3.795   3.330
 2898WAT  HW2  11591   3.405   3.905   3.237
 2898WAT  MW   11592   3.395   3.825   3.270
 2899WAT  OW   11593   0.512   6.449   2.765
 2899WAT  HW1  11594   0.483   6.408   2.847
 2899WAT  HW2  11595   0.432   6.480   2.724
 2899WAT  MW   11596   0.497   6.447   2.771
 2900WAT  OW   11597   6.007   1.517   1.479
 2900WAT  HW1  11598   6.086   1.570   1.489
 2900WAT  HW2  11599   5.935   1.580   1.478
 2900WAT  MW   11600   6.008   1.532   1.480
 2901WAT  OW   11601   5.377   2.521   1.503
 2901WAT  HW1  11602   5.433   2.558   1.435
 2901WAT  HW2  11603   5.428   2.531   1.583
 2901WAT  MW   11604   5.391   2.527   1.505
 2902WAT  OW   11605   4.213   1.202   0.316
 2902WAT  HW1  11606   4.129   1.167   0.289
 2902WAT  HW2  11607   4.211   1.198   0.412
 2902WAT  MW   11608   4.202   1.197   0.325
 2903WAT  OW   11609   5.074   6.504   6.526
 2903WAT  HW1  11610   5.050   6.498   6.434
 2903WAT  HW2  11611   5.031   6.584   6.557
 2903WAT  MW   11612   5.066   6.514   6.518
 2904WAT  OW   11613   3.518   1.025   3.318
 2904WAT  HW1  11614   3.514   1.019   3.413
 2904WAT  HW2  11615   3.594   0.972   3.293
 2904WAT  MW   11616   3.528   1.017   3.327
 2905WAT  OW   11617   3.414   2.034   3.312
 2905WAT  HW1  11618   3.440   2.126   3.304
 2905WAT  HW2  11619   3.376   2.012   3.227
 2905WAT  MW   11620   3.412   2.043   3.300
 2906WAT  OW   11621   5.783   5.454   4.110
 2906WAT  HW1  11622   5.875   5.428   4.124
 2906WAT  HW2  11623   5.780   5.546   4.134
 2906WAT  MW   11624   5.795   5.462   4.115
 2907WAT  OW   11625   4.072   1.112   3.115
 2907WAT  HW1  11626   4.098   1.204   3.118
 2907WAT  HW2  11627   4.130   1.068   3.177
 2907WAT  MW   11628   4.083   1.118   3.124
 2908WAT  OW   11629   6.351   6.318   5.516
 2908WAT  HW1  11630   6.260   6.296   5.539
 2908WAT  HW2  11631   6.347   6.342   5.424
 2908WAT  MW   11632   6.338   6.318   5.507
 2909WAT  OW   11633   1.155   1.568   5.474
 2909WAT  HW1  11634   1.067   1.557   5.438
 2909WAT  HW2  11635   1.213   1.565   5.397
 2909WAT  MW   11636   1.151   1.566   5.459
 2910WAT  OW   11637   2.182   5.000   3.113
 2910WAT  HW1  11638   2.088   5.021   3.112
 2910WAT  HW2  11639   2.186   4.911   3.147
 2910WAT  MW   11640   2.170   4.991   3.117
 2911WAT  OW   11641   3.790   4.884   6.550
 2911WAT  HW1  11642   3.717   4.889   6.612
 2911WAT  HW2  11643   3.754   4.919   6.468
 2911WAT  MW   11644   3.776   4.890   6.547
 2912WAT  OW   11645   3.650   1.523   4.635
 2912WAT  HW1  11646   3.614   1.487   4.716
 2912WAT  HW2  11647   3.744   1.509   4.643
 2912WAT  MW   11648   3.658   1.517   4.647
 2913WAT  OW   11649   0.350   2.221   4.073
 2913WAT  HW1  11650   0.368   2.223   4.167
 2913WAT  HW2  11651   0.264   2.181   4.066
 2913WAT  MW   11652   0.341   2.216   4.084
 2914WAT  OW   11653   4.104   5.590   4.704
 2914WAT  HW1  11654   4.116   5.573   4.611
 2914WAT  HW2  11655   4.112   5.504   4.746
 2914WAT  MW   11656   4.107   5.577   4.698
 2915WAT  OW   11657   5.064   4.824   3.865
 2915WAT  HW1  11658   5.002   4.760   3.831
 2915WAT  HW2  11659   5.150   4.792   3.836
 2915WAT  MW   11660   5.068   4.811   3.857
 2916WAT  OW   11661   1.563   1.286   2.079
 2916WAT  HW1  11662   1.477   1.288   2.037
 2916WAT  HW2  11663   1.552   1.339   2.159
 2916WAT  MW   11664   1.551   1.294   2.084
 2917WAT  OW   11665   3.999   1.622   4.009
 2917WAT  HW1  11666   3.974   1.714   4.015
 2917WAT  HW2  11667   4.046   1.616   3.926
 2917WAT  MW   11668   4.002   1.633   3.998
 2918WAT  OW   11669   0.789   2.943   3.655
 2918WAT  HW1  11670   0.844   2.911   3.583
 2918WAT  HW2  11671   0.716   2.882   3.658
 2918WAT  MW   11672   0.787   2.931   3.646
 2919WAT  OW   11673   1.997   2.252   1.076
 2919WAT  HW1  11674   1.987   2.254   0.981
 2919WAT  HW2  11675   2.017   2.342   1.100
 2919WAT  MW   11676   1.998   2.264   1.067
 2920WAT  OW   11677   6.373   4.183   5.417
 2920WAT  HW1  11678   6.438   4.247   5.444
 2920WAT  HW2  11679   6.318   4.229   5.354
 2920WAT  MW   11680   6.375   4.197   5.412
 2921WAT  OW   11681   5.498   1.994   4.779
 2921WAT  HW1  11682   5.415   1.951   4.799
 2921WAT  HW2  11683   5.520   2.043   4.858
 2921WAT  MW   11684   5.490   1.995   4.792
 2922WAT  OW   11685   1.202   2.730   6.480
 2922WAT  HW1  11686   1.239   2.656   6.529
 2922WAT  HW2  11687   1.154   2.781   6.545
 2922WAT  MW   11688   1.200   2.727   6.495
 2923WAT  OW   11689   5.877   2.987   4.215
 2923WAT  HW1  11690   5.896   2.981   4.121
 2923WAT  HW2  11691   5.806   2.925   4.229
 2923WAT  MW   11692   5.870   2.978   4.204
 2924WAT  OW   11693   5.860   1.160   2.088
 2924WAT  HW1  11694   5.908   1.233   2.050
 2924WAT  HW2  11695   5.774   1.162   2.045
 2924WAT  MW   11696   5.855   1.170   2.077
 2925WAT  OW   11697   4.001   5.096   6.514
 2925WAT  HW1  11698   4.063   5.043   6.463
 2925WAT  HW2  11699   3.926   5.038   6.528
 2925WAT  MW   11700   4.000   5.081   6.509
 2926WAT  OW   11701   2.181   5.077   5.942
 2926WAT  HW1  11702   2.238   5.150   5.917
 2926WAT  HW2  11703   2.148   5.043   5.859
 2926WAT  MW   11704   2.184   5.082   5.928
 2927WAT  OW   11705   2.028   4.582   1.833
 2927WAT  HW1  11706   2.098   4.627   1.787
 2927WAT  HW2  11707   2.067   4.500   1.864
 2927WAT  MW   11708   2.042   4.577   1.831
 2928WAT  OW   11709   0.278   0.181   3.517
 2928WAT  HW1  11710   0.236   0.109   3.470
 2928WAT  HW2  11711   0.360   0.196   3.470
 2928WAT  MW   11712   0.283   0.174   3.504
 2929WAT  OW   11713   6.014   3.126   4.768
 2929WAT  HW1  11714   5.973   3.084   4.692
 2929WAT  HW2  11715   5.967   3.208   4.779
 2929WAT  MW   11716   6.002   3.131   4.759
 2930WAT  OW   11717   1.370   3.136   2.898
 2930WAT  HW1  11718   1.404   3.137   2.987
 2930WAT  HW2  11719   1.278   3.111   2.908
 2930WAT  MW   11720   1.363   3.133   2.911
 2931WAT  OW   11721   0.699   2.411   6.341
 2931WAT  HW1  11722   0.629   2.423   6.405
 2931WAT  HW2  11723   0.777   2.395   6.394
 2931WAT  MW   11724   0.700   2.410   6.357
 2932WAT  OW   11725   4.668   3.704   1.944
 2932WAT  HW1  11726   4.599   3.710   1.877
 2932WAT  HW2  11727   4.659   3.784   1.996
 2932WAT  MW   11728   4.658   3.716   1.942
 2933WAT  OW   11729   1.283   5.264   3.638
 2933WAT  HW1  11730   1.220   5.295   3.704
 2933WAT  HW2  11731   1.318   5.183   3.675
 2933WAT  MW   11732   1.279   5.257   3.652
 2934WAT  OW   11733   2.634   6.631   4.150
 2934WAT  HW1  11734   2.685   6.584   4.216
 2934WAT  HW2  11735   2.678   6.716   4.143
 2934WAT  MW   11736   2.647   6.636   4.158
 2935WAT  OW   11737   0.735   0.870   1.668
 2935WAT  HW1  11738   0.819   0.896   1.632
 2935WAT  HW2  11739   0.721   0.780   1.636
 2935WAT  MW   11740   0.744   0.862   1.659
 2936WAT  OW   11741   5.050   5.182   3.185
 2936WAT  HW1  11742   4.964   5.191   3.144
 2936WAT  HW2  11743   5.034   5.199   3.278
 2936WAT  MW   11744   5.036   5.186   3.192
 2937WAT  OW   11745   2.916   4.537   3.041
 2937WAT  HW1  11746   2.998   4.493   3.017
 2937WAT  HW2  11747   2.894   4.589   2.963
 2937WAT  MW   11748   2.924   4.538   3.027
 2938WAT  OW   11749   1.505   2.148   4.023
 2938WAT  HW1  11750   1.411   2.152   4.040
 2938WAT  HW2  11751   1.515   2.083   3.954
 2938WAT  MW   11752   1.494   2.140   4.016
 2939WAT  OW   11753   4.068   0.707   0.998
 2939WAT  HW1  11754   4.149   0.758   1.005
 2939WAT  HW2  11755   4.014   0.739   1.070
 2939WAT  MW   11756   4.072   0.718   1.008
 2940WAT  OW   11757   0.955   2.586   4.028
 2940WAT  HW1  11758   0.930   2.648   3.959
 2940WAT  HW2  11759   0.897   2.605   4.101
 2940WAT  MW   11760   0.944   2.596   4.028
 2941WAT  OW   11761   5.192   3.557   2.227
 2941WAT  HW1  11762   5.149   3.602   2.300
 2941WAT  HW2  11763   5.274   3.525   2.264
 2941WAT  MW   11764   5.197   3.559   2.242
 2942WAT  OW   11765   2.903   1.255   1.562
 2942WAT  HW1  11766   2.915   1.256   1.467
 2942WAT  HW2  11767   2.926   1.165   1.587
 2942WAT  MW   11768   2.908   1.243   1.552
 2943WAT  OW   11769   2.265   3.641   3.202
 2943WAT  HW1  11770   2.344   3.610   3.158
 2943WAT  HW2  11771   2.295   3.671   3.288
 2943WAT  MW   11772   2.279   3.641   3.208
 2944WAT  OW   11773   4.956   0.779   1.003
 2944WAT  HW1  11774   4.931   0.792   0.912
 2944WAT  HW2  11775   4.874   0.771   1.050
 2944WAT  MW   11776   4.942   0.780   0.997
 2945WAT  OW   11777   2.405   0.781   1.235
 2945WAT  HW1  11778   2.379   0.805   1.324
 2945WAT  HW2  11779   2.484   0.832   1.218
 2945WAT  MW   11780   2.412   0.791   1.244
 2946WAT  OW   11781   5.666   1.941   5.594
 2946WAT  HW1  11782   5.604   1.990   5.540
 2946WAT  HW2  11783   5.612   1.897   5.659
 2946WAT  MW   11784   5.651   1.941   5.595
 2947WAT  OW   11785   2.881   4.697   1.180
 2947WAT  HW1  11786   2.957   4.752   1.199
 2947WAT  HW2  11787   2.819   4.755   1.136
 2947WAT  MW   11788   2.883   4.712   1.177
 2948WAT  OW   11789   4.989   0.329   2.713
 2948WAT  HW1  11790   5.050   0.371   2.653
 2948WAT  HW2  11791   5.025   0.241   2.726
 2948WAT  MW   11792   5.002   0.323   2.707
 2949WAT  OW   11793   1.555   0.729   6.595
 2949WAT  HW1  11794   1.549   0.637   6.569
 2949WAT  HW2  11795   1.545   0.728   6.690
 2949WAT  MW   11796   1.553   0.717   6.604
 2950WAT  OW   11797   5.754   0.791   4.930
 2950WAT  HW1  11798   5.715   0.727   4.990
 2950WAT  HW2  11799   5.684   0.811   4.868
 2950WAT  MW   11800   5.739   0.785   4.930
 2951WAT  OW   11801   5.864   4.159   2.935
 2951WAT  HW1  11802   5.880   4.077   2.889
 2951WAT  HW2  11803   5.846   4.223   2.866
 2951WAT  MW   11804   5.864   4.157   2.920
 2952WAT  OW   11805   1.758   3.071   2.649
 2952WAT  HW1  11806   1.693   3.010   2.684
 2952WAT  HW2  11807   1.801   3.108   2.726
 2952WAT  MW   11808   1.755   3.068   2.663
 2953WAT  OW   11809   6.163   4.627   5.067
 2953WAT  HW1  11810   6.118   4.666   5.142
 2953WAT  HW2  11811   6.139   4.535   5.070
 2953WAT  MW   11812   6.154   4.620   5.077
 2954WAT  OW   11813   4.858   0.705   5.006
 2954WAT  HW1  11814   4.864   0.781   4.948
 2954WAT  HW2  11815   4.888   0.738   5.091
 2954WAT  MW   11816   4.863   0.720   5.010
 2955WAT  OW   11817   6.427   3.518   4.258
 2955WAT  HW1  11818   6.426   3.595   4.315
 2955WAT  HW2  11819   6.356   3.462   4.291
 2955WAT  MW   11820   6.417   3.521   4.270
 2956WAT  OW   11821   5.436   0.171   0.973
 2956WAT  HW1  11822   5.393   0.248   1.009
 2956WAT  HW2  11823   5.516   0.161   1.025
 2956WAT  MW   11824   5.441   0.180   0.985
 2957WAT  OW   11825   5.933   2.773   6.129
 2957WAT  HW1  11826   5.966   2.861   6.112
 2957WAT  HW2  11827   5.871   2.784   6.201
 2957WAT  MW   11828   5.929   2.786   6.136
 2958WAT  OW   11829   0.349   5.537   5.346
 2958WAT  HW1  11830   0.354   5.444   5.322
 2958WAT  HW2  11831   0.410   5.580   5.286
 2958WAT  MW   11832   0.358   5.530   5.335
 2959WAT  OW   11833   0.810   4.627   2.057
 2959WAT  HW1  11834   0.830   4.539   2.090
 2959WAT  HW2  11835   0.864   4.636   1.979
 2959WAT  MW   11836   0.820   4.616   2.051
 2960WAT  OW   11837   6.115   5.621   1.722
 2960WAT  HW1  11838   6.033   5.664   1.699
 2960WAT  HW2  11839   6.183   5.675   1.681
 2960WAT  MW   11840   6.113   5.634   1.714
 2961WAT  OW   11841   0.096   6.687   3.443
 2961WAT  HW1  11842   0.073   6.629   3.370
 2961WAT  HW2  11843   0.041   6.658   3.515
 2961WAT  MW   11844   0.086   6.675   3.443
 2962WAT  OW   11845   5.919   5.220   6.209
 2962WAT  HW1  11846   5.863   5.297   6.211
 2962WAT  HW2  11847   5.871   5.155   6.158
 2962WAT  MW   11848   5.905   5.221   6.203
 2963WAT  OW   11849   3.655   1.066   0.029
 2963WAT  HW1  11850   3.581   1.112  -0.011
 2963WAT  HW2  11851   3.617   0.987   0.067
 2963WAT  MW   11852   3.640   1.062   0.029
 2964WAT  OW   11853   4.012   2.108   1.710
 2964WAT  HW1  11854   3.983   2.198   1.695
 2964WAT  HW2  11855   3.949   2.054   1.664
 2964WAT  MW   11856   4.000   2.113   1.702
 2965WAT  OW   11857   3.077   3.631   0.098
 2965WAT  HW1  11858   3.056   3.538   0.099
 2965WAT  HW2  11859   3.009   3.671   0.152
 2965WAT  MW   11860   3.065   3.624   0.105
 2966WAT  OW   11861   1.633   0.721   5.445
 2966WAT  HW1  11862   1.611   0.757   5.359
 2966WAT  HW2  11863   1.600   0.786   5.507
 2966WAT  MW   11864   1.626   0.734   5.442
 2967WAT  OW   11865   6.523   0.736   0.898
 2967WAT  HW1  11866   6.514   0.663   0.959
 2967WAT  HW2  11867   6.618   0.750   0.891
 2967WAT  MW   11868   6.534   0.728   0.905
 2968WAT  OW   11869   2.581   3.382   2.864
 2968WAT  HW1  11870   2.636   3.329   2.921
 2968WAT  HW2  11871   2.623   3.378   2.779
 2968WAT  MW   11872   2.594   3.375   2.861
 2969WAT  OW   11873   3.880   3.963   4.150
 2969WAT  HW1  11874   3.855   3.871   4.161
 2969WAT  HW2  11875   3.797   4.011   4.158
 2969WAT  MW   11876   3.865   3.957   4.153
 2970WAT  OW   11877   1.199   2.215   4.770
 2970WAT  HW1  11878   1.211   2.244   4.679
 2970WAT  HW2  11879   1.276   2.247   4.816
 2970WAT  MW   11880   1.210   2.223   4.764
 2971WAT  OW   11881   5.203   5.078   3.649
 2971WAT  HW1  11882   5.137   5.083   3.579
 2971WAT  HW2  11883   5.155   5.045   3.725
 2971WAT  MW   11884   5.188   5.074   3.650
 2972WAT  OW   11885   3.892   3.671   4.657
 2972WAT  HW1  11886   3.935   3.597   4.701
 2972WAT  HW2  11887   3.801   3.643   4.647
 2972WAT  MW   11888   3.886   3.657   4.661
 2973WAT  OW   11889   0.254   6.129   1.701
 2973WAT  HW1  11890   0.340   6.151   1.737
 2973WAT  HW2  11891   0.215   6.071   1.766
 2973WAT  MW   11892   0.260   6.124   1.714
 2974WAT  OW   11893   5.322   6.665   0.055
 2974WAT  HW1  11894   5.340   6.596   0.119
 2974WAT  HW2  11895   5.409   6.694   0.027
 2974WAT  MW   11896   5.336   6.659   0.060
 2975WAT  OW   11897   3.822   0.354   3.328
 2975WAT  HW1  11898   3.889   0.422   3.331
 2975WAT  HW2  11899   3.783   0.355   3.416
 2975WAT  MW   11900   3.826   0.363   3.340
 2976WAT  OW   11901   0.453   5.177   5.676
 2976WAT  HW1  11902   0.467   5.271   5.688
 2976WAT  HW2  11903   0.529   5.147   5.627
 2976WAT  MW   11904   0.465   5.185   5.671
 2977WAT  OW   11905   3.811   5.098   4.705
 2977WAT  HW1  11906   3.812   5.193   4.701
 2977WAT  HW2  11907   3.877   5.076   4.771
 2977WAT  MW   11908   3.820   5.107   4.713
 2978WAT  OW   11909   3.843   5.811   0.912
 2978WAT  HW1  11910   3.932   5.843   0.901
 2978WAT  HW2  11911   3.813   5.852   0.993
 2978WAT  MW   11912   3.851   5.821   0.921
 2979WAT  OW   11913   5.505   0.439   4.077
 2979WAT  HW1  11914   5.520   0.506   4.143
 2979WAT  HW2  11915   5.569   0.370   4.096
 2979WAT  MW   11916   5.516   0.439   4.088
 2980WAT  OW   11917   3.237   5.692   1.202
 2980WAT  HW1  11918   3.292   5.762   1.170
 2980WAT  HW2  11919   3.280   5.661   1.281
 2980WAT  MW   11920   3.250   5.697   1.208
 2981WAT  OW   11921   0.015   0.431   3.974
 2981WAT  HW1  11922   0.076   0.443   3.901
 2981WAT  HW2  11923   0.068   0.445   4.052
 2981WAT  MW   11924   0.030   0.435   3.974
 2982WAT  OW   11925   1.039   4.428   0.927
 2982WAT  HW1  11926   1.023   4.346   0.882
 2982WAT  HW2  11927   1.034   4.495   0.859
 2982WAT  MW   11928   1.036   4.426   0.912
 2983WAT  OW   11929   6.469   4.583   3.682
 2983WAT  HW1  11930   6.561   4.588   3.710
 2983WAT  HW2  11931   6.446   4.674   3.663
 2983WAT  MW   11932   6.478   4.596   3.683
 2984WAT  OW   11933   4.280   3.999   1.345
 2984WAT  HW1  11934   4.198   3.980   1.390
 2984WAT  HW2  11935   4.267   3.963   1.257
 2984WAT  MW   11936   4.267   3.992   1.339
 2985WAT  OW   11937   0.353   5.465   6.644
 2985WAT  HW1  11938   0.270   5.508   6.667
 2985WAT  HW2  11939   0.334   5.423   6.559
 2985WAT  MW   11940   0.339   5.465   6.636
 2986WAT  OW   11941   6.262   0.016   3.879
 2986WAT  HW1  11942   6.311   0.051   3.953
 2986WAT  HW2  11943   6.301  -0.070   3.862
 2986WAT  MW   11944   6.273   0.009   3.886
 2987WAT  OW   11945   5.372   2.724   4.293
 2987WAT  HW1  11946   5.319   2.790   4.338
 2987WAT  HW2  11947   5.457   2.765   4.280
 2987WAT  MW   11948   5.376   2.738   4.297
 2988WAT  OW   11949   5.941   1.398   0.444
 2988WAT  HW1  11950   5.975   1.487   0.437
 2988WAT  HW2  11951   6.017   1.342   0.427
 2988WAT  MW   11952   5.956   1.403   0.441
 2989WAT  OW   11953   0.894   2.052   2.673
 2989WAT  HW1  11954   0.953   2.103   2.729
 2989WAT  HW2  11955   0.926   1.962   2.682
 2989WAT  MW   11956   0.906   2.047   2.682
 2990WAT  OW   11957   2.683   0.991   5.339
 2990WAT  HW1  11958   2.711   0.937   5.413
 2990WAT  HW2  11959   2.660   0.929   5.270
 2990WAT  MW   11960   2.684   0.976   5.340
 2991WAT  OW   11961   3.124   0.920   5.832
 2991WAT  HW1  11962   3.133   0.989   5.897
 2991WAT  HW2  11963   3.060   0.953   5.769
 2991WAT  MW   11964   3.117   0.933   5.832
 2992WAT  OW   11965   4.168   5.122   0.213
 2992WAT  HW1  11966   4.159   5.195   0.273
 2992WAT  HW2  11967   4.224   5.059   0.259
 2992WAT  MW   11968   4.174   5.123   0.227
 2993WAT  OW   11969   3.668   4.226   0.734
 2993WAT  HW1  11970   3.616   4.305   0.718
 2993WAT  HW2  11971   3.628   4.186   0.811
 2993WAT  MW   11972   3.656   4.231   0.742
 2994WAT  OW   11973   1.445   2.161   3.128
 2994WAT  HW1  11974   1.493   2.161   3.211
 2994WAT  HW2  11975   1.476   2.240   3.083
 2994WAT  MW   11976   1.456   2.171   3.133
 2995WAT  OW   11977   6.066   2.487   2.383
 2995WAT  HW1  11978   6.041   2.394   2.387
 2995WAT  HW2  11979   6.004   2.526   2.321
 2995WAT  MW   11980   6.055   2.480   2.375
 2996WAT  OW   11981   6.362   3.613   3.532
 2996WAT  HW1  11982   6.438   3.631   3.476
 2996WAT  HW2  11983   6.333   3.526   3.507
 2996WAT  MW   11984   6.368   3.604   3.521
 2997WAT  OW   11985   3.760   0.873   3.314
 2997WAT  HW1  11986   3.822   0.888   3.385
 2997WAT  HW2  11987   3.708   0.798   3.344
 2997WAT  MW   11988   3.761   0.865   3.327
 2998WAT  OW   11989   1.075   2.875   6.661
 2998WAT  HW1  11990   1.133   2.951   6.657
 2998WAT  HW2  11991   1.097   2.832   6.743
 2998WAT  MW   11992   1.085   2.880   6.671
 2999WAT  OW   11993   5.485   5.020   4.830
 2999WAT  HW1  11994   5.448   5.095   4.784
 2999WAT  HW2  11995   5.555   4.989   4.773
 2999WAT  MW   11996   5.489   5.026   4.816
 3000WAT  OW   11997   4.327   3.859   1.597
 3000WAT  HW1  11998   4.406   3.820   1.634
 3000WAT  HW2  11999   4.351   3.883   1.508
 3000WAT  MW   12000   4.340   3.857   1.590
 3001WAT  OW   12001   1.221   5.668   2.579
 3001WAT  HW1  12002   1.278   5.634   2.647
 3001WAT  HW2  12003   1.273   5.666   2.499
 3001WAT  MW   12004   1.235   5.664   2.577
 3002WAT  OW   12005   4.666   5.809   5.922
 3002WAT  HW1  12006   4.674   5.805   5.827
 3002WAT  HW2  12007   4.610   5.885   5.938
 3002WAT  MW   12008   4.660   5.819   5.912
 3003WAT  OW   12009   2.045   5.515   3.486
 3003WAT  HW1  12010   1.973   5.466   3.525
 3003WAT  HW2  12011   2.122   5.460   3.501
 3003WAT  MW   12012   2.046   5.501   3.493
 3004WAT  OW   12013   5.303   4.930   1.043
 3004WAT  HW1  12014   5.286   4.976   0.961
 3004WAT  HW2  12015   5.244   4.971   1.107
 3004WAT  MW   12016   5.293   4.942   1.041
 3005WAT  OW   12017   1.937   5.280   6.166
 3005WAT  HW1  12018   1.924   5.198   6.120
 3005WAT  HW2  12019   2.022   5.270   6.209
 3005WAT  MW   12020   1.946   5.268   6.166
 3006WAT  OW   12021   1.179   3.300   1.203
 3006WAT  HW1  12022   1.108   3.265   1.257
 3006WAT  HW2  12023   1.247   3.325   1.265
 3006WAT  MW   12024   1.179   3.298   1.218
 3007WAT  OW   12025   2.798   0.511   3.534
 3007WAT  HW1  12026   2.752   0.469   3.607
 3007WAT  HW2  12027   2.802   0.444   3.466
 3007WAT  MW   12028   2.792   0.497   3.535
 3008WAT  OW   12029   0.690   2.274   6.123
 3008WAT  HW1  12030   0.679   2.312   6.210
 3008WAT  HW2  12031   0.779   2.300   6.097
 3008WAT  MW   12032   0.700   2.283   6.131
 3009WAT  OW   12033   0.236   6.150   2.137
 3009WAT  HW1  12034   0.202   6.123   2.222
 3009WAT  HW2  12035   0.329   6.127   2.140
 3009WAT  MW   12036   0.244   6.143   2.149
 3010WAT  OW   12037   6.508   3.475   1.773
 3010WAT  HW1  12038   6.497   3.402   1.834
 3010WAT  HW2  12039   6.479   3.440   1.689
 3010WAT  MW   12040   6.503   3.461   1.770
 3011WAT  OW   12041   0.369   1.761   6.356
 3011WAT  HW1  12042   0.433   1.778   6.425
 3011WAT  HW2  12043   0.367   1.842   6.305
 3011WAT  MW   12044   0.377   1.774   6.359
 3012WAT  OW   12045   6.135   1.867   0.999
 3012WAT  HW1  12046   6.186   1.948   0.991
 3012WAT  HW2  12047   6.150   1.838   1.089
 3012WAT  MW   12048   6.144   1.874   1.009
 3013WAT  OW   12049   3.489   3.079   3.729
 3013WAT  HW1  12050   3.534   3.094   3.646
 3013WAT  HW2  12051   3.397   3.094   3.709
 3013WAT  MW   12052   3.483   3.083   3.715
 3014WAT  OW   12053   2.852   2.853   5.128
 3014WAT  HW1  12054   2.923   2.886   5.073
 3014WAT  HW2  12055   2.859   2.758   5.122
 3014WAT  MW   12056   2.862   2.845   5.120
 3015WAT  OW   12057   4.360   5.927   4.554
 3015WAT  HW1  12058   4.449   5.949   4.529
 3015WAT  HW2  12059   4.306   5.993   4.510
 3015WAT  MW   12060   4.364   5.939   4.545
 3016WAT  OW   12061   5.233   6.625   3.965
 3016WAT  HW1  12062   5.203   6.706   3.923
 3016WAT  HW2  12063   5.185   6.623   4.048
 3016WAT  MW   12064   5.223   6.636   3.970
 3017WAT  OW   12065   0.625   4.322   4.588
 3017WAT  HW1  12066   0.582   4.354   4.509
 3017WAT  HW2  12067   0.718   4.318   4.565
 3017WAT  MW   12068   0.632   4.326   4.574
 3018WAT  OW   12069   6.032   2.210   2.400
 3018WAT  HW1  12070   6.114   2.176   2.363
 3018WAT  HW2  12071   5.965   2.147   2.374
 3018WAT  MW   12072   6.034   2.198   2.392
 3019WAT  OW   12073   0.977   4.911   4.797
 3019WAT  HW1  12074   1.048   4.972   4.776
 3019WAT  HW2  12075   1.002   4.829   4.753
 3019WAT  MW   12076   0.989   4.908   4.788
 3020WAT  OW   12077   2.373   2.693   2.576
 3020WAT  HW1  12078   2.419   2.759   2.627
 3020WAT  HW2  12079   2.281   2.721   2.577
 3020WAT  MW   12080   2.367   2.705   2.583
 3021WAT  OW   12081   3.079   1.850   4.271
 3021WAT  HW1  12082   3.004   1.855   4.212
 3021WAT  HW2  12083   3.091   1.756   4.286
 3021WAT  MW   12084   3.071   1.838   4.265
 3022WAT  OW   12085   6.625   0.071   6.054
 3022WAT  HW1  12086   6.718   0.051   6.048
 3022WAT  HW2  12087   6.621   0.154   6.102
 3022WAT  MW   12088   6.636   0.079   6.060
 3023WAT  OW   12089   3.498   1.411   0.586
 3023WAT  HW1  12090   3.431   1.479   0.589
 3023WAT  HW2  12091   3.577   1.455   0.555
 3023WAT  MW   12092   3.500   1.425   0.582
 3024WAT  OW   12093   3.859   1.250   1.918
 3024WAT  HW1  12094   3.767   1.267   1.901
 3024WAT  HW2  12095   3.879   1.172   1.865
 3024WAT  MW   12096   3.850   1.242   1.909
 3025WAT  OW   12097   2.867   1.316   3.554
 3025WAT  HW1  12098   2.929   1.335   3.625
 3025WAT  HW2  12099   2.877   1.389   3.493
 3025WAT  MW   12100   2.876   1.328   3.556
 3026WAT  OW   12101   3.220   6.126   1.339
 3026WAT  HW1  12102   3.309   6.094   1.358
 3026WAT  HW2  12103   3.163   6.064   1.383
 3026WAT  MW   12104   3.224   6.113   1.347
 3027WAT  OW   12105   4.471   2.897   3.142
 3027WAT  HW1  12106   4.520   2.979   3.153
 3027WAT  HW2  12107   4.439   2.876   3.229
 3027WAT  MW   12108   4.473   2.905   3.155
 3028WAT  OW   12109   1.986   0.436   1.817
 3028WAT  HW1  12110   1.895   0.464   1.831
 3028WAT  HW2  12111   2.037   0.516   1.823
 3028WAT  MW   12112   1.980   0.450   1.819
 3029WAT  OW   12113   0.438   6.002   0.809
 3029WAT  HW1  12114   0.420   6.047   0.726
 3029WAT  HW2  12115   0.496   5.930   0.785
 3029WAT  MW   12116   0.443   5.999   0.795
 3030WAT  OW   12117   4.579   5.095   4.625
 3030WAT  HW1  12118   4.547   5.078   4.537
 3030WAT  HW2  12119   4.667   5.129   4.612
 3030WAT  MW   12120   4.586   5.097   4.612
 3031WAT  OW   12121   2.208   3.625   4.113
 3031WAT  HW1  12122   2.152   3.693   4.150
 3031WAT  HW2  12123   2.151   3.578   4.051
 3031WAT  MW   12124   2.193   3.627   4.109
 3032WAT  OW   12125   5.507   4.193   6.183
 3032WAT  HW1  12126   5.457   4.145   6.249
 3032WAT  HW2  12127   5.504   4.284   6.214
 3032WAT  MW   12128   5.500   4.199   6.196
 3033WAT  OW   12129   1.571   0.582   4.232
 3033WAT  HW1  12130   1.540   0.504   4.278
 3033WAT  HW2  12131   1.579   0.555   4.141
 3033WAT  MW   12132   1.568   0.568   4.226
 3034WAT  OW   12133   0.978   1.049   0.534
 3034WAT  HW1  12134   1.035   1.011   0.600
 3034WAT  HW2  12135   1.036   1.069   0.461
 3034WAT  MW   12136   0.993   1.046   0.533
 3035WAT  OW   12137   2.651   0.124   3.636
 3035WAT  HW1  12138   2.563   0.107   3.669
 3035WAT  HW2  12139   2.666   0.217   3.655
 3035WAT  MW   12140   2.641   0.134   3.643
 3036WAT  OW   12141   0.882   0.333   4.706
 3036WAT  HW1  12142   0.862   0.257   4.762
 3036WAT  HW2  12143   0.869   0.301   4.617
 3036WAT  MW   12144   0.877   0.319   4.702
 3037WAT  OW   12145   4.497   6.383   0.858
 3037WAT  HW1  12146   4.512   6.431   0.776
 3037WAT  HW2  12147   4.472   6.295   0.830
 3037WAT  MW   12148   4.496   6.378   0.843
 3038WAT  OW   12149   2.650   4.365   0.935
 3038WAT  HW1  12150   2.629   4.271   0.937
 3038WAT  HW2  12151   2.745   4.369   0.940
 3038WAT  MW   12152   2.660   4.353   0.936
 3039WAT  OW   12153   6.594   6.609   1.628
 3039WAT  HW1  12154   6.606   6.589   1.721
 3039WAT  HW2  12155   6.648   6.686   1.613
 3039WAT  MW   12156   6.603   6.616   1.638
 3040WAT  OW   12157   4.811   0.188   4.723
 3040WAT  HW1  12158   4.778   0.222   4.640
 3040WAT  HW2  12159   4.870   0.256   4.754
 3040WAT  MW   12160   4.814   0.201   4.716
 3041WAT  OW   12161   4.170   0.600   1.282
 3041WAT  HW1  12162   4.156   0.686   1.321
 3041WAT  HW2  12163   4.119   0.601   1.202
 3041WAT  MW   12164   4.162   0.612   1.277
 3042WAT  OW   12165   0.492   2.818   4.941
 3042WAT  HW1  12166   0.441   2.751   4.896
 3042WAT  HW2  12167   0.426   2.876   4.981
 3042WAT  MW   12168   0.477   2.817   4.941
 3043WAT  OW   12169   6.445   2.767   3.841
 3043WAT  HW1  12170   6.516   2.830   3.855
 3043WAT  HW2  12171   6.487   2.691   3.802
 3043WAT  MW   12172   6.460   2.766   3.838
 3044WAT  OW   12173   1.088   2.563   5.858
 3044WAT  HW1  12174   1.127   2.588   5.942
 3044WAT  HW2  12175   1.114   2.632   5.798
 3044WAT  MW   12176   1.096   2.575   5.861
 3045WAT  OW   12177   5.552   0.638   4.334
 3045WAT  HW1  12178   5.617   0.639   4.404
 3045WAT  HW2  12179   5.482   0.580   4.366
 3045WAT  MW   12180   5.551   0.630   4.347
 3046WAT  OW   12181   3.411   2.992   5.448
 3046WAT  HW1  12182   3.464   2.955   5.519
 3046WAT  HW2  12183   3.347   2.923   5.428
 3046WAT  MW   12184   3.409   2.978   5.455
 3047WAT  OW   12185   0.354   0.289   0.987
 3047WAT  HW1  12186   0.317   0.303   0.900
 3047WAT  HW2  12187   0.296   0.338   1.045
 3047WAT  MW   12188   0.341   0.298   0.983
 3048WAT  OW   12189   0.633   3.003   2.761
 3048WAT  HW1  12190   0.594   3.056   2.691
 3048WAT  HW2  12191   0.559   2.961   2.804
 3048WAT  MW   12192   0.618   3.004   2.757
 3049WAT  OW   12193   3.131   6.389   0.478
 3049WAT  HW1  12194   3.197   6.338   0.430
 3049WAT  HW2  12195   3.159   6.384   0.569
 3049WAT  MW   12196   3.143   6.381   0.484
 3050WAT  OW   12197   0.894   5.093   3.830
 3050WAT  HW1  12198   0.985   5.122   3.833
 3050WAT  HW2  12199   0.886   5.045   3.747
 3050WAT  MW   12200   0.905   5.090   3.820
 3051WAT  OW   12201   2.130   0.243   0.841
 3051WAT  HW1  12202   2.176   0.252   0.757
 3051WAT  HW2  12203   2.037   0.244   0.817
 3051WAT  MW   12204   2.124   0.245   0.827
 3052WAT  OW   12205   5.719   0.968   3.454
 3052WAT  HW1  12206   5.776   0.900   3.490
 3052WAT  HW2  12207   5.774   1.013   3.391
 3052WAT  MW   12208   5.734   0.965   3.451
 3053WAT  OW   12209   5.151   3.488   4.539
 3053WAT  HW1  12210   5.139   3.518   4.629
 3053WAT  HW2  12211   5.063   3.482   4.503
 3053WAT  MW   12212   5.138   3.491   4.546
 3054WAT  OW   12213   5.566   2.419   2.665
 3054WAT  HW1  12214   5.597   2.347   2.720
 3054WAT  HW2  12215   5.615   2.496   2.696
 3054WAT  MW   12216   5.577   2.420   2.676
 3055WAT  OW   12217   4.689   1.660   5.772
 3055WAT  HW1  12218   4.705   1.594   5.705
 3055WAT  HW2  12219   4.730   1.623   5.851
 3055WAT  MW   12220   4.697   1.646   5.774
 3056WAT  OW   12221   5.648   1.585   0.594
 3056WAT  HW1  12222   5.633   1.523   0.522
 3056WAT  HW2  12223   5.731   1.557   0.632
 3056WAT  MW   12224   5.657   1.573   0.589
 3057WAT  OW   12225   0.803   4.066   6.342
 3057WAT  HW1  12226   0.835   4.138   6.288
 3057WAT  HW2  12227   0.857   4.070   6.421
 3057WAT  MW   12228   0.814   4.076   6.345
 3058WAT  OW   12229   4.879   6.650   2.239
 3058WAT  HW1  12230   4.953   6.590   2.256
 3058WAT  HW2  12231   4.847   6.673   2.326
 3058WAT  MW   12232   4.885   6.645   2.253
 3059WAT  OW   12233   2.149   0.329   4.948
 3059WAT  HW1  12234   2.141   0.404   4.889
 3059WAT  HW2  12235   2.108   0.257   4.899
 3059WAT  MW   12236   2.142   0.329   4.934
 3060WAT  OW   12237   0.329   3.757   1.928
 3060WAT  HW1  12238   0.383   3.729   1.853
 3060WAT  HW2  12239   0.239   3.742   1.899
 3060WAT  MW   12240   0.324   3.751   1.914
 3061WAT  OW   12241   0.960   1.172   5.508
 3061WAT  HW1  12242   0.906   1.159   5.585
 3061WAT  HW2  12243   0.901   1.210   5.442
 3061WAT  MW   12244   0.945   1.175   5.509
 3062WAT  OW   12245   3.103   5.659   0.418
 3062WAT  HW1  12246   3.194   5.637   0.438
 3062WAT  HW2  12247   3.059   5.657   0.502
 3062WAT  MW   12248   3.109   5.656   0.431
 3063WAT  OW   12249   2.074   1.925   6.309
 3063WAT  HW1  12250   2.165   1.909   6.283
 3063WAT  HW2  12251   2.043   1.992   6.248
 3063WAT  MW   12252   2.082   1.932   6.298
 3064WAT  OW   12253   5.945   5.892   0.484
 3064WAT  HW1  12254   6.022   5.943   0.460
 3064WAT  HW2  12255   5.976   5.830   0.550
 3064WAT  MW   12256   5.959   5.891   0.490
 3065WAT  OW   12257   1.598   1.739   5.815
 3065WAT  HW1  12258   1.612   1.768   5.905
 3065WAT  HW2  12259   1.685   1.722   5.780
 3065WAT  MW   12260   1.611   1.740   5.822
 3066WAT  OW   12261   5.421   3.229   6.379
 3066WAT  HW1  12262   5.469   3.150   6.405
 3066WAT  HW2  12263   5.478   3.272   6.315
 3066WAT  MW   12264   5.435   3.224   6.374
 3067WAT  OW   12265   0.508   5.464   0.347
 3067WAT  HW1  12266   0.596   5.427   0.352
 3067WAT  HW2  12267   0.459   5.415   0.413
 3067WAT  MW   12268   0.513   5.452   0.356
 3068WAT  OW   12269   6.032   3.156   4.352
 3068WAT  HW1  12270   5.973   3.196   4.416
 3068WAT  HW2  12271   5.980   3.088   4.310
 3068WAT  MW   12272   6.018   3.153   4.355
 3069WAT  OW   12273   4.818   5.546   1.215
 3069WAT  HW1  12274   4.740   5.497   1.188
 3069WAT  HW2  12275   4.857   5.577   1.134
 3069WAT  MW   12276   4.812   5.543   1.201
 3070WAT  OW   12277   1.450   5.897   1.772
 3070WAT  HW1  12278   1.412   5.967   1.826
 3070WAT  HW2  12279   1.411   5.910   1.686
 3070WAT  MW   12280   1.439   5.908   1.768
 3071WAT  OW   12281   5.306   5.297   4.391
 3071WAT  HW1  12282   5.215   5.316   4.414
 3071WAT  HW2  12283   5.326   5.358   4.320
 3071WAT  MW   12284   5.297   5.308   4.384
 3072WAT  OW   12285   0.155   4.978   5.783
 3072WAT  HW1  12286   0.108   4.895   5.778
 3072WAT  HW2  12287   0.124   5.028   5.707
 3072WAT  MW   12288   0.145   4.973   5.772
 3073WAT  OW   12289   5.806   5.944   6.613
 3073WAT  HW1  12290   5.744   5.999   6.564
 3073WAT  HW2  12291   5.872   6.005   6.646
 3073WAT  MW   12292   5.806   5.959   6.611
 3074WAT  OW   12293   4.302   1.162   4.325
 3074WAT  HW1  12294   4.362   1.089   4.341
 3074WAT  HW2  12295   4.356   1.229   4.285
 3074WAT  MW   12296   4.317   1.161   4.322
 3075WAT  OW   12297   1.340   2.824   3.120
 3075WAT  HW1  12298   1.433   2.847   3.123
 3075WAT  HW2  12299   1.298   2.885   3.180
 3075WAT  MW   12300   1.347   2.835   3.128
 3076WAT  OW   12301   1.029   6.234   2.505
 3076WAT  HW1  12302   1.095   6.250   2.573
 3076WAT  HW2  12303   1.053   6.294   2.434
 3076WAT  MW   12304   1.041   6.244   2.505
 3077WAT  OW   12305   5.032   3.910   4.496
 3077WAT  HW1  12306   5.116   3.887   4.536
 3077WAT  HW2  12307   5.040   3.881   4.405
 3077WAT  MW   12308   5.044   3.903   4.490
 3078WAT  OW   12309   5.508   5.002   1.200
 3078WAT  HW1  12310   5.433   5.002   1.142
 3078WAT  HW2  12311   5.474   5.035   1.283
 3078WAT  MW   12312   5.494   5.006   1.204
 3079WAT  OW   12313   1.676   3.435   4.038
 3079WAT  HW1  12314   1.618   3.369   3.999
 3079WAT  HW2  12315   1.661   3.514   3.985
 3079WAT  MW   12316   1.666   3.437   4.026
 3080WAT  OW   12317   1.002   6.067   3.345
 3080WAT  HW1  12318   1.022   6.095   3.434
 3080WAT  HW2  12319   1.084   6.080   3.297
 3080WAT  MW   12320   1.015   6.073   3.350
 3081WAT  OW   12321   5.130   3.806   0.093
 3081WAT  HW1  12322   5.136   3.722   0.139
 3081WAT  HW2  12323   5.039   3.833   0.103
 3081WAT  MW   12324   5.119   3.798   0.101
 3082WAT  OW   12325   0.773   6.366   5.900
 3082WAT  HW1  12326   0.860   6.404   5.891
 3082WAT  HW2  12327   0.762   6.353   5.995
 3082WAT  MW   12328   0.783   6.369   5.912
 3083WAT  OW   12329   0.130   0.220   4.857
 3083WAT  HW1  12330   0.214   0.258   4.885
 3083WAT  HW2  12331   0.108   0.267   4.776
 3083WAT  MW   12332   0.138   0.232   4.850
 3084WAT  OW   12333   3.052   4.060   1.502
 3084WAT  HW1  12334   3.007   4.079   1.419
 3084WAT  HW2  12335   3.029   4.134   1.558
 3084WAT  MW   12336   3.043   4.072   1.498
 3085WAT  OW   12337   2.094   1.497   4.474
 3085WAT  HW1  12338   2.184   1.498   4.507
 3085WAT  HW2  12339   2.096   1.435   4.401
 3085WAT  MW   12340   2.106   1.489   4.469
 3086WAT  OW   12341   6.317   6.133   1.731
 3086WAT  HW1  12342   6.327   6.224   1.760
 3086WAT  HW2  12343   6.405   6.105   1.709
 3086WAT  MW   12344   6.330   6.141   1.732
 3087WAT  OW   12345   3.538   2.730   1.314
 3087WAT  HW1  12346   3.583   2.656   1.355
 3087WAT  HW2  12347   3.474   2.759   1.379
 3087WAT  MW   12348   3.536   2.724   1.328
 3088WAT  OW   12349   0.127   5.043   1.037
 3088WAT  HW1  12350   0.122   5.107   0.966
 3088WAT  HW2  12351   0.220   5.025   1.048
 3088WAT  MW   12352   0.138   5.049   1.029
 3089WAT  OW   12353   1.416   4.111   5.617
 3089WAT  HW1  12354   1.413   4.165   5.696
 3089WAT  HW2  12355   1.467   4.035   5.643
 3089WAT  MW   12356   1.422   4.108   5.631
 3090WAT  OW   12357   4.854   4.654   6.256
 3090WAT  HW1  12358   4.934   4.699   6.227
 3090WAT  HW2  12359   4.886   4.573   6.296
 3090WAT  MW   12360   4.869   4.650   6.257
 3091WAT  OW   12361   3.835   2.972   2.417
 3091WAT  HW1  12362   3.923   2.994   2.448
 3091WAT  HW2  12363   3.816   3.039   2.351
 3091WAT  MW   12364   3.844   2.984   2.412
 3092WAT  OW   12365   1.593   2.287   5.678
 3092WAT  HW1  12366   1.667   2.230   5.656
 3092WAT  HW2  12367   1.581   2.275   5.772
 3092WAT  MW   12368   1.601   2.278   5.687
 3093WAT  OW   12369   4.877   4.085   4.735
 3093WAT  HW1  12370   4.918   4.072   4.649
 3093WAT  HW2  12371   4.833   4.002   4.754
 3093WAT  MW   12372   4.876   4.072   4.726
 3094WAT  OW   12373   1.642   2.446   2.717
 3094WAT  HW1  12374   1.703   2.461   2.789
 3094WAT  HW2  12375   1.693   2.463   2.638
 3094WAT  MW   12376   1.657   2.450   2.716
 3095WAT  OW   12377   5.800   4.733   3.118
 3095WAT  HW1  12378   5.769   4.800   3.180
 3095WAT  HW2  12379   5.889   4.760   3.096
 3095WAT  MW   12380   5.807   4.746   3.123
 3096WAT  OW   12381   5.542   2.767   4.567
 3096WAT  HW1  12382   5.535   2.861   4.585
 3096WAT  HW2  12383   5.490   2.753   4.488
 3096WAT  MW   12384   5.534   2.778   4.559
 3097WAT  OW   12385   0.033   2.720   0.142
 3097WAT  HW1  12386  -0.005   2.722   0.230
 3097WAT  HW2  12387  -0.008   2.646   0.099
 3097WAT  MW   12388   0.023   2.710   0.148
 3098WAT  OW   12389   1.181   0.350   2.249
 3098WAT  HW1  12390   1.192   0.281   2.315
 3098WAT  HW2  12391   1.243   0.326   2.180
 3098WAT  MW   12392   1.191   0.337   2.248
 3099WAT  OW   12393   6.165   2.115   3.270
 3099WAT  HW1  12394   6.138   2.198   3.310
 3099WAT  HW2  12395   6.178   2.056   3.344
 3099WAT  MW   12396   6.163   2.118   3.285
 3100WAT  OW   12397   3.199   5.506   1.003
 3100WAT  HW1  12398   3.216   5.558   1.081
 3100WAT  HW2  12399   3.275   5.447   0.996
 3100WAT  MW   12400   3.211   5.505   1.012
 3101WAT  OW   12401   3.701   1.661   4.137
 3101WAT  HW1  12402   3.653   1.612   4.203
 3101WAT  HW2  12403   3.700   1.605   4.060
 3101WAT  MW   12404   3.694   1.647   4.136
 3102WAT  OW   12405   6.008   4.600   4.243
 3102WAT  HW1  12406   6.071   4.615   4.174
 3102WAT  HW2  12407   6.015   4.678   4.299
 3102WAT  MW   12408   6.017   4.612   4.241
 3103WAT  OW   12409   0.045   4.137   5.153
 3103WAT  HW1  12410   0.103   4.110   5.224
 3103WAT  HW2  12411   0.002   4.057   5.124
 3103WAT  MW   12412   0.047   4.123   5.159
 3104WAT  OW   12413   0.100   2.988   5.431
 3104WAT  HW1  12414   0.112   3.056   5.365
 3104WAT  HW2  12415   0.174   2.999   5.490
 3104WAT  MW   12416   0.111   2.998   5.430
 3105WAT  OW   12417   1.572   0.613   0.175
 3105WAT  HW1  12418   1.508   0.564   0.123
 3105WAT  HW2  12419   1.657   0.590   0.138
 3105WAT  MW   12420   1.574   0.603   0.163
 3106WAT  OW   12421   2.376   5.156   5.704
 3106WAT  HW1  12422   2.352   5.237   5.750
 3106WAT  HW2  12423   2.328   5.162   5.621
 3106WAT  MW   12424   2.366   5.168   5.699
 3107WAT  OW   12425   2.726   3.361   0.975
 3107WAT  HW1  12426   2.708   3.447   0.939
 3107WAT  HW2  12427   2.821   3.359   0.986
 3107WAT  MW   12428   2.736   3.372   0.971
 3108WAT  OW   12429   5.407   6.230   5.987
 3108WAT  HW1  12430   5.448   6.166   6.045
 3108WAT  HW2  12431   5.325   6.189   5.961
 3108WAT  MW   12432   5.402   6.216   5.991
 3109WAT  OW   12433   2.109   5.212   2.742
 3109WAT  HW1  12434   2.111   5.118   2.724
 3109WAT  HW2  12435   2.036   5.245   2.689
 3109WAT  MW   12436   2.099   5.204   2.733
 3110WAT  OW   12437   0.831   1.671   4.857
 3110WAT  HW1  12438   0.786   1.751   4.831
 3110WAT  HW2  12439   0.842   1.622   4.775
 3110WAT  MW   12440   0.827   1.675   4.842
 3111WAT  OW   12441   0.740   0.096   4.521
 3111WAT  HW1  12442   0.792   0.043   4.460
 3111WAT  HW2  12443   0.750   0.186   4.489
 3111WAT  MW   12444   0.748   0.101   4.509
 3112WAT  OW   12445   1.646   3.931   0.255
 3112WAT  HW1  12446   1.600   3.981   0.323
 3112WAT  HW2  12447   1.732   3.913   0.293
 3112WAT  MW   12448   1.652   3.936   0.269
 3113WAT  OW   12449   4.034   5.664   1.709
 3113WAT  HW1  12450   4.014   5.624   1.794
 3113WAT  HW2  12451   3.973   5.621   1.648
 3113WAT  MW   12452   4.023   5.653   1.712
 3114WAT  OW   12453   2.123   5.459   5.143
 3114WAT  HW1  12454   2.126   5.435   5.051
 3114WAT  HW2  12455   2.100   5.552   5.144
 3114WAT  MW   12456   2.120   5.468   5.131
 3115WAT  OW   12457   1.603   3.262   3.440
 3115WAT  HW1  12458   1.573   3.297   3.524
 3115WAT  HW2  12459   1.656   3.186   3.464
 3115WAT  MW   12460   1.606   3.256   3.454
 3116WAT  OW   12461   0.623   5.994   6.057
 3116WAT  HW1  12462   0.703   6.035   6.025
 3116WAT  HW2  12463   0.595   5.937   5.985
 3116WAT  MW   12464   0.630   5.992   6.043
 3117WAT  OW   12465   3.951   1.623   1.658
 3117WAT  HW1  12466   3.921   1.711   1.682
 3117WAT  HW2  12467   3.971   1.581   1.741
 3117WAT  MW   12468   3.950   1.629   1.672
 3118WAT  OW   12469   1.772   0.058   1.145
 3118WAT  HW1  12470   1.864   0.068   1.122
 3118WAT  HW2  12471   1.754   0.130   1.206
 3118WAT  MW   12472   1.781   0.069   1.150
 3119WAT  OW   12473   4.918   5.492   0.071
 3119WAT  HW1  12474   4.838   5.517   0.026
 3119WAT  HW2  12475   4.917   5.396   0.072
 3119WAT  MW   12476   4.907   5.482   0.065
 3120WAT  OW   12477   2.933   4.478   3.385
 3120WAT  HW1  12478   2.920   4.428   3.466
 3120WAT  HW2  12479   2.863   4.447   3.327
 3120WAT  MW   12480   2.922   4.467   3.388
 3121WAT  OW   12481   3.700   6.247   3.985
 3121WAT  HW1  12482   3.667   6.257   4.075
 3121WAT  HW2  12483   3.621   6.250   3.931
 3121WAT  MW   12484   3.685   6.248   3.990
 3122WAT  OW   12485   3.123   2.061   2.887
 3122WAT  HW1  12486   3.061   2.116   2.934
 3122WAT  HW2  12487   3.172   2.122   2.831
 3122WAT  MW   12488   3.121   2.077   2.886
 3123WAT  OW   12489   2.044   3.006   2.398
 3123WAT  HW1  12490   2.114   3.036   2.457
 3123WAT  HW2  12491   1.984   3.081   2.392
 3123WAT  MW   12492   2.045   3.020   2.405
 3124WAT  OW   12493   6.320   2.032   6.003
 3124WAT  HW1  12494   6.379   1.965   6.038
 3124WAT  HW2  12495   6.375   2.110   5.995
 3124WAT  MW   12496   6.335   2.033   6.007
 3125WAT  OW   12497   2.187   1.111   2.027
 3125WAT  HW1  12498   2.251   1.049   1.991
 3125WAT  HW2  12499   2.201   1.106   2.122
 3125WAT  MW   12500   2.197   1.102   2.035
 3126WAT  OW   12501   4.716   6.399   4.914
 3126WAT  HW1  12502   4.683   6.466   4.854
 3126WAT  HW2  12503   4.650   6.394   4.983
 3126WAT  MW   12504   4.703   6.407   4.915
 3127WAT  OW   12505   2.965   0.807   0.068
 3127WAT  HW1  12506   3.055   0.779   0.080
 3127WAT  HW2  12507   2.945   0.786  -0.022
 3127WAT  MW   12508   2.974   0.801   0.058
 3128WAT  OW   12509   4.940   5.205   2.681
 3128WAT  HW1  12510   5.026   5.183   2.646
 3128WAT  HW2  12511   4.883   5.134   2.652
 3128WAT  MW   12512   4.944   5.193   2.673
 3129WAT  OW   12513   3.122   2.189   4.013
 3129WAT  HW1  12514   3.163   2.168   4.097
 3129WAT  HW2  12515   3.062   2.261   4.033
 3129WAT  MW   12516   3.120   2.196   4.027
 3130WAT  OW   12517   2.309   4.072   6.258
 3130WAT  HW1  12518   2.402   4.052   6.248
 3130WAT  HW2  12519   2.306   4.138   6.327
 3130WAT  MW   12520   2.321   4.078   6.266
 3131WAT  OW   12521   3.666   4.424   4.170
 3131WAT  HW1  12522   3.709   4.441   4.253
 3131WAT  HW2  12523   3.737   4.421   4.106
 3131WAT  MW   12524   3.681   4.426   4.172
 3132WAT  OW   12525   6.165   0.801   0.081
 3132WAT  HW1  12526   6.137   0.783  -0.008
 3132WAT  HW2  12527   6.171   0.896   0.086
 3132WAT  MW   12528   6.162   0.811   0.070
 3133WAT  OW   12529   2.604   4.728   6.391
 3133WAT  HW1  12530   2.581   4.800   6.332
 3133WAT  HW2  12531   2.624   4.771   6.474
 3133WAT  MW   12532   2.603   4.744   6.394
 3134WAT  OW   12533   2.924   5.685   5.648
 3134WAT  HW1  12534   2.900   5.618   5.712
 3134WAT  HW2  12535   2.920   5.641   5.563
 3134WAT  MW   12536   2.921   5.670   5.645
 3135WAT  OW   12537   4.102   5.990   4.790
 3135WAT  HW1  12538   4.172   5.927   4.773
 3135WAT  HW2  12539   4.093   5.991   4.885
 3135WAT  MW   12540   4.110   5.982   4.800
 3136WAT  OW   12541   1.086   4.011   3.006
 3136WAT  HW1  12542   1.163   4.054   2.968
 3136WAT  HW2  12543   1.105   4.006   3.100
 3136WAT  MW   12544   1.099   4.016   3.013
 3137WAT  OW   12545   1.076   1.207   0.106
 3137WAT  HW1  12546   1.139   1.218   0.035
 3137WAT  HW2  12547   1.118   1.144   0.165
 3137WAT  MW   12548   1.090   1.200   0.105
 3138WAT  OW   12549   2.644   6.076   3.324
 3138WAT  HW1  12550   2.601   6.041   3.402
 3138WAT  HW2  12551   2.582   6.140   3.289
 3138WAT  MW   12552   2.630   6.080   3.330
 3139WAT  OW   12553   4.105   6.576   5.998
 3139WAT  HW1  12554   4.012   6.562   5.980
 3139WAT  HW2  12555   4.108   6.660   6.045
 3139WAT  MW   12556   4.093   6.586   6.002
 3140WAT  OW   12557   6.588   2.919   6.027
 3140WAT  HW1  12558   6.541   2.981   6.084
 3140WAT  HW2  12559   6.520   2.859   5.996
 3140WAT  MW   12560   6.573   2.920   6.030
 3141WAT  OW   12561   1.834   0.327   4.734
 3141WAT  HW1  12562   1.857   0.390   4.803
 3141WAT  HW2  12563   1.756   0.364   4.693
 3141WAT  MW   12564   1.827   0.340   4.738
 3142WAT  OW   12565   5.146   1.523   4.181
 3142WAT  HW1  12566   5.133   1.578   4.259
 3142WAT  HW2  12567   5.241   1.514   4.174
 3142WAT  MW   12568   5.157   1.529   4.191
 3143WAT  OW   12569   2.922   4.059   1.240
 3143WAT  HW1  12570   2.870   4.138   1.253
 3143WAT  HW2  12571   2.886   4.018   1.162
 3143WAT  MW   12572   2.911   4.064   1.232
 3144WAT  OW   12573   3.338   4.593   5.664
 3144WAT  HW1  12574   3.301   4.585   5.576
 3144WAT  HW2  12575   3.288   4.531   5.717
 3144WAT  MW   12576   3.327   4.584   5.659
 3145WAT  OW   12577   6.349   1.041   1.050
 3145WAT  HW1  12578   6.424   0.983   1.042
 3145WAT  HW2  12579   6.384   1.129   1.035
 3145WAT  MW   12580   6.363   1.045   1.047
 3146WAT  OW   12581   3.282   5.058   2.647
 3146WAT  HW1  12582   3.354   5.001   2.673
 3146WAT  HW2  12583   3.220   5.053   2.720
 3146WAT  MW   12584   3.283   5.050   2.660
 3147WAT  OW   12585   0.109   5.308   3.254
 3147WAT  HW1  12586   0.065   5.391   3.234
 3147WAT  HW2  12587   0.107   5.259   3.172
 3147WAT  MW   12588   0.103   5.313   3.240
 3148WAT  OW   12589   4.169   5.969   1.298
 3148WAT  HW1  12590   4.169   6.013   1.383
 3148WAT  HW2  12591   4.224   6.024   1.242
 3148WAT  MW   12592   4.176   5.982   1.302
 3149WAT  OW   12593   4.602   2.214   6.505
 3149WAT  HW1  12594   4.553   2.167   6.572
 3149WAT  HW2  12595   4.674   2.156   6.482
 3149WAT  MW   12596   4.605   2.200   6.511
 3150WAT  OW   12597   3.873   5.070   5.534
 3150WAT  HW1  12598   3.834   5.033   5.614
 3150WAT  HW2  12599   3.959   5.100   5.562
 3150WAT  MW   12600   3.879   5.069   5.548
 3151WAT  OW   12601   0.656   5.165   4.680
 3151WAT  HW1  12602   0.696   5.119   4.754
 3151WAT  HW2  12603   0.671   5.108   4.605
 3151WAT  MW   12604   0.663   5.151   4.680
 3152WAT  OW   12605   0.577   3.841   1.136
 3152WAT  HW1  12606   0.524   3.846   1.215
 3152WAT  HW2  12607   0.593   3.747   1.124
 3152WAT  MW   12608   0.572   3.829   1.145
 3153WAT  OW   12609   0.489   1.211   6.552
 3153WAT  HW1  12610   0.511   1.165   6.633
 3153WAT  HW2  12611   0.464   1.142   6.491
 3153WAT  MW   12612   0.489   1.196   6.555
 3154WAT  OW   12613   1.159   2.178   6.538
 3154WAT  HW1  12614   1.221   2.195   6.467
 3154WAT  HW2  12615   1.187   2.235   6.609
 3154WAT  MW   12616   1.171   2.188   6.538
 3155WAT  OW   12617   4.545   0.645   3.465
 3155WAT  HW1  12618   4.576   0.559   3.437
 3155WAT  HW2  12619   4.507   0.683   3.386
 3155WAT  MW   12620   4.544   0.639   3.451
 3156WAT  OW   12621   3.770   3.545   6.681
 3156WAT  HW1  12622   3.772   3.474   6.616
 3156WAT  HW2  12623   3.825   3.613   6.644
 3156WAT  MW   12624   3.777   3.544   6.668
 3157WAT  OW   12625   0.793   1.302   0.297
 3157WAT  HW1  12626   0.725   1.361   0.264
 3157WAT  HW2  12627   0.835   1.268   0.218
 3157WAT  MW   12628   0.789   1.305   0.282
 3158WAT  OW   12629   0.965   2.876   3.440
 3158WAT  HW1  12630   0.981   2.782   3.443
 3158WAT  HW2  12631   0.915   2.888   3.359
 3158WAT  MW   12632   0.960   2.865   3.430
 3159WAT  OW   12633   5.398   5.737   5.590
 3159WAT  HW1  12634   5.347   5.795   5.647
 3159WAT  HW2  12635   5.332   5.685   5.544
 3159WAT  MW   12636   5.383   5.738   5.591
 3160WAT  OW   12637   5.130   4.672   2.482
 3160WAT  HW1  12638   5.163   4.583   2.496
 3160WAT  HW2  12639   5.182   4.726   2.542
 3160WAT  MW   12640   5.141   4.667   2.492
 3161WAT  OW   12641   4.265   2.829   0.065
 3161WAT  HW1  12642   4.261   2.895  -0.004
 3161WAT  HW2  12643   4.260   2.746   0.019
 3161WAT  MW   12644   4.264   2.827   0.050
 3162WAT  OW   12645   2.111   3.687   0.022
 3162WAT  HW1  12646   2.196   3.650  -0.003
 3162WAT  HW2  12647   2.132   3.745   0.096
 3162WAT  MW   12648   2.125   3.690   0.029
 3163WAT  OW   12649   0.767   5.601   6.317
 3163WAT  HW1  12650   0.695   5.664   6.321
 3163WAT  HW2  12651   0.839   5.651   6.277
 3163WAT  MW   12652   0.767   5.616   6.312
 3164WAT  OW   12653   2.117   0.736   5.520
 3164WAT  HW1  12654   2.124   0.760   5.428
 3164WAT  HW2  12655   2.180   0.665   5.532
 3164WAT  MW   12656   2.126   0.730   5.510
 3165WAT  OW   12657   3.952   4.382   3.140
 3165WAT  HW1  12658   3.957   4.369   3.045
 3165WAT  HW2  12659   3.861   4.365   3.162
 3165WAT  MW   12660   3.941   4.378   3.130
 3166WAT  OW   12661   1.537   3.199   2.044
 3166WAT  HW1  12662   1.458   3.182   1.993
 3166WAT  HW2  12663   1.589   3.257   1.989
 3166WAT  MW   12664   1.533   3.204   2.030
 3167WAT  OW   12665   0.438   5.612   2.723
 3167WAT  HW1  12666   0.343   5.617   2.733
 3167WAT  HW2  12667   0.461   5.685   2.666
 3167WAT  MW   12668   0.429   5.622   2.717
 3168WAT  OW   12669   3.761   3.221   1.961
 3168WAT  HW1  12670   3.767   3.133   1.924
 3168WAT  HW2  12671   3.797   3.278   1.893
 3168WAT  MW   12672   3.766   3.217   1.947
 3169WAT  OW   12673   3.069   0.988   4.384
 3169WAT  HW1  12674   3.126   0.911   4.385
 3169WAT  HW2  12675   3.057   1.008   4.292
 3169WAT  MW   12676   3.075   0.980   4.372
 3170WAT  OW   12677   0.861   2.676   1.331
 3170WAT  HW1  12678   0.838   2.766   1.354
 3170WAT  HW2  12679   0.913   2.684   1.251
 3170WAT  MW   12680   0.865   2.689   1.323
 3171WAT  OW   12681   1.853   0.247   0.767
 3171WAT  HW1  12682   1.850   0.151   0.776
 3171WAT  HW2  12683   1.838   0.262   0.674
 3171WAT  MW   12684   1.851   0.236   0.756
 3172WAT  OW   12685   5.910   4.238   2.020
 3172WAT  HW1  12686   5.944   4.186   1.947
 3172WAT  HW2  12687   5.927   4.184   2.097
 3172WAT  MW   12688   5.916   4.224   2.020
 3173WAT  OW   12689   6.110   0.309   5.266
 3173WAT  HW1  12690   6.048   0.376   5.239
 3173WAT  HW2  12691   6.096   0.300   5.361
 3173WAT  MW   12692   6.100   0.316   5.275
 3174WAT  OW   12693   2.511   3.340   4.954
 3174WAT  HW1  12694   2.550   3.268   5.004
 3174WAT  HW2  12695   2.420   3.345   4.984
 3174WAT  MW   12696   2.504   3.332   4.964
 3175WAT  OW   12697   4.259   3.424   0.890
 3175WAT  HW1  12698   4.290   3.343   0.850
 3175WAT  HW2  12699   4.170   3.404   0.919
 3175WAT  MW   12700   4.251   3.411   0.888
 3176WAT  OW   12701   5.359   2.217   1.622
 3176WAT  HW1  12702   5.386   2.304   1.595
 3176WAT  HW2  12703   5.437   2.163   1.611
 3176WAT  MW   12704   5.372   2.221   1.617
 3177WAT  OW   12705   2.700   6.178   0.411
 3177WAT  HW1  12706   2.683   6.260   0.364
 3177WAT  HW2  12707   2.709   6.204   0.503
 3177WAT  MW   12708   2.699   6.192   0.417
 3178WAT  OW   12709   4.830   0.450   4.860
 3178WAT  HW1  12710   4.853   0.529   4.909
 3178WAT  HW2  12711   4.744   0.469   4.822
 3178WAT  MW   12712   4.822   0.463   4.861
 3179WAT  OW   12713   1.254   3.804   6.325
 3179WAT  HW1  12714   1.187   3.816   6.391
 3179WAT  HW2  12715   1.210   3.817   6.241
 3179WAT  MW   12716   1.240   3.807   6.322
 3180WAT  OW   12717   3.938   5.692   2.741
 3180WAT  HW1  12718   3.853   5.657   2.715
 3180WAT  HW2  12719   3.918   5.770   2.793
 3180WAT  MW   12720   3.924   5.698   2.745
 3181WAT  OW   12721   2.894   6.507   3.111
 3181WAT  HW1  12722   2.953   6.579   3.087
 3181WAT  HW2  12723   2.948   6.429   3.108
 3181WAT  MW   12724   2.909   6.506   3.107
 3182WAT  OW   12725   1.357   2.978   0.398
 3182WAT  HW1  12726   1.351   3.030   0.478
 3182WAT  HW2  12727   1.269   2.984   0.359
 3182WAT  MW   12728   1.344   2.985   0.404
 3183WAT  OW   12729   5.207   4.728   6.441
 3183WAT  HW1  12730   5.269   4.800   6.431
 3183WAT  HW2  12731   5.186   4.702   6.351
 3183WAT  MW   12732   5.212   4.734   6.428
 3184WAT  OW   12733   1.780   4.222   5.483
 3184WAT  HW1  12734   1.745   4.138   5.512
 3184WAT  HW2  12735   1.839   4.249   5.553
 3184WAT  MW   12736   1.783   4.215   5.496
 3185WAT  OW   12737   4.380   5.013   6.498
 3185WAT  HW1  12738   4.353   5.055   6.579
 3185WAT  HW2  12739   4.298   4.992   6.453
 3185WAT  MW   12740   4.365   5.015   6.502
 3186WAT  OW   12741   4.124   4.836   2.693
 3186WAT  HW1  12742   4.209   4.835   2.649
 3186WAT  HW2  12743   4.121   4.922   2.736
 3186WAT  MW   12744   4.135   4.847   2.693
 3187WAT  OW   12745   1.807   3.330   3.254
 3187WAT  HW1  12746   1.881   3.325   3.314
 3187WAT  HW2  12747   1.732   3.354   3.309
 3187WAT  MW   12748   1.807   3.332   3.269
 3188WAT  OW   12749   3.964   4.345   2.822
 3188WAT  HW1  12750   4.011   4.268   2.853
 3188WAT  HW2  12751   3.877   4.312   2.797
 3188WAT  MW   12752   3.958   4.330   2.823
 3189WAT  OW   12753   5.936   4.381   0.068
 3189WAT  HW1  12754   5.927   4.315   0.138
 3189WAT  HW2  12755   5.937   4.330  -0.012
 3189WAT  MW   12756   5.935   4.365   0.067
 3190WAT  OW   12757   0.768   0.327   5.156
 3190WAT  HW1  12758   0.860   0.299   5.152
 3190WAT  HW2  12759   0.772   0.422   5.155
 3190WAT  MW   12760   0.781   0.336   5.155
 3191WAT  OW   12761   0.026   2.747   4.088
 3191WAT  HW1  12762   0.048   2.661   4.052
 3191WAT  HW2  12763   0.083   2.756   4.164
 3191WAT  MW   12764   0.037   2.737   4.093
 3192WAT  OW   12765   6.263   5.976   0.653
 3192WAT  HW1  12766   6.280   6.064   0.687
 3192WAT  HW2  12767   6.222   5.930   0.726
 3192WAT  MW   12768   6.260   5.981   0.667
 3193WAT  OW   12769   1.141   3.897   5.596
 3193WAT  HW1  12770   1.207   3.828   5.586
 3193WAT  HW2  12771   1.110   3.915   5.507
 3193WAT  MW   12772   1.145   3.890   5.583
 3194WAT  OW   12773   3.664   2.398   2.887
 3194WAT  HW1  12774   3.706   2.321   2.848
 3194WAT  HW2  12775   3.707   2.473   2.845
 3194WAT  MW   12776   3.675   2.398   2.876
 3195WAT  OW   12777   5.880   2.421   1.061
 3195WAT  HW1  12778   5.810   2.483   1.083
 3195WAT  HW2  12779   5.960   2.462   1.093
 3195WAT  MW   12780   5.881   2.434   1.068
 3196WAT  OW   12781   4.297   0.300   5.449
 3196WAT  HW1  12782   4.278   0.259   5.533
 3196WAT  HW2  12783   4.213   0.333   5.418
 3196WAT  MW   12784   4.284   0.299   5.456
 3197WAT  OW   12785   2.539   5.350   3.189
 3197WAT  HW1  12786   2.497   5.433   3.166
 3197WAT  HW2  12787   2.617   5.347   3.134
 3197WAT  MW   12788   2.544   5.361   3.179
 3198WAT  OW   12789   1.303   1.920   0.659
 3198WAT  HW1  12790   1.334   1.877   0.580
 3198WAT  HW2  12791   1.224   1.967   0.632
 3198WAT  MW   12792   1.297   1.921   0.645
 3199WAT  OW   12793   2.469   4.960   5.343
 3199WAT  HW1  12794   2.488   4.876   5.302
 3199WAT  HW2  12795   2.464   5.022   5.270
 3199WAT  MW   12796   2.470   4.957   5.328
 3200WAT  OW   12797   3.327   4.132   6.284
 3200WAT  HW1  12798   3.404   4.089   6.248
 3200WAT  HW2  12799   3.267   4.061   6.304
 3200WAT  MW   12800   3.329   4.117   6.282
 3201WAT  OW   12801   1.020   1.571   2.753
 3201WAT  HW1  12802   1.082   1.560   2.681
 3201WAT  HW2  12803   0.963   1.643   2.725
 3201WAT  MW   12804   1.021   1.579   2.740
 3202WAT  OW   12805   3.917   6.162   0.387
 3202WAT  HW1  12806   3.894   6.101   0.457
 3202WAT  HW2  12807   3.843   6.159   0.327
 3202WAT  MW   12808   3.904   6.154   0.388
 3203WAT  OW   12809   2.023   2.167   1.479
 3203WAT  HW1  12810   2.115   2.180   1.458
 3203WAT  HW2  12811   2.023   2.127   1.566
 3203WAT  MW   12812   2.035   2.164   1.488
 3204WAT  OW   12813   3.971   2.762   1.193
 3204WAT  HW1  12814   3.898   2.748   1.133
 3204WAT  HW2  12815   3.960   2.853   1.223
 3204WAT  MW   12816   3.960   2.772   1.189
 3205WAT  OW   12817   1.503   1.769   2.146
 3205WAT  HW1  12818   1.432   1.711   2.118
 3205WAT  HW2  12819   1.477   1.856   2.115
 3205WAT  MW   12820   1.490   1.773   2.138
 3206WAT  OW   12821   2.766   6.546   1.089
 3206WAT  HW1  12822   2.773   6.450   1.093
 3206WAT  HW2  12823   2.686   6.561   1.038
 3206WAT  MW   12824   2.756   6.535   1.083
 3207WAT  OW   12825   1.952   2.349   0.232
 3207WAT  HW1  12826   2.030   2.299   0.211
 3207WAT  HW2  12827   1.923   2.384   0.148
 3207WAT  MW   12828   1.958   2.347   0.218
 3208WAT  OW   12829   0.232   3.440   1.157
 3208WAT  HW1  12830   0.300   3.496   1.193
 3208WAT  HW2  12831   0.264   3.351   1.171
 3208WAT  MW   12832   0.245   3.436   1.163
 3209WAT  OW   12833   0.268   0.770   6.108
 3209WAT  HW1  12834   0.238   0.860   6.101
 3209WAT  HW2  12835   0.343   0.764   6.050
 3209WAT  MW   12836   0.274   0.781   6.100
 3210WAT  OW   12837   5.280   4.074   0.810
 3210WAT  HW1  12838   5.333   4.058   0.888
 3210WAT  HW2  12839   5.325   4.145   0.765
 3210WAT  MW   12840   5.293   4.081   0.815
 3211WAT  OW   12841   6.403   3.533   2.254
 3211WAT  HW1  12842   6.316   3.564   2.281
 3211WAT  HW2  12843   6.440   3.606   2.205
 3211WAT  MW   12844   6.396   3.547   2.251
 3212WAT  OW   12845   2.119   3.778   1.207
 3212WAT  HW1  12846   2.144   3.785   1.115
 3212WAT  HW2  12847   2.155   3.694   1.235
 3212WAT  MW   12848   2.127   3.768   1.199
 3213WAT  OW   12849   3.328   1.278   4.067
 3213WAT  HW1  12850   3.326   1.333   4.145
 3213WAT  HW2  12851   3.348   1.337   3.995
 3213WAT  MW   12852   3.330   1.293   4.068
 3214WAT  OW   12853   1.705   6.186   4.177
 3214WAT  HW1  12854   1.726   6.186   4.084
 3214WAT  HW2  12855   1.715   6.095   4.204
 3214WAT  MW   12856   1.709   6.174   4.169
 3215WAT  OW   12857   3.539   0.953   3.809
 3215WAT  HW1  12858   3.471   0.890   3.832
 3215WAT  HW2  12859   3.546   1.010   3.885
 3215WAT  MW   12860   3.531   0.953   3.822
 3216WAT  OW   12861   6.323   4.180   4.780
 3216WAT  HW1  12862   6.256   4.138   4.725
 3216WAT  HW2  12863   6.297   4.273   4.780
 3216WAT  MW   12864   6.310   4.187   4.772
 3217WAT  OW   12865   1.593   5.700   3.841
 3217WAT  HW1  12866   1.572   5.722   3.932
 3217WAT  HW2  12867   1.686   5.722   3.831
 3217WAT  MW   12868   1.603   5.706   3.851
 3218WAT  OW   12869   1.178   6.555   3.068
 3218WAT  HW1  12870   1.162   6.465   3.041
 3218WAT  HW2  12871   1.146   6.559   3.158
 3218WAT  MW   12872   1.171   6.544   3.076
 3219WAT  OW   12873   5.726   5.693   5.902
 3219WAT  HW1  12874   5.694   5.612   5.862
 3219WAT  HW2  12875   5.784   5.731   5.836
 3219WAT  MW   12876   5.729   5.687   5.888
 3220WAT  OW   12877   4.712   6.205   2.547
 3220WAT  HW1  12878   4.703   6.113   2.572
 3220WAT  HW2  12879   4.672   6.210   2.460
 3220WAT  MW   12880   4.705   6.193   2.539
 3221WAT  OW   12881   6.135   2.890   5.281
 3221WAT  HW1  12882   6.085   2.938   5.215
 3221WAT  HW2  12883   6.218   2.938   5.287
 3221WAT  MW   12884   6.140   2.903   5.273
 3222WAT  OW   12885   2.886   3.417   3.922
 3222WAT  HW1  12886   2.899   3.382   3.834
 3222WAT  HW2  12887   2.794   3.398   3.941
 3222WAT  MW   12888   2.875   3.410   3.913
 3223WAT  OW   12889   2.242   6.212   5.491
 3223WAT  HW1  12890   2.272   6.121   5.485
 3223WAT  HW2  12891   2.322   6.262   5.503
 3223WAT  MW   12892   2.256   6.206   5.492
 3224WAT  OW   12893   1.764   5.389   0.267
 3224WAT  HW1  12894   1.721   5.305   0.249
 3224WAT  HW2  12895   1.810   5.374   0.350
 3224WAT  MW   12896   1.765   5.376   0.275
 3225WAT  OW   12897   2.574   1.202   5.442
 3225WAT  HW1  12898   2.648   1.223   5.499
 3225WAT  HW2  12899   2.592   1.113   5.411
 3225WAT  MW   12900   2.586   1.193   5.446
 3226WAT  OW   12901   2.058   4.752   2.821
 3226WAT  HW1  12902   2.140   4.705   2.804
 3226WAT  HW2  12903   1.995   4.711   2.763
 3226WAT  MW   12904   2.061   4.741   2.811
 3227WAT  OW   12905   3.470   2.074   5.123
 3227WAT  HW1  12906   3.552   2.045   5.083
 3227WAT  HW2  12907   3.440   2.147   5.069
 3227WAT  MW   12908   3.477   2.079   5.111
 3228WAT  OW   12909   3.248   6.043   5.866
 3228WAT  HW1  12910   3.315   6.042   5.934
 3228WAT  HW2  12911   3.285   5.990   5.796
 3228WAT  MW   12912   3.262   6.036   5.866
 3229WAT  OW   12913   6.563   5.938   1.802
 3229WAT  HW1  12914   6.591   5.927   1.711
 3229WAT  HW2  12915   6.640   5.973   1.847
 3229WAT  MW   12916   6.577   5.941   1.796
 3230WAT  OW   12917   0.406   1.643   5.546
 3230WAT  HW1  12918   0.322   1.607   5.518
 3230WAT  HW2  12919   0.466   1.623   5.475
 3230WAT  MW   12920   0.403   1.635   5.533
 3231WAT  OW   12921   6.211   0.912   0.431
 3231WAT  HW1  12922   6.256   0.990   0.464
 3231WAT  HW2  12923   6.203   0.855   0.508
 3231WAT  MW   12924   6.216   0.914   0.446
 3232WAT  OW   12925   0.467   4.488   4.406
 3232WAT  HW1  12926   0.429   4.463   4.322
 3232WAT  HW2  12927   0.471   4.584   4.403
 3232WAT  MW   12928   0.463   4.497   4.394
 3233WAT  OW   12929   2.286   0.642   0.103
 3233WAT  HW1  12930   2.279   0.736   0.123
 3233WAT  HW2  12931   2.379   0.622   0.117
 3233WAT  MW   12932   2.297   0.652   0.108
 3234WAT  OW   12933   0.004   1.367   1.438
 3234WAT  HW1  12934   0.091   1.343   1.406
 3234WAT  HW2  12935  -0.054   1.300   1.403
 3234WAT  MW   12936   0.008   1.355   1.429
 3235WAT  OW   12937   6.325   0.679   6.060
 3235WAT  HW1  12938   6.325   0.583   6.061
 3235WAT  HW2  12939   6.360   0.704   6.146
 3235WAT  MW   12940   6.330   0.670   6.071
 3236WAT  OW   12941   2.012   0.508   2.319
 3236WAT  HW1  12942   1.932   0.458   2.333
 3236WAT  HW2  12943   1.987   0.599   2.336
 3236WAT  MW   12944   1.998   0.513   2.323
 3237WAT  OW   12945   0.660   4.934   6.160
 3237WAT  HW1  12946   0.577   4.889   6.143
 3237WAT  HW2  12947   0.647   4.978   6.244
 3237WAT  MW   12948   0.647   4.934   6.169
 3238WAT  OW   12949   3.448   5.003   5.469
 3238WAT  HW1  12950   3.517   5.056   5.430
 3238WAT  HW2  12951   3.395   5.065   5.519
 3238WAT  MW   12952   3.450   5.018   5.471
 3239WAT  OW   12953   6.025   4.452   6.435
 3239WAT  HW1  12954   6.084   4.378   6.443
 3239WAT  HW2  12955   5.940   4.419   6.465
 3239WAT  MW   12956   6.022   4.438   6.440
 3240WAT  OW   12957   6.227   2.628   2.121
 3240WAT  HW1  12958   6.225   2.534   2.099
 3240WAT  HW2  12959   6.244   2.630   2.215
 3240WAT  MW   12960   6.229   2.616   2.130
 3241WAT  OW   12961   6.165   3.595   4.490
 3241WAT  HW1  12962   6.161   3.689   4.470
 3241WAT  HW2  12963   6.179   3.592   4.585
 3241WAT  MW   12964   6.166   3.607   4.500
 3242WAT  OW   12965   2.473   0.528   3.176
 3242WAT  HW1  12966   2.452   0.441   3.208
 3242WAT  HW2  12967   2.387   0.568   3.158
 3242WAT  MW   12968   2.459   0.522   3.178
 3243WAT  OW   12969   1.081   1.777   4.772
 3243WAT  HW1  12970   1.144   1.793   4.842
 3243WAT  HW2  12971   1.010   1.729   4.814
 3243WAT  MW   12972   1.080   1.773   4.787
 3244WAT  OW   12973   5.241   0.309   1.704
 3244WAT  HW1  12974   5.259   0.381   1.764
 3244WAT  HW2  12975   5.201   0.351   1.628
 3244WAT  MW   12976   5.238   0.324   1.702
 3245WAT  OW   12977   1.417   4.793   5.610
 3245WAT  HW1  12978   1.379   4.705   5.607
 3245WAT  HW2  12979   1.466   4.795   5.693
 3245WAT  MW   12980   1.419   4.781   5.620
 3246WAT  OW   12981   6.038   1.729   5.742
 3246WAT  HW1  12982   6.118   1.683   5.719
 3246WAT  HW2  12983   5.968   1.680   5.699
 3246WAT  MW   12984   6.039   1.716   5.733
 3247WAT  OW   12985   6.536   5.590   1.512
 3247WAT  HW1  12986   6.543   5.554   1.600
 3247WAT  HW2  12987   6.618   5.639   1.500
 3247WAT  MW   12988   6.548   5.592   1.522
 3248WAT  OW   12989   6.557   6.435   6.056
 3248WAT  HW1  12990   6.505   6.508   6.023
 3248WAT  HW2  12991   6.629   6.427   5.994
 3248WAT  MW   12992   6.560   6.444   6.044
 3249WAT  OW   12993   2.074   4.279   1.572
 3249WAT  HW1  12994   2.127   4.201   1.554
 3249WAT  HW2  12995   2.008   4.250   1.634
 3249WAT  MW   12996   2.072   4.265   1.577
 3250WAT  OW   12997   5.704   0.448   6.295
 3250WAT  HW1  12998   5.791   0.488   6.302
 3250WAT  HW2  12999   5.672   0.474   6.209
 3250WAT  MW   13000   5.711   0.457   6.285
 3251WAT  OW   13001   3.323   5.620   6.649
 3251WAT  HW1  13002   3.336   5.610   6.743
 3251WAT  HW2  13003   3.229   5.625   6.638
 3251WAT  MW   13004   3.313   5.619   6.660
 3252WAT  OW   13005   0.726   4.847   5.470
 3252WAT  HW1  13006   0.796   4.833   5.534
 3252WAT  HW2  13007   0.667   4.772   5.482
 3252WAT  MW   13008   0.728   4.835   5.480
 3253WAT  OW   13009   5.873   0.292   1.561
 3253WAT  HW1  13010   5.858   0.217   1.619
 3253WAT  HW2  13011   5.868   0.255   1.472
 3253WAT  MW   13012   5.870   0.277   1.557
 3254WAT  OW   13013   0.779   0.799   5.371
 3254WAT  HW1  13014   0.868   0.766   5.382
 3254WAT  HW2  13015   0.728   0.752   5.436
 3254WAT  MW   13016   0.784   0.789   5.381
 3255WAT  OW   13017   4.810   4.353   4.655
 3255WAT  HW1  13018   4.819   4.408   4.733
 3255WAT  HW2  13019   4.840   4.266   4.683
 3255WAT  MW   13020   4.816   4.349   4.669
 3256WAT  OW   13021   3.608   6.271   3.155
 3256WAT  HW1  13022   3.560   6.195   3.122
 3256WAT  HW2  13023   3.697   6.260   3.121
 3256WAT  MW   13024   3.613   6.259   3.146
 3257WAT  OW   13025   3.999   1.843   3.495
 3257WAT  HW1  13026   3.954   1.762   3.471
 3257WAT  HW2  13027   3.928   1.903   3.519
 3257WAT  MW   13028   3.984   1.840   3.495
 3258WAT  OW   13029   5.855   5.715   3.188
 3258WAT  HW1  13030   5.762   5.700   3.171
 3258WAT  HW2  13031   5.877   5.654   3.259
 3258WAT  MW   13032   5.846   5.705   3.195
 3259WAT  OW   13033   3.144   0.660   1.860
 3259WAT  HW1  13034   3.141   0.637   1.767
 3259WAT  HW2  13035   3.233   0.693   1.873
 3259WAT  MW   13036   3.155   0.662   1.850
 3260WAT  OW   13037   2.261   3.231   0.297
 3260WAT  HW1  13038   2.190   3.237   0.361
 3260WAT  HW2  13039   2.277   3.137   0.288
 3260WAT  MW   13040   2.253   3.220   0.304
 3261WAT  OW   13041   0.352   1.378   1.814
 3261WAT  HW1  13042   0.268   1.384   1.768
 3261WAT  HW2  13043   0.328   1.375   1.907
 3261WAT  MW   13044   0.337   1.378   1.820
 3262WAT  OW   13045   4.570   5.086   2.901
 3262WAT  HW1  13046   4.539   5.162   2.950
 3262WAT  HW2  13047   4.567   5.114   2.809
 3262WAT  MW   13048   4.566   5.100   2.895
 3263WAT  OW   13049   6.137   6.632   5.385
 3263WAT  HW1  13050   6.127   6.596   5.297
 3263WAT  HW2  13051   6.227   6.664   5.388
 3263WAT  MW   13052   6.148   6.632   5.374
 3264WAT  OW   13053   4.131   4.306   0.052
 3264WAT  HW1  13054   4.135   4.363   0.129
 3264WAT  HW2  13055   4.056   4.339   0.002
 3264WAT  MW   13056   4.121   4.318   0.055
 3265WAT  OW   13057   0.777   0.938   0.391
 3265WAT  HW1  13058   0.854   0.974   0.434
 3265WAT  HW2  13059   0.801   0.937   0.298
 3265WAT  MW   13060   0.791   0.943   0.384
 3266WAT  OW   13061   5.561   3.256   0.063
 3266WAT  HW1  13062   5.541   3.178   0.011
 3266WAT  HW2  13063   5.493   3.258   0.131
 3266WAT  MW   13064   5.550   3.246   0.065
 3267WAT  OW   13065   0.295   5.025   2.992
 3267WAT  HW1  13066   0.271   4.979   3.072
 3267WAT  HW2  13067   0.351   4.963   2.945
 3267WAT  MW   13068   0.299   5.011   2.996
 3268WAT  OW   13069   1.690   5.131   6.511
 3268WAT  HW1  13070   1.712   5.039   6.494
 3268WAT  HW2  13071   1.774   5.175   6.520
 3268WAT  MW   13072   1.704   5.125   6.510
 3269WAT  OW   13073   0.021   4.826   0.902
 3269WAT  HW1  13074   0.047   4.863   0.817
 3269WAT  HW2  13075   0.062   4.883   0.967
 3269WAT  MW   13076   0.030   4.838   0.899
 3270WAT  OW   13077   3.067   1.368   3.757
 3270WAT  HW1  13078   3.093   1.277   3.743
 3270WAT  HW2  13079   3.129   1.419   3.704
 3270WAT  MW   13080   3.079   1.362   3.748
 3271WAT  OW   13081   5.784   5.058   0.097
 3271WAT  HW1  13082   5.698   5.097   0.113
 3271WAT  HW2  13083   5.845   5.132   0.097
 3271WAT  MW   13084   5.781   5.073   0.099
 3272WAT  OW   13085   4.494   1.204   6.346
 3272WAT  HW1  13086   4.414   1.152   6.340
 3272WAT  HW2  13087   4.564   1.143   6.325
 3272WAT  MW   13088   4.492   1.189   6.343
 3273WAT  OW   13089   3.886   0.548   5.511
 3273WAT  HW1  13090   3.833   0.480   5.552
 3273WAT  HW2  13091   3.939   0.584   5.583
 3273WAT  MW   13092   3.886   0.544   5.526
 3274WAT  OW   13093   6.519   5.500   6.098
 3274WAT  HW1  13094   6.609   5.504   6.064
 3274WAT  HW2  13095   6.528   5.522   6.191
 3274WAT  MW   13096   6.532   5.504   6.106
 3275WAT  OW   13097   4.489   4.352   5.066
 3275WAT  HW1  13098   4.470   4.267   5.104
 3275WAT  HW2  13099   4.489   4.337   4.971
 3275WAT  MW   13100   4.487   4.339   5.058
 3276WAT  OW   13101   1.358   6.327   2.444
 3276WAT  HW1  13102   1.357   6.309   2.538
 3276WAT  HW2  13103   1.412   6.406   2.435
 3276WAT  MW   13104   1.365   6.335   2.455
 3277WAT  OW   13105   2.215   4.402   0.010
 3277WAT  HW1  13106   2.124   4.432   0.015
 3277WAT  HW2  13107   2.267   4.482   0.020
 3277WAT  MW   13108   2.210   4.417   0.012
 3278WAT  OW   13109   2.223   6.384   0.409
 3278WAT  HW1  13110   2.148   6.371   0.351
 3278WAT  HW2  13111   2.185   6.387   0.497
 3278WAT  MW   13112   2.208   6.383   0.413
 3279WAT  OW   13113   3.924   4.179   3.665
 3279WAT  HW1  13114   3.889   4.105   3.614
 3279WAT  HW2  13115   3.938   4.142   3.752
 3279WAT  MW   13116   3.921   4.164   3.670
 3280WAT  OW   13117   3.363   0.840   4.713
 3280WAT  HW1  13118   3.335   0.931   4.727
 3280WAT  HW2  13119   3.459   0.845   4.710
 3280WAT  MW   13120   3.372   0.853   4.714
 3281WAT  OW   13121   4.763   4.235   3.411
 3281WAT  HW1  13122   4.760   4.252   3.505
 3281WAT  HW2  13123   4.856   4.219   3.392
 3281WAT  MW   13124   4.775   4.235   3.421
 3282WAT  OW   13125   3.289   4.516   0.006
 3282WAT  HW1  13126   3.337   4.437   0.030
 3282WAT  HW2  13127   3.197   4.491   0.009
 3282WAT  MW   13128   3.283   4.503   0.010
 3283WAT  OW   13129   3.132   5.262   5.143
 3283WAT  HW1  13130   3.201   5.212   5.100
 3283WAT  HW2  13131   3.154   5.353   5.126
 3283WAT  MW   13132   3.144   5.267   5.135
 3284WAT  OW   13133   0.862   5.790   3.798
 3284WAT  HW1  13134   0.806   5.798   3.721
 3284WAT  HW2  13135   0.946   5.760   3.764
 3284WAT  MW   13136   0.865   5.787   3.784
 3285WAT  OW   13137   5.945   5.993   1.810
 3285WAT  HW1  13138   6.021   5.966   1.861
 3285WAT  HW2  13139   5.981   6.020   1.726
 3285WAT  MW   13140   5.960   5.993   1.806
 3286WAT  OW   13141   3.214   4.587   2.395
 3286WAT  HW1  13142   3.228   4.680   2.409
 3286WAT  HW2  13143   3.302   4.548   2.397
 3286WAT  MW   13144   3.227   4.594   2.397
 3287WAT  OW   13145   5.838   2.666   1.459
 3287WAT  HW1  13146   5.839   2.725   1.534
 3287WAT  HW2  13147   5.903   2.704   1.398
 3287WAT  MW   13148   5.847   2.679   1.461
 3288WAT  OW   13149   1.654   3.720   4.629
 3288WAT  HW1  13150   1.612   3.643   4.592
 3288WAT  HW2  13151   1.684   3.771   4.553
 3288WAT  MW   13152   1.653   3.717   4.614
 3289WAT  OW   13153   1.090   2.625   0.579
 3289WAT  HW1  13154   1.165   2.679   0.556
 3289WAT  HW2  13155   1.047   2.673   0.650
 3289WAT  MW   13156   1.094   2.639   0.586
 3290WAT  OW   13157   2.967   3.789   3.278
 3290WAT  HW1  13158   3.047   3.833   3.308
 3290WAT  HW2  13159   2.952   3.720   3.343
 3290WAT  MW   13160   2.975   3.785   3.290
 3291WAT  OW   13161   4.858   2.523   1.370
 3291WAT  HW1  13162   4.927   2.575   1.410
 3291WAT  HW2  13163   4.880   2.433   1.393
 3291WAT  MW   13164   4.870   2.518   1.378
 3292WAT  OW   13165   6.670   4.131   1.348
 3292WAT  HW1  13166   6.604   4.064   1.364
 3292WAT  HW2  13167   6.735   4.088   1.293
 3292WAT  MW   13168   6.670   4.117   1.343
 3293WAT  OW   13169   3.919   4.440   2.123
 3293WAT  HW1  13170   3.921   4.399   2.209
 3293WAT  HW2  13171   3.943   4.531   2.139
 3293WAT  MW   13172   3.922   4.446   2.136
 3294WAT  OW   13173   5.924   5.125   2.431
 3294WAT  HW1  13174   5.835   5.091   2.431
 3294WAT  HW2  13175   5.951   5.124   2.523
 3294WAT  MW   13176   5.916   5.120   2.443
 3295WAT  OW   13177   4.844   6.492   0.543
 3295WAT  HW1  13178   4.856   6.577   0.500
 3295WAT  HW2  13179   4.797   6.440   0.478
 3295WAT  MW   13180   4.839   6.497   0.529
 3296WAT  OW   13181   5.617   6.468   5.347
 3296WAT  HW1  13182   5.675   6.399   5.381
 3296WAT  HW2  13183   5.559   6.421   5.286
 3296WAT  MW   13184   5.617   6.452   5.343
 3297WAT  OW   13185   1.354   1.717   2.945
 3297WAT  HW1  13186   1.381   1.809   2.938
 3297WAT  HW2  13187   1.262   1.722   2.972
 3297WAT  MW   13188   1.345   1.730   2.947
 3298WAT  OW   13189   0.818   0.277   5.514
 3298WAT  HW1  13190   0.830   0.202   5.572
 3298WAT  HW2  13191   0.905   0.291   5.475
 3298WAT  MW   13192   0.831   0.269   5.516
 3299WAT  OW   13193   2.551   1.696   2.101
 3299WAT  HW1  13194   2.468   1.658   2.074
 3299WAT  HW2  13195   2.571   1.762   2.035
 3299WAT  MW   13196   2.543   1.700   2.089
 3300WAT  OW   13197   1.416   1.458   4.887
 3300WAT  HW1  13198   1.328   1.441   4.920
 3300WAT  HW2  13199   1.409   1.445   4.792
 3300WAT  MW   13200   1.404   1.454   4.879
 3301WAT  OW   13201   3.145   6.337   3.748
 3301WAT  HW1  13202   3.227   6.386   3.741
 3301WAT  HW2  13203   3.093   6.366   3.673
 3301WAT  MW   13204   3.149   6.347   3.737
 3302WAT  OW   13205   2.006   3.866   5.315
 3302WAT  HW1  13206   1.967   3.882   5.229
 3302WAT  HW2  13207   2.033   3.953   5.345
 3302WAT  MW   13208   2.004   3.880   5.307
 3303WAT  OW   13209   3.131   4.819   1.199
 3303WAT  HW1  13210   3.173   4.760   1.261
 3303WAT  HW2  13211   3.139   4.775   1.114
 3303WAT  MW   13212   3.138   4.806   1.196
 3304WAT  OW   13213   5.200   1.013   6.106
 3304WAT  HW1  13214   5.270   0.961   6.067
 3304WAT  HW2  13215   5.245   1.080   6.158
 3304WAT  MW   13216   5.215   1.015   6.108
 3305WAT  OW   13217   2.691   1.653   5.664
 3305WAT  HW1  13218   2.713   1.725   5.605
 3305WAT  HW2  13219   2.632   1.692   5.729
 3305WAT  MW   13220   2.686   1.667   5.665
 3306WAT  OW   13221   2.047   3.687   4.853
 3306WAT  HW1  13222   1.970   3.632   4.867
 3306WAT  HW2  13223   2.011   3.768   4.816
 3306WAT  MW   13224   2.032   3.691   4.850
 3307WAT  OW   13225   0.369   1.863   1.702
 3307WAT  HW1  13226   0.451   1.830   1.739
 3307WAT  HW2  13227   0.364   1.954   1.732
 3307WAT  MW   13228   0.379   1.871   1.711
 3308WAT  OW   13229   4.028   4.950   0.708
 3308WAT  HW1  13230   3.988   4.869   0.740
 3308WAT  HW2  13231   4.089   4.921   0.640
 3308WAT  MW   13232   4.030   4.935   0.703
 3309WAT  OW   13233   1.283   6.645   0.793
 3309WAT  HW1  13234   1.278   6.740   0.787
 3309WAT  HW2  13235   1.234   6.614   0.717
 3309WAT  MW   13236   1.276   6.653   0.782
 3310WAT  OW   13237   5.180   3.654   1.250
 3310WAT  HW1  13238   5.096   3.665   1.205
 3310WAT  HW2  13239   5.195   3.738   1.293
 3310WAT  MW   13240   5.170   3.666   1.250
 3311WAT  OW   13241   3.001   1.818   2.269
 3311WAT  HW1  13242   3.071   1.866   2.314
 3311WAT  HW2  13243   3.028   1.727   2.273
 3311WAT  MW   13244   3.014   1.813   2.275
 3312WAT  OW   13245   3.378   0.836   2.274
 3312WAT  HW1  13246   3.364   0.742   2.263
 3312WAT  HW2  13247   3.453   0.856   2.217
 3312WAT  MW   13248   3.386   0.827   2.265
 3313WAT  OW   13249   1.667   2.281   1.402
 3313WAT  HW1  13250   1.665   2.189   1.377
 3313WAT  HW2  13251   1.687   2.281   1.496
 3313WAT  MW   13252   1.670   2.269   1.411
 3314WAT  OW   13253   2.552   4.965   0.388
 3314WAT  HW1  13254   2.478   4.908   0.406
 3314WAT  HW2  13255   2.626   4.924   0.431
 3314WAT  MW   13256   2.552   4.952   0.396
 3315WAT  OW   13257   5.200   6.256   2.424
 3315WAT  HW1  13258   5.271   6.197   2.398
 3315WAT  HW2  13259   5.138   6.200   2.472
 3315WAT  MW   13260   5.201   6.241   2.427
 3316WAT  OW   13261   6.361   0.662   5.665
 3316WAT  HW1  13262   6.268   0.667   5.688
 3316WAT  HW2  13263   6.369   0.715   5.585
 3316WAT  MW   13264   6.350   0.669   5.657
 3317WAT  OW   13265   5.711   6.061   0.934
 3317WAT  HW1  13266   5.735   6.041   0.843
 3317WAT  HW2  13267   5.769   6.134   0.959
 3317WAT  MW   13268   5.722   6.068   0.925
 3318WAT  OW   13269   5.790   2.357   1.915
 3318WAT  HW1  13270   5.882   2.338   1.900
 3318WAT  HW2  13271   5.786   2.451   1.932
 3318WAT  MW   13272   5.802   2.367   1.915
 3319WAT  OW   13273   5.202   5.652   4.296
 3319WAT  HW1  13274   5.164   5.701   4.223
 3319WAT  HW2  13275   5.155   5.569   4.296
 3319WAT  MW   13276   5.191   5.648   4.286
 3320WAT  OW   13277   1.940   0.937   4.341
 3320WAT  HW1  13278   1.930   1.008   4.278
 3320WAT  HW2  13279   1.945   0.858   4.287
 3320WAT  MW   13280   1.940   0.936   4.326
 3321WAT  OW   13281   2.983   6.346   4.225
 3321WAT  HW1  13282   2.913   6.313   4.282
 3321WAT  HW2  13283   2.979   6.290   4.148
 3321WAT  MW   13284   2.973   6.334   4.222
 3322WAT  OW   13285   4.877   3.863   0.183
 3322WAT  HW1  13286   4.791   3.857   0.140
 3322WAT  HW2  13287   4.881   3.953   0.215
 3322WAT  MW   13288   4.866   3.874   0.182
 3323WAT  OW   13289   1.000   5.953   6.687
 3323WAT  HW1  13290   1.011   6.043   6.716
 3323WAT  HW2  13291   1.081   5.909   6.712
 3323WAT  MW   13292   1.012   5.959   6.694
 3324WAT  OW   13293   5.035   0.659   6.632
 3324WAT  HW1  13294   4.955   0.608   6.648
 3324WAT  HW2  13295   5.077   0.617   6.558
 3324WAT  MW   13296   5.030   0.647   6.624
 3325WAT  OW   13297   0.700   3.099   4.331
 3325WAT  HW1  13298   0.704   3.158   4.407
 3325WAT  HW2  13299   0.792   3.086   4.306
 3325WAT  MW   13300   0.713   3.105   4.338
 3326WAT  OW   13301   4.558   2.923   3.604
 3326WAT  HW1  13302   4.549   3.013   3.637
 3326WAT  HW2  13303   4.583   2.872   3.681
 3326WAT  MW   13304   4.560   2.928   3.619
 3327WAT  OW   13305   3.581   1.353   3.647
 3327WAT  HW1  13306   3.608   1.402   3.725
 3327WAT  HW2  13307   3.604   1.410   3.574
 3327WAT  MW   13308   3.588   1.367   3.648
 3328WAT  OW   13309   6.088   5.766   2.740
 3328WAT  HW1  13310   6.086   5.796   2.831
 3328WAT  HW2  13311   6.082   5.846   2.688
 3328WAT  MW   13312   6.087   5.781   2.745
 3329WAT  OW   13313   5.493   4.195   3.969
 3329WAT  HW1  13314   5.418   4.247   3.998
 3329WAT  HW2  13315   5.535   4.166   4.050
 3329WAT  MW   13316   5.488   4.198   3.983
 3330WAT  OW   13317   5.704   0.843   6.356
 3330WAT  HW1  13318   5.631   0.790   6.325
 3330WAT  HW2  13319   5.723   0.811   6.444
 3330WAT  MW   13320   5.697   0.832   6.363
 3331WAT  OW   13321   5.059   3.477   2.666
 3331WAT  HW1  13322   5.051   3.546   2.600
 3331WAT  HW2  13323   5.144   3.436   2.648
 3331WAT  MW   13324   5.069   3.481   2.655
 3332WAT  OW   13325   2.433   3.743   1.206
 3332WAT  HW1  13326   2.396   3.777   1.287
 3332WAT  HW2  13327   2.528   3.754   1.217
 3332WAT  MW   13328   2.441   3.749   1.218
 3333WAT  OW   13329   2.131   0.840   1.193
 3333WAT  HW1  13330   2.078   0.760   1.194
 3333WAT  HW2  13331   2.221   0.809   1.202
 3333WAT  MW   13332   2.136   0.825   1.194
 3334WAT  OW   13333   4.011   4.748   5.768
 3334WAT  HW1  13334   4.045   4.745   5.858
 3334WAT  HW2  13335   4.081   4.788   5.717
 3334WAT  MW   13336   4.025   4.753   5.773
 3335WAT  OW   13337   1.308   6.525   1.936
 3335WAT  HW1  13338   1.375   6.564   1.880
 3335WAT  HW2  13339   1.280   6.447   1.888
 3335WAT  MW   13340   1.313   6.520   1.922
 3336WAT  OW   13341   1.081   0.136   4.446
 3336WAT  HW1  13342   1.063   0.123   4.353
 3336WAT  HW2  13343   1.087   0.231   4.456
 3336WAT  MW   13344   1.079   0.147   4.435
 3337WAT  OW   13345   5.839   2.934   4.637
 3337WAT  HW1  13346   5.819   2.902   4.725
 3337WAT  HW2  13347   5.758   2.975   4.607
 3337WAT  MW   13348   5.825   2.935   4.644
 3338WAT  OW   13349   0.528   0.705   0.144
 3338WAT  HW1  13350   0.534   0.652   0.223
 3338WAT  HW2  13351   0.554   0.793   0.172
 3338WAT  MW   13352   0.532   0.710   0.158
 3339WAT  OW   13353   6.146   1.794   5.447
 3339WAT  HW1  13354   6.221   1.766   5.395
 3339WAT  HW2  13355   6.137   1.726   5.514
 3339WAT  MW   13356   6.155   1.781   5.449
 3340WAT  OW   13357   1.237   3.558   4.194
 3340WAT  HW1  13358   1.189   3.630   4.236
 3340WAT  HW2  13359   1.328   3.587   4.195
 3340WAT  MW   13360   1.243   3.572   4.200
 3341WAT  OW   13361   4.802   6.611   0.003
 3341WAT  HW1  13362   4.753   6.554  -0.057
 3341WAT  HW2  13363   4.802   6.562   0.086
 3341WAT  MW   13364   4.795   6.597   0.006
 3342WAT  OW   13365   5.414   1.319   2.179
 3342WAT  HW1  13366   5.400   1.414   2.180
 3342WAT  HW2  13367   5.402   1.292   2.270
 3342WAT  MW   13368   5.411   1.328   2.192
 3343WAT  OW   13369   0.965   0.114   6.178
 3343WAT  HW1  13370   0.906   0.154   6.242
 3343WAT  HW2  13371   0.908   0.058   6.125
 3343WAT  MW   13372   0.950   0.112   6.179
 3344WAT  OW   13373   3.729   2.330   3.612
 3344WAT  HW1  13374   3.648   2.327   3.664
 3344WAT  HW2  13375   3.771   2.412   3.637
 3344WAT  MW   13376   3.724   2.340   3.622
 3345WAT  OW   13377   3.771   4.931   5.729
 3345WAT  HW1  13378   3.801   4.847   5.692
 3345WAT  HW2  13379   3.685   4.911   5.766
 3345WAT  MW   13380   3.764   4.917   5.729
 3346WAT  OW   13381   2.296   1.772   4.218
 3346WAT  HW1  13382   2.342   1.693   4.187
 3346WAT  HW2  13383   2.325   1.783   4.308
 3346WAT  MW   13384   2.306   1.763   4.226
 3347WAT  OW   13385   1.879   4.241   1.765
 3347WAT  HW1  13386   1.925   4.255   1.849
 3347WAT  HW2  13387   1.788   4.262   1.785
 3347WAT  MW   13388   1.873   4.246   1.779
 3348WAT  OW   13389   5.045   2.882   5.158
 3348WAT  HW1  13390   5.005   2.844   5.237
 3348WAT  HW2  13391   4.978   2.873   5.090
 3348WAT  MW   13392   5.031   2.876   5.160
 3349WAT  OW   13393   0.173   3.973   1.235
 3349WAT  HW1  13394   0.192   4.020   1.153
 3349WAT  HW2  13395   0.104   3.911   1.212
 3349WAT  MW   13396   0.166   3.971   1.221
 3350WAT  OW   13397   4.927   6.065   1.290
 3350WAT  HW1  13398   4.968   5.990   1.247
 3350WAT  HW2  13399   4.997   6.104   1.342
 3350WAT  MW   13400   4.942   6.060   1.291
 3351WAT  OW   13401   2.322   1.114   1.663
 3351WAT  HW1  13402   2.260   1.079   1.599
 3351WAT  HW2  13403   2.309   1.209   1.661
 3351WAT  MW   13404   2.312   1.122   1.655
 3352WAT  OW   13405   3.653   0.604   0.848
 3352WAT  HW1  13406   3.572   0.569   0.885
 3352WAT  HW2  13407   3.626   0.684   0.803
 3352WAT  MW   13408   3.639   0.610   0.847
 3353WAT  OW   13409   0.394   5.571   0.970
 3353WAT  HW1  13410   0.395   5.593   0.877
 3353WAT  HW2  13411   0.483   5.588   1.000
 3353WAT  MW   13412   0.406   5.576   0.962
 3354WAT  OW   13413   3.696   3.875   3.709
 3354WAT  HW1  13414   3.664   3.962   3.688
 3354WAT  HW2  13415   3.627   3.835   3.762
 3354WAT  MW   13416   3.683   3.881   3.713
 3355WAT  OW   13417   1.785   1.206   4.320
 3355WAT  HW1  13418   1.749   1.229   4.406
 3355WAT  HW2  13419   1.854   1.271   4.305
 3355WAT  MW   13420   1.789   1.218   4.329
 3356WAT  OW   13421   3.824   1.717   3.745
 3356WAT  HW1  13422   3.909   1.681   3.717
 3356WAT  HW2  13423   3.790   1.762   3.668
 3356WAT  MW   13424   3.831   1.718   3.731
 3357WAT  OW   13425   6.520   4.111   4.576
 3357WAT  HW1  13426   6.470   4.129   4.655
 3357WAT  HW2  13427   6.599   4.065   4.606
 3357WAT  MW   13428   6.524   4.107   4.590
 3358WAT  OW   13429   6.581   3.901   1.787
 3358WAT  HW1  13430   6.569   3.948   1.870
 3358WAT  HW2  13431   6.631   3.823   1.811
 3358WAT  MW   13432   6.586   3.897   1.801
 3359WAT  OW   13433   4.698   0.435   1.964
 3359WAT  HW1  13434   4.641   0.443   1.887
 3359WAT  HW2  13435   4.678   0.513   2.016
 3359WAT  MW   13436   4.688   0.446   1.961
 3360WAT  OW   13437   1.174   0.823   3.116
 3360WAT  HW1  13438   1.089   0.791   3.147
 3360WAT  HW2  13439   1.164   0.829   3.021
 3360WAT  MW   13440   1.161   0.819   3.108
 3361WAT  OW   13441   1.108   5.592   5.109
 3361WAT  HW1  13442   1.096   5.497   5.104
 3361WAT  HW2  13443   1.191   5.608   5.064
 3361WAT  MW   13444   1.118   5.582   5.103
 3362WAT  OW   13445   2.140   3.342   0.535
 3362WAT  HW1  13446   2.048   3.321   0.523
 3362WAT  HW2  13447   2.150   3.430   0.499
 3362WAT  MW   13448   2.129   3.351   0.528
 3363WAT  OW   13449   5.289   3.344   2.612
 3363WAT  HW1  13450   5.316   3.426   2.570
 3363WAT  HW2  13451   5.272   3.284   2.540
 3363WAT  MW   13452   5.290   3.347   2.597
 3364WAT  OW   13453   2.814   0.256   4.993
 3364WAT  HW1  13454   2.815   0.316   4.919
 3364WAT  HW2  13455   2.896   0.273   5.040
 3364WAT  MW   13456   2.825   0.266   4.989
 3365WAT  OW   13457   1.687   5.478   2.971
 3365WAT  HW1  13458   1.628   5.411   2.937
 3365WAT  HW2  13459   1.633   5.529   3.032
 3365WAT  MW   13460   1.672   5.476   2.974
 3366WAT  OW   13461   0.595   2.713   4.432
 3366WAT  HW1  13462   0.687   2.690   4.426
 3366WAT  HW2  13463   0.586   2.790   4.375
 3366WAT  MW   13464   0.606   2.720   4.424
 3367WAT  OW   13465   0.326   5.446   3.593
 3367WAT  HW1  13466   0.264   5.518   3.585
 3367WAT  HW2  13467   0.274   5.368   3.576
 3367WAT  MW   13468   0.311   5.445   3.590
 3368WAT  OW   13469   5.421   1.536   3.360
 3368WAT  HW1  13470   5.480   1.485   3.416
 3368WAT  HW2  13471   5.462   1.532   3.273
 3368WAT  MW   13472   5.434   1.529   3.356
 3369WAT  OW   13473   2.475   0.146   0.836
 3369WAT  HW1  13474   2.502   0.055   0.823
 3369WAT  HW2  13475   2.406   0.160   0.771
 3369WAT  MW   13476   2.469   0.136   0.825
 3370WAT  OW   13477   6.615   2.646   1.527
 3370WAT  HW1  13478   6.622   2.609   1.614
 3370WAT  HW2  13479   6.657   2.582   1.470
 3370WAT  MW   13480   6.622   2.633   1.531
 3371WAT  OW   13481   3.747   2.809   2.950
 3371WAT  HW1  13482   3.781   2.735   2.899
 3371WAT  HW2  13483   3.661   2.827   2.912
 3371WAT  MW   13484   3.740   2.802   2.938
 3372WAT  OW   13485   6.601   1.336   4.862
 3372WAT  HW1  13486   6.633   1.246   4.875
 3372WAT  HW2  13487   6.548   1.331   4.783
 3372WAT  MW   13488   6.598   1.323   4.853
 3373WAT  OW   13489   3.355   4.063   2.457
 3373WAT  HW1  13490   3.310   4.134   2.410
 3373WAT  HW2  13491   3.330   4.074   2.548
 3373WAT  MW   13492   3.346   4.074   2.463
 3374WAT  OW   13493   1.850   3.222   2.863
 3374WAT  HW1  13494   1.834   3.313   2.888
 3374WAT  HW2  13495   1.828   3.172   2.941
 3374WAT  MW   13496   1.845   3.228   2.877
 3375WAT  OW   13497   0.001   1.581   6.341
 3375WAT  HW1  13498   0.038   1.493   6.351
 3375WAT  HW2  13499   0.048   1.619   6.267
 3375WAT  MW   13500   0.013   1.574   6.333
 3376WAT  OW   13501   1.092   5.148   1.750
 3376WAT  HW1  13502   1.047   5.226   1.784
 3376WAT  HW2  13503   1.090   5.159   1.655
 3376WAT  MW   13504   1.086   5.160   1.742
 3377WAT  OW   13505   4.457   1.099   5.663
 3377WAT  HW1  13506   4.552   1.084   5.663
 3377WAT  HW2  13507   4.445   1.178   5.715
 3377WAT  MW   13508   4.468   1.107   5.670
 3378WAT  OW   13509   3.654   2.885   0.016
 3378WAT  HW1  13510   3.564   2.895   0.047
 3378WAT  HW2  13511   3.652   2.921  -0.073
 3378WAT  MW   13512   3.642   2.891   0.008
 3379WAT  OW   13513   0.266   4.160   3.014
 3379WAT  HW1  13514   0.338   4.156   2.951
 3379WAT  HW2  13515   0.289   4.095   3.081
 3379WAT  MW   13516   0.278   4.151   3.015
 3380WAT  OW   13517   2.963   5.093   4.787
 3380WAT  HW1  13518   3.057   5.091   4.766
 3380WAT  HW2  13519   2.942   5.187   4.793
 3380WAT  MW   13520   2.973   5.105   4.785
 3381WAT  OW   13521   5.279   2.435   0.577
 3381WAT  HW1  13522   5.214   2.373   0.611
 3381WAT  HW2  13523   5.311   2.395   0.496
 3381WAT  MW   13524   5.275   2.422   0.571
 3382WAT  OW   13525   3.616   2.361   5.911
 3382WAT  HW1  13526   3.600   2.359   5.816
 3382WAT  HW2  13527   3.559   2.292   5.946
 3382WAT  MW   13528   3.606   2.352   5.903
 3383WAT  OW   13529   2.635   0.399   2.114
 3383WAT  HW1  13530   2.589   0.394   2.197
 3383WAT  HW2  13531   2.709   0.340   2.125
 3383WAT  MW   13532   2.639   0.391   2.126
 3384WAT  OW   13533   5.362   0.667   5.212
 3384WAT  HW1  13534   5.307   0.678   5.134
 3384WAT  HW2  13535   5.394   0.755   5.231
 3384WAT  MW   13536   5.359   0.680   5.204
 3385WAT  OW   13537   2.762   4.160   3.812
 3385WAT  HW1  13538   2.703   4.198   3.877
 3385WAT  HW2  13539   2.744   4.208   3.731
 3385WAT  MW   13540   2.752   4.171   3.810
 3386WAT  OW   13541   0.840   0.631   2.658
 3386WAT  HW1  13542   0.778   0.683   2.709
 3386WAT  HW2  13543   0.786   0.578   2.601
 3386WAT  MW   13544   0.825   0.631   2.657
 3387WAT  OW   13545   3.245   6.417   0.739
 3387WAT  HW1  13546   3.331   6.458   0.741
 3387WAT  HW2  13547   3.205   6.443   0.822
 3387WAT  MW   13548   3.251   6.426   0.750
 3388WAT  OW   13549   1.788   5.682   1.654
 3388WAT  HW1  13550   1.750   5.768   1.676
 3388WAT  HW2  13551   1.857   5.702   1.591
 3388WAT  MW   13552   1.792   5.696   1.649
 3389WAT  OW   13553   3.964   4.047   2.227
 3389WAT  HW1  13554   3.962   4.062   2.321
 3389WAT  HW2  13555   3.937   3.955   2.217
 3389WAT  MW   13556   3.960   4.037   2.238
 3390WAT  OW   13557   4.716   2.981   4.773
 3390WAT  HW1  13558   4.710   3.052   4.837
 3390WAT  HW2  13559   4.632   2.934   4.781
 3390WAT  MW   13560   4.704   2.984   4.782
 3391WAT  OW   13561   2.956   2.643   2.591
 3391WAT  HW1  13562   2.985   2.616   2.678
 3391WAT  HW2  13563   3.011   2.593   2.531
 3391WAT  MW   13564   2.967   2.633   2.595
 3392WAT  OW   13565   3.277   1.742   0.430
 3392WAT  HW1  13566   3.294   1.830   0.463
 3392WAT  HW2  13567   3.279   1.686   0.508
 3392WAT  MW   13568   3.280   1.747   0.445
 3393WAT  OW   13569   4.050   2.595   4.061
 3393WAT  HW1  13570   4.074   2.648   3.985
 3393WAT  HW2  13571   4.110   2.521   4.058
 3393WAT  MW   13572   4.061   2.592   4.051
 3394WAT  OW   13573   5.236   2.891   2.617
 3394WAT  HW1  13574   5.232   2.958   2.685
 3394WAT  HW2  13575   5.278   2.816   2.659
 3394WAT  MW   13576   5.241   2.890   2.631
 3395WAT  OW   13577   0.556   3.203   2.077
 3395WAT  HW1  13578   0.546   3.112   2.052
 3395WAT  HW2  13579   0.614   3.200   2.154
 3395WAT  MW   13580   0.563   3.191   2.084
 3396WAT  OW   13581   0.099   2.933   1.273
 3396WAT  HW1  13582   0.081   2.858   1.216
 3396WAT  HW2  13583   0.164   2.984   1.225
 3396WAT  MW   13584   0.105   2.930   1.259
 3397WAT  OW   13585   5.987   2.813   1.255
 3397WAT  HW1  13586   5.982   2.906   1.233
 3397WAT  HW2  13587   6.075   2.786   1.228
 3397WAT  MW   13588   5.998   2.822   1.248
 3398WAT  OW   13589   2.863   0.881   2.948
 3398WAT  HW1  13590   2.847   0.871   3.041
 3398WAT  HW2  13591   2.907   0.966   2.939
 3398WAT  MW   13592   2.867   0.890   2.959
 3399WAT  OW   13593   5.581   1.353   0.466
 3399WAT  HW1  13594   5.497   1.322   0.434
 3399WAT  HW2  13595   5.645   1.293   0.427
 3399WAT  MW   13596   5.579   1.341   0.457
 3400WAT  OW   13597   0.409   1.209   5.137
 3400WAT  HW1  13598   0.392   1.220   5.230
 3400WAT  HW2  13599   0.503   1.222   5.127
 3400WAT  MW   13600   0.419   1.212   5.148
 3401WAT  OW   13601   4.255   3.679   2.426
 3401WAT  HW1  13602   4.162   3.700   2.436
 3401WAT  HW2  13603   4.293   3.701   2.511
 3401WAT  MW   13604   4.248   3.684   2.439
 3402WAT  OW   13605   1.852   1.846   3.368
 3402WAT  HW1  13606   1.787   1.880   3.307
 3402WAT  HW2  13607   1.834   1.752   3.372
 3402WAT  MW   13608   1.841   1.838   3.361
 3403WAT  OW   13609   0.665   3.568   4.574
 3403WAT  HW1  13610   0.613   3.588   4.496
 3403WAT  HW2  13611   0.603   3.528   4.635
 3403WAT  MW   13612   0.650   3.565   4.571
 3404WAT  OW   13613   3.001   2.663   5.629
 3404WAT  HW1  13614   2.926   2.605   5.645
 3404WAT  HW2  13615   3.067   2.634   5.692
 3404WAT  MW   13616   3.000   2.651   5.640
 3405WAT  OW   13617   5.331   4.608   5.326
 3405WAT  HW1  13618   5.249   4.566   5.352
 3405WAT  HW2  13619   5.322   4.624   5.232
 3405WAT  MW   13620   5.319   4.604   5.317
 3406WAT  OW   13621   3.719   1.987   6.103
 3406WAT  HW1  13622   3.651   1.920   6.090
 3406WAT  HW2  13623   3.788   1.942   6.152
 3406WAT  MW   13624   3.719   1.972   6.108
 3407WAT  OW   13625   3.459   2.660   3.397
 3407WAT  HW1  13626   3.432   2.568   3.400
 3407WAT  HW2  13627   3.531   2.662   3.335
 3407WAT  MW   13628   3.465   2.648   3.389
 3408WAT  OW   13629   0.332   0.020   5.036
 3408WAT  HW1  13630   0.341   0.040   5.129
 3408WAT  HW2  13631   0.406  -0.037   5.016
 3408WAT  MW   13632   0.343   0.015   5.045
 3409WAT  OW   13633   1.842   3.794   4.000
 3409WAT  HW1  13634   1.818   3.886   3.987
 3409WAT  HW2  13635   1.900   3.774   3.926
 3409WAT  MW   13636   1.847   3.804   3.988
 3410WAT  OW   13637   3.508   3.872   2.318
 3410WAT  HW1  13638   3.581   3.933   2.308
 3410WAT  HW2  13639   3.434   3.926   2.343
 3410WAT  MW   13640   3.508   3.887   2.320
 3411WAT  OW   13641   0.491   0.785   4.382
 3411WAT  HW1  13642   0.423   0.800   4.449
 3411WAT  HW2  13643   0.573   0.810   4.425
 3411WAT  MW   13644   0.493   0.790   4.397
 3412WAT  OW   13645   2.543   1.014   0.875
 3412WAT  HW1  13646   2.548   1.011   0.971
 3412WAT  HW2  13647   2.483   0.943   0.852
 3412WAT  MW   13648   2.536   1.004   0.885
 3413WAT  OW   13649   6.015   1.183   5.316
 3413WAT  HW1  13650   6.033   1.152   5.227
 3413WAT  HW2  13651   6.096   1.226   5.343
 3413WAT  MW   13652   6.028   1.185   5.308
 3414WAT  OW   13653   3.266   6.407   1.396
 3414WAT  HW1  13654   3.173   6.424   1.412
 3414WAT  HW2  13655   3.272   6.312   1.383
 3414WAT  MW   13656   3.255   6.397   1.396
 3415WAT  OW   13657   1.892   6.040   3.113
 3415WAT  HW1  13658   1.835   5.968   3.085
 3415WAT  HW2  13659   1.939   6.066   3.033
 3415WAT  MW   13660   1.891   6.034   3.099
 3416WAT  OW   13661   1.228   6.241   3.908
 3416WAT  HW1  13662   1.223   6.227   4.003
 3416WAT  HW2  13663   1.312   6.285   3.895
 3416WAT  MW   13664   1.238   6.245   3.919
 3417WAT  OW   13665   4.083   6.401   3.490
 3417WAT  HW1  13666   4.004   6.362   3.528
 3417WAT  HW2  13667   4.115   6.336   3.428
 3417WAT  MW   13668   4.077   6.388   3.487
 3418WAT  OW   13669   0.629   3.614   6.602
 3418WAT  HW1  13670   0.604   3.700   6.634
 3418WAT  HW2  13671   0.564   3.593   6.535
 3418WAT  MW   13672   0.617   3.622   6.597
 3419WAT  OW   13673   1.845   1.274   1.993
 3419WAT  HW1  13674   1.751   1.282   1.972
 3419WAT  HW2  13675   1.869   1.186   1.964
 3419WAT  MW   13676   1.835   1.264   1.986
 3420WAT  OW   13677   5.996   3.945   1.271
 3420WAT  HW1  13678   5.926   3.957   1.336
 3420WAT  HW2  13679   6.015   3.852   1.274
 3420WAT  MW   13680   5.989   3.935   1.280
 3421WAT  OW   13681   4.535   1.937   0.655
 3421WAT  HW1  13682   4.590   1.986   0.594
 3421WAT  HW2  13683   4.554   1.977   0.740
 3421WAT  MW   13684   4.545   1.949   0.658
 3422WAT  OW   13685   6.272   2.730   5.068
 3422WAT  HW1  13686   6.196   2.775   5.105
 3422WAT  HW2  13687   6.260   2.736   4.973
 3422WAT  MW   13688   6.260   2.737   5.060
 3423WAT  OW   13689   1.438   4.945   6.246
 3423WAT  HW1  13690   1.356   4.951   6.296
 3423WAT  HW2  13691   1.506   4.946   6.313
 3423WAT  MW   13692   1.436   4.946   6.262
 3424WAT  OW   13693   0.981   6.395   5.178
 3424WAT  HW1  13694   1.054   6.334   5.188
 3424WAT  HW2  13695   1.004   6.447   5.101
 3424WAT  MW   13696   0.994   6.394   5.169
 3425WAT  OW   13697   5.561   6.152   5.168
 3425WAT  HW1  13698   5.485   6.211   5.163
 3425WAT  HW2  13699   5.608   6.168   5.087
 3425WAT  MW   13700   5.557   6.162   5.157
 3426WAT  OW   13701   0.168   2.939   1.757
 3426WAT  HW1  13702   0.248   2.968   1.712
 3426WAT  HW2  13703   0.114   2.900   1.688
 3426WAT  MW   13704   0.171   2.938   1.742
 3427WAT  OW   13705   2.880   0.988   4.110
 3427WAT  HW1  13706   2.820   0.956   4.042
 3427WAT  HW2  13707   2.959   1.014   4.062
 3427WAT  MW   13708   2.882   0.987   4.095
 3428WAT  OW   13709   1.032   1.117   5.984
 3428WAT  HW1  13710   1.028   1.208   5.954
 3428WAT  HW2  13711   1.082   1.072   5.916
 3428WAT  MW   13712   1.038   1.123   5.971
 3429WAT  OW   13713   3.465   3.808   3.837
 3429WAT  HW1  13714   3.488   3.890   3.880
 3429WAT  HW2  13715   3.473   3.741   3.905
 3429WAT  MW   13716   3.469   3.810   3.852
 3430WAT  OW   13717   3.542   6.595   0.360
 3430WAT  HW1  13718   3.582   6.523   0.409
 3430WAT  HW2  13719   3.615   6.656   0.344
 3430WAT  MW   13720   3.557   6.594   0.365
 3431WAT  OW   13721   2.060   4.072   1.940
 3431WAT  HW1  13722   2.091   4.161   1.928
 3431WAT  HW2  13723   1.984   4.080   1.998
 3431WAT  MW   13724   2.054   4.085   1.946
 3432WAT  OW   13725   1.911   0.696   4.595
 3432WAT  HW1  13726   1.983   0.746   4.634
 3432WAT  HW2  13727   1.840   0.704   4.658
 3432WAT  MW   13728   1.911   0.704   4.609
 3433WAT  OW   13729   6.637   4.512   6.281
 3433WAT  HW1  13730   6.637   4.586   6.221
 3433WAT  HW2  13731   6.724   4.513   6.320
 3433WAT  MW   13732   6.649   4.522   6.278
 3434WAT  OW   13733   4.122   5.755   2.562
 3434WAT  HW1  13734   4.177   5.682   2.590
 3434WAT  HW2  13735   4.050   5.756   2.624
 3434WAT  MW   13736   4.120   5.745   2.574
 3435WAT  OW   13737   1.086   6.493   4.551
 3435WAT  HW1  13738   1.023   6.565   4.543
 3435WAT  HW2  13739   1.031   6.414   4.551
 3435WAT  MW   13740   1.070   6.492   4.550
 3436WAT  OW   13741   4.473   2.169   0.050
 3436WAT  HW1  13742   4.435   2.165   0.137
 3436WAT  HW2  13743   4.524   2.250   0.050
 3436WAT  MW   13744   4.475   2.179   0.061
 3437WAT  OW   13745   0.749   5.920   1.410
 3437WAT  HW1  13746   0.821   5.868   1.443
 3437WAT  HW2  13747   0.769   6.010   1.437
 3437WAT  MW   13748   0.761   5.925   1.418
 3438WAT  OW   13749   2.174   4.802   3.444
 3438WAT  HW1  13750   2.091   4.793   3.396
 3438WAT  HW2  13751   2.223   4.723   3.422
 3438WAT  MW   13752   2.169   4.790   3.435
 3439WAT  OW   13753   5.224   0.510   1.901
 3439WAT  HW1  13754   5.129   0.517   1.891
 3439WAT  HW2  13755   5.236   0.436   1.960
 3439WAT  MW   13756   5.213   0.501   1.908
 3440WAT  OW   13757   3.036   6.286   1.971
 3440WAT  HW1  13758   2.979   6.236   2.030
 3440WAT  HW2  13759   3.007   6.262   1.883
 3440WAT  MW   13760   3.025   6.276   1.967
 3441WAT  OW   13761   2.004   4.199   5.278
 3441WAT  HW1  13762   2.041   4.283   5.305
 3441WAT  HW2  13763   1.911   4.205   5.300
 3441WAT  MW   13764   1.997   4.211   5.285
 3442WAT  OW   13765   0.825   6.559   5.529
 3442WAT  HW1  13766   0.749   6.509   5.500
 3442WAT  HW2  13767   0.896   6.494   5.534
 3442WAT  MW   13768   0.825   6.544   5.526
 3443WAT  OW   13769   0.754   0.837   4.491
 3443WAT  HW1  13770   0.776   0.754   4.535
 3443WAT  HW2  13771   0.751   0.901   4.562
 3443WAT  MW   13772   0.756   0.834   4.506
 3444WAT  OW   13773   0.332   0.429   2.122
 3444WAT  HW1  13774   0.302   0.518   2.140
 3444WAT  HW2  13775   0.372   0.435   2.035
 3444WAT  MW   13776   0.333   0.442   2.112
 3445WAT  OW   13777   2.407   6.389   2.388
 3445WAT  HW1  13778   2.376   6.341   2.465
 3445WAT  HW2  13779   2.327   6.428   2.351
 3445WAT  MW   13780   2.392   6.387   2.393
 3446WAT  OW   13781   5.772   1.521   2.036
 3446WAT  HW1  13782   5.690   1.554   2.001
 3446WAT  HW2  13783   5.755   1.505   2.129
 3446WAT  MW   13784   5.759   1.523   2.044
 3447WAT  OW   13785   3.636   5.001   2.675
 3447WAT  HW1  13786   3.570   4.938   2.701
 3447WAT  HW2  13787   3.711   4.948   2.646
 3447WAT  MW   13788   3.637   4.986   2.675
 3448WAT  OW   13789   5.739   5.497   5.361
 3448WAT  HW1  13790   5.683   5.570   5.388
 3448WAT  HW2  13791   5.680   5.436   5.317
 3448WAT  MW   13792   5.724   5.499   5.359
 3449WAT  OW   13793   4.893   6.610   4.688
 3449WAT  HW1  13794   4.803   6.587   4.665
 3449WAT  HW2  13795   4.890   6.704   4.704
 3449WAT  MW   13796   4.880   6.620   4.687
 3450WAT  OW   13797   0.537   3.845   6.681
 3450WAT  HW1  13798   0.459   3.838   6.626
 3450WAT  HW2  13799   0.507   3.827   6.769
 3450WAT  MW   13800   0.523   3.842   6.685
 3451WAT  OW   13801   5.991   0.543   1.629
 3451WAT  HW1  13802   5.969   0.455   1.598
 3451WAT  HW2  13803   5.943   0.553   1.711
 3451WAT  MW   13804   5.982   0.533   1.636
 3452WAT  OW   13805   3.588   4.620   3.284
 3452WAT  HW1  13806   3.537   4.634   3.204
 3452WAT  HW2  13807   3.524   4.592   3.349
 3452WAT  MW   13808   3.573   4.618   3.282
 3453WAT  OW   13809   0.901   1.483   5.349
 3453WAT  HW1  13810   0.821   1.532   5.366
 3453WAT  HW2  13811   0.912   1.487   5.254
 3453WAT  MW   13812   0.892   1.490   5.338
 3454WAT  OW   13813   3.892   0.788   1.196
 3454WAT  HW1  13814   3.848   0.769   1.279
 3454WAT  HW2  13815   3.858   0.874   1.171
 3454WAT  MW   13816   3.882   0.797   1.204
 3455WAT  OW   13817   4.494   4.997   0.612
 3455WAT  HW1  13818   4.426   4.987   0.679
 3455WAT  HW2  13819   4.527   5.086   0.624
 3455WAT  MW   13820   4.489   5.007   0.623
 3456WAT  OW   13821   0.313   2.351   1.937
 3456WAT  HW1  13822   0.367   2.419   1.976
 3456WAT  HW2  13823   0.331   2.273   1.990
 3456WAT  MW   13824   0.323   2.350   1.949
 3457WAT  OW   13825   2.165   1.493   2.348
 3457WAT  HW1  13826   2.082   1.539   2.340
 3457WAT  HW2  13827   2.143   1.408   2.386
 3457WAT  MW   13828   2.151   1.488   2.352
 3458WAT  OW   13829   0.842   2.742   5.959
 3458WAT  HW1  13830   0.915   2.801   5.977
 3458WAT  HW2  13831   0.803   2.726   6.045
 3458WAT  MW   13832   0.847   2.748   5.973
 3459WAT  OW   13833   0.584   1.809   1.243
 3459WAT  HW1  13834   0.514   1.758   1.202
 3459WAT  HW2  13835   0.565   1.900   1.220
 3459WAT  MW   13836   0.572   1.814   1.235
 3460WAT  OW   13837   3.779   4.282   4.897
 3460WAT  HW1  13838   3.838   4.213   4.926
 3460WAT  HW2  13839   3.750   4.254   4.810
 3460WAT  MW   13840   3.783   4.269   4.889
 3461WAT  OW   13841   2.809   3.314   5.430
 3461WAT  HW1  13842   2.837   3.388   5.485
 3461WAT  HW2  13843   2.722   3.339   5.400
 3461WAT  MW   13844   2.801   3.327   5.434
 3462WAT  OW   13845   6.674   2.993   6.555
 3462WAT  HW1  13846   6.761   2.989   6.595
 3462WAT  HW2  13847   6.614   2.973   6.627
 3462WAT  MW   13848   6.678   2.990   6.570
 3463WAT  OW   13849   3.944   6.256   2.443
 3463WAT  HW1  13850   3.979   6.197   2.376
 3463WAT  HW2  13851   4.004   6.331   2.443
 3463WAT  MW   13852   3.956   6.258   2.434
 3464WAT  OW   13853   4.810   5.792   4.645
 3464WAT  HW1  13854   4.752   5.717   4.662
 3464WAT  HW2  13855   4.832   5.825   4.732
 3464WAT  MW   13856   4.805   5.786   4.659
 3465WAT  OW   13857   2.693   1.174   2.120
 3465WAT  HW1  13858   2.606   1.154   2.155
 3465WAT  HW2  13859   2.708   1.108   2.053
 3465WAT  MW   13860   2.683   1.163   2.116
 3466WAT  OW   13861   3.259   4.179   3.511
 3466WAT  HW1  13862   3.230   4.095   3.475
 3466WAT  HW2  13863   3.347   4.161   3.545
 3466WAT  MW   13864   3.267   4.165   3.511
 3467WAT  OW   13865   5.084   2.437   0.194
 3467WAT  HW1  13866   5.041   2.403   0.272
 3467WAT  HW2  13867   5.133   2.514   0.224
 3467WAT  MW   13868   5.085   2.443   0.208
 3468WAT  OW   13869   4.382   6.529   4.235
 3468WAT  HW1  13870   4.302   6.556   4.190
 3468WAT  HW2  13871   4.357   6.524   4.327
 3468WAT  MW   13872   4.368   6.532   4.241
 3469WAT  OW   13873   2.065   5.772   2.388
 3469WAT  HW1  13874   2.088   5.858   2.423
 3469WAT  HW2  13875   2.055   5.716   2.466
 3469WAT  MW   13876   2.067   5.776   2.403
 3470WAT  OW   13877   3.072   1.600   4.428
 3470WAT  HW1  13878   3.134   1.659   4.471
 3470WAT  HW2  13879   3.046   1.539   4.498
 3470WAT  MW   13880   3.077   1.600   4.443
 3471WAT  OW   13881   5.611   5.860   2.647
 3471WAT  HW1  13882   5.640   5.780   2.604
 3471WAT  HW2  13883   5.516   5.860   2.636
 3471WAT  MW   13884   5.602   5.850   2.640
 3472WAT  OW   13885   0.087   2.983   5.848
 3472WAT  HW1  13886   0.052   3.063   5.808
 3472WAT  HW2  13887   0.029   2.965   5.922
 3472WAT  MW   13888   0.075   2.991   5.853
 3473WAT  OW   13889   1.697   0.330   3.868
 3473WAT  HW1  13890   1.777   0.340   3.815
 3473WAT  HW2  13891   1.710   0.249   3.916
 3473WAT  MW   13892   1.709   0.321   3.867
 3474WAT  OW   13893   0.100   0.112   1.610
 3474WAT  HW1  13894   0.097   0.201   1.645
 3474WAT  HW2  13895   0.130   0.122   1.520
 3474WAT  MW   13896   0.103   0.125   1.603
 3475WAT  OW   13897   2.587   0.360   1.755
 3475WAT  HW1  13898   2.538   0.381   1.835
 3475WAT  HW2  13899   2.637   0.281   1.778
 3475WAT  MW   13900   2.587   0.352   1.769
 3476WAT  OW   13901   3.261   6.101   2.409
 3476WAT  HW1  13902   3.332   6.138   2.461
 3476WAT  HW2  13903   3.306   6.045   2.345
 3476WAT  MW   13904   3.277   6.099   2.407
 3477WAT  OW   13905   6.009   1.063   6.097
 3477WAT  HW1  13906   5.957   1.143   6.084
 3477WAT  HW2  13907   5.980   1.030   6.182
 3477WAT  MW   13908   5.998   1.070   6.107
 3478WAT  OW   13909   4.349   4.719   5.502
 3478WAT  HW1  13910   4.327   4.674   5.584
 3478WAT  HW2  13911   4.442   4.740   5.510
 3478WAT  MW   13912   4.358   4.716   5.514
 3479WAT  OW   13913   6.484   3.146   6.157
 3479WAT  HW1  13914   6.572   3.183   6.152
 3479WAT  HW2  13915   6.446   3.161   6.070
 3479WAT  MW   13916   6.490   3.153   6.145
 3480WAT  OW   13917   5.036   1.590   1.005
 3480WAT  HW1  13918   4.991   1.508   0.985
 3480WAT  HW2  13919   5.123   1.562   1.035
 3480WAT  MW   13920   5.042   1.575   1.007
 3481WAT  OW   13921   6.228   1.073   6.402
 3481WAT  HW1  13922   6.144   1.029   6.391
 3481WAT  HW2  13923   6.251   1.057   6.494
 3481WAT  MW   13924   6.220   1.065   6.413
 3482WAT  OW   13925   0.269   5.377   3.850
 3482WAT  HW1  13926   0.317   5.445   3.898
 3482WAT  HW2  13927   0.292   5.393   3.758
 3482WAT  MW   13928   0.279   5.388   3.844
 3483WAT  OW   13929   3.606   6.450   3.353
 3483WAT  HW1  13930   3.612   6.363   3.313
 3483WAT  HW2  13931   3.677   6.452   3.417
 3483WAT  MW   13932   3.616   6.439   3.356
 3484WAT  OW   13933   4.067   6.437   0.069
 3484WAT  HW1  13934   4.032   6.513   0.115
 3484WAT  HW2  13935   4.104   6.382   0.138
 3484WAT  MW   13936   4.067   6.440   0.084
 3485WAT  OW   13937   4.193   4.210   3.681
 3485WAT  HW1  13938   4.099   4.194   3.670
 3485WAT  HW2  13939   4.232   4.123   3.687
 3485WAT  MW   13940   4.186   4.197   3.680
 3486WAT  OW   13941   1.810   1.767   0.445
 3486WAT  HW1  13942   1.755   1.730   0.514
 3486WAT  HW2  13943   1.880   1.812   0.491
 3486WAT  MW   13944   1.812   1.768   0.460
 3487WAT  OW   13945   4.292   3.750   6.540
 3487WAT  HW1  13946   4.332   3.771   6.455
 3487WAT  HW2  13947   4.363   3.709   6.590
 3487WAT  MW   13948   4.307   3.747   6.536
 3488WAT  OW   13949   4.771   5.179   5.211
 3488WAT  HW1  13950   4.729   5.237   5.275
 3488WAT  HW2  13951   4.775   5.231   5.131
 3488WAT  MW   13952   4.766   5.194   5.209
 3489WAT  OW   13953   0.038   0.382   4.563
 3489WAT  HW1  13954   0.087   0.458   4.532
 3489WAT  HW2  13955  -0.042   0.418   4.599
 3489WAT  MW   13956   0.034   0.397   4.564
 3490WAT  OW   13957   3.017   4.427   6.204
 3490WAT  HW1  13958   3.007   4.333   6.218
 3490WAT  HW2  13959   2.928   4.462   6.208
 3490WAT  MW   13960   3.004   4.419   6.207
 3491WAT  OW   13961   1.610   6.181   2.495
 3491WAT  HW1  13962   1.529   6.146   2.458
 3491WAT  HW2  13963   1.645   6.109   2.548
 3491WAT  MW   13964   1.604   6.167   2.497
 3492WAT  OW   13965   0.057   1.238   3.841
 3492WAT  HW1  13966   0.022   1.302   3.780
 3492WAT  HW2  13967   0.128   1.284   3.886
 3492WAT  MW   13968   0.062   1.253   3.839
 3493WAT  OW   13969   3.552   3.049   4.696
 3493WAT  HW1  13970   3.461   3.018   4.695
 3493WAT  HW2  13971   3.564   3.083   4.784
 3493WAT  MW   13972   3.541   3.049   4.707
 3494WAT  OW   13973   4.668   4.625   2.445
 3494WAT  HW1  13974   4.682   4.670   2.528
 3494WAT  HW2  13975   4.752   4.631   2.400
 3494WAT  MW   13976   4.681   4.632   2.450
 3495WAT  OW   13977   5.921   1.366   1.889
 3495WAT  HW1  13978   5.861   1.411   1.949
 3495WAT  HW2  13979   5.868   1.350   1.811
 3495WAT  MW   13980   5.906   1.370   1.887
 3496WAT  OW   13981   1.189   2.667   6.095
 3496WAT  HW1  13982   1.101   2.706   6.103
 3496WAT  HW2  13983   1.245   2.740   6.069
 3496WAT  MW   13984   1.185   2.682   6.092
 3497WAT  OW   13985   5.038   6.084   0.177
 3497WAT  HW1  13986   5.003   6.001   0.144
 3497WAT  HW2  13987   5.002   6.150   0.118
 3497WAT  MW   13988   5.029   6.082   0.165
 3498WAT  OW   13989   6.284   4.840   3.840
 3498WAT  HW1  13990   6.332   4.893   3.903
 3498WAT  HW2  13991   6.212   4.802   3.890
 3498WAT  MW   13992   6.281   4.842   3.855
 3499WAT  OW   13993   1.255   0.162   1.688
 3499WAT  HW1  13994   1.233   0.098   1.621
 3499WAT  HW2  13995   1.174   0.171   1.740
 3499WAT  MW   13996   1.241   0.155   1.686
 3500WAT  OW   13997   2.301   6.272   0.855
 3500WAT  HW1  13998   2.387   6.238   0.831
 3500WAT  HW2  13999   2.318   6.333   0.926
 3500WAT  MW   14000   2.314   6.275   0.861
 3501WAT  OW   14001   2.066   1.764   1.871
 3501WAT  HW1  14002   2.070   1.752   1.776
 3501WAT  HW2  14003   2.043   1.678   1.906
 3501WAT  MW   14004   2.063   1.751   1.863
 3502WAT  OW   14005   0.107   4.852   0.097
 3502WAT  HW1  14006   0.113   4.759   0.122
 3502WAT  HW2  14007   0.097   4.850   0.002
 3502WAT  MW   14008   0.107   4.839   0.087
 3503WAT  OW   14009   6.169   3.991   0.908
 3503WAT  HW1  14010   6.185   4.003   0.815
 3503WAT  HW2  14011   6.128   4.073   0.936
 3503WAT  MW   14012   6.166   4.003   0.900
 3504WAT  OW   14013   3.216   0.478   5.119
 3504WAT  HW1  14014   3.181   0.541   5.055
 3504WAT  HW2  14015   3.269   0.531   5.177
 3504WAT  MW   14016   3.218   0.493   5.118
 3505WAT  OW   14017   2.536   0.861   1.730
 3505WAT  HW1  14018   2.576   0.775   1.740
 3505WAT  HW2  14019   2.580   0.899   1.654
 3505WAT  MW   14020   2.547   0.855   1.721
 3506WAT  OW   14021   3.129   4.313   3.290
 3506WAT  HW1  14022   3.074   4.385   3.321
 3506WAT  HW2  14023   3.180   4.286   3.367
 3506WAT  MW   14024   3.129   4.319   3.304
 3507WAT  OW   14025   0.644   3.519   2.498
 3507WAT  HW1  14026   0.550   3.510   2.482
 3507WAT  HW2  14027   0.662   3.612   2.487
 3507WAT  MW   14028   0.634   3.530   2.494
 3508WAT  OW   14029   1.457   3.900   5.226
 3508WAT  HW1  14030   1.376   3.906   5.175
 3508WAT  HW2  14031   1.474   3.991   5.253
 3508WAT  MW   14032   1.448   3.913   5.223
 3509WAT  OW   14033   0.215   3.163   1.173
 3509WAT  HW1  14034   0.266   3.171   1.093
 3509WAT  HW2  14035   0.124   3.156   1.144
 3509WAT  MW   14036   0.209   3.163   1.159
 3510WAT  OW   14037   3.170   3.812   2.207
 3510WAT  HW1  14038   3.085   3.778   2.233
 3510WAT  HW2  14039   3.152   3.870   2.133
 3510WAT  MW   14040   3.157   3.815   2.201
 3511WAT  OW   14041   1.619   3.208   0.691
 3511WAT  HW1  14042   1.635   3.273   0.760
 3511WAT  HW2  14043   1.591   3.260   0.615
 3511WAT  MW   14044   1.617   3.223   0.690
 3512WAT  OW   14045   3.119   0.366   2.951
 3512WAT  HW1  14046   3.204   0.411   2.954
 3512WAT  HW2  14047   3.055   0.436   2.941
 3512WAT  MW   14048   3.122   0.381   2.950
 3513WAT  OW   14049   1.839   0.732   4.154
 3513WAT  HW1  14050   1.756   0.696   4.121
 3513WAT  HW2  14051   1.886   0.656   4.187
 3513WAT  MW   14052   1.834   0.717   4.154
 3514WAT  OW   14053   5.181   5.207   2.061
 3514WAT  HW1  14054   5.105   5.197   2.004
 3514WAT  HW2  14055   5.152   5.175   2.146
 3514WAT  MW   14056   5.167   5.202   2.064
 3515WAT  OW   14057   5.762   0.288   4.468
 3515WAT  HW1  14058   5.763   0.359   4.403
 3515WAT  HW2  14059   5.695   0.313   4.531
 3515WAT  MW   14060   5.754   0.301   4.467
 3516WAT  OW   14061   4.216   1.193   6.590
 3516WAT  HW1  14062   4.127   1.222   6.610
 3516WAT  HW2  14063   4.271   1.266   6.616
 3516WAT  MW   14064   4.211   1.206   6.596
 3517WAT  OW   14065   1.585   1.693   3.564
 3517WAT  HW1  14066   1.574   1.786   3.545
 3517WAT  HW2  14067   1.661   1.666   3.512
 3517WAT  MW   14068   1.594   1.702   3.555
 3518WAT  OW   14069   6.027   6.474   5.963
 3518WAT  HW1  14070   6.085   6.398   5.973
 3518WAT  HW2  14071   6.045   6.527   6.041
 3518WAT  MW   14072   6.037   6.471   5.975
 3519WAT  OW   14073   5.733   2.967   3.586
 3519WAT  HW1  14074   5.741   3.059   3.559
 3519WAT  HW2  14075   5.736   2.917   3.505
 3519WAT  MW   14076   5.735   2.973   3.572
 3520WAT  OW   14077   3.458   0.613   3.917
 3520WAT  HW1  14078   3.480   0.522   3.937
 3520WAT  HW2  14079   3.458   0.657   4.002
 3520WAT  MW   14080   3.461   0.606   3.931
 3521WAT  OW   14081   2.489   2.886   3.858
 3521WAT  HW1  14082   2.563   2.825   3.859
 3521WAT  HW2  14083   2.445   2.869   3.775
 3521WAT  MW   14084   2.493   2.876   3.847
 3522WAT  OW   14085   4.734   3.471   2.234
 3522WAT  HW1  14086   4.712   3.421   2.313
 3522WAT  HW2  14087   4.822   3.442   2.212
 3522WAT  MW   14088   4.743   3.461   2.242
 3523WAT  OW   14089   6.109   2.090   1.462
 3523WAT  HW1  14090   6.131   2.148   1.535
 3523WAT  HW2  14091   6.184   2.031   1.455
 3523WAT  MW   14092   6.122   2.090   1.471
 3524WAT  OW   14093   1.562   4.895   4.361
 3524WAT  HW1  14094   1.516   4.812   4.353
 3524WAT  HW2  14095   1.588   4.900   4.453
 3524WAT  MW   14096   1.560   4.885   4.372
 3525WAT  OW   14097   3.733   4.273   0.317
 3525WAT  HW1  14098   3.711   4.365   0.302
 3525WAT  HW2  14099   3.654   4.237   0.358
 3525WAT  MW   14100   3.719   4.281   0.321
 3526WAT  OW   14101   5.184   0.962   0.426
 3526WAT  HW1  14102   5.162   0.919   0.344
 3526WAT  HW2  14103   5.244   0.901   0.470
 3526WAT  MW   14104   5.189   0.948   0.421
 3527WAT  OW   14105   2.841   2.849   2.243
 3527WAT  HW1  14106   2.886   2.867   2.326
 3527WAT  HW2  14107   2.894   2.893   2.177
 3527WAT  MW   14108   2.854   2.857   2.245
 3528WAT  OW   14109   1.276   3.699   3.028
 3528WAT  HW1  14110   1.276   3.604   3.038
 3528WAT  HW2  14111   1.316   3.714   2.943
 3528WAT  MW   14112   1.281   3.688   3.018
 3529WAT  OW   14113   1.232   5.045   0.446
 3529WAT  HW1  14114   1.295   4.977   0.467
 3529WAT  HW2  14115   1.151   5.018   0.490
 3529WAT  MW   14116   1.229   5.033   0.454
 3530WAT  OW   14117   5.178   1.217   1.162
 3530WAT  HW1  14118   5.114   1.157   1.123
 3530WAT  HW2  14119   5.141   1.240   1.247
 3530WAT  MW   14120   5.165   1.212   1.168
 3531WAT  OW   14121   4.589   5.625   4.368
 3531WAT  HW1  14122   4.544   5.593   4.289
 3531WAT  HW2  14123   4.673   5.580   4.367
 3531WAT  MW   14124   4.594   5.615   4.357
 3532WAT  OW   14125   1.799   0.760   5.144
 3532WAT  HW1  14126   1.711   0.797   5.140
 3532WAT  HW2  14127   1.832   0.764   5.054
 3532WAT  MW   14128   1.792   0.765   5.132
 3533WAT  OW   14129   0.727   1.783   1.485
 3533WAT  HW1  14130   0.691   1.793   1.573
 3533WAT  HW2  14131   0.655   1.807   1.426
 3533WAT  MW   14132   0.713   1.788   1.489
 3534WAT  OW   14133   0.911   5.275   0.947
 3534WAT  HW1  14134   0.998   5.242   0.923
 3534WAT  HW2  14135   0.909   5.268   1.043
 3534WAT  MW   14136   0.922   5.269   0.957
 3535WAT  OW   14137   4.544   0.140   4.814
 3535WAT  HW1  14138   4.543   0.127   4.909
 3535WAT  HW2  14139   4.637   0.144   4.792
 3535WAT  MW   14140   4.556   0.139   4.824
 3536WAT  OW   14141   1.232   3.655   4.732
 3536WAT  HW1  14142   1.286   3.649   4.811
 3536WAT  HW2  14143   1.244   3.572   4.687
 3536WAT  MW   14144   1.240   3.643   4.737
 3537WAT  OW   14145   2.467   4.899   5.608
 3537WAT  HW1  14146   2.465   4.934   5.519
 3537WAT  HW2  14147   2.423   4.966   5.661
 3537WAT  MW   14148   2.461   4.913   5.603
 3538WAT  OW   14149   1.106   0.727   1.941
 3538WAT  HW1  14150   1.162   0.776   2.002
 3538WAT  HW2  14151   1.019   0.730   1.981
 3538WAT  MW   14152   1.102   0.734   1.955
 3539WAT  OW   14153   0.083   5.575   6.659
 3539WAT  HW1  14154   0.080   5.513   6.732
 3539WAT  HW2  14155   0.061   5.522   6.582
 3539WAT  MW   14156   0.080   5.559   6.658
 3540WAT  OW   14157   1.815   2.028   3.838
 3540WAT  HW1  14158   1.909   2.044   3.828
 3540WAT  HW2  14159   1.803   2.004   3.930
 3540WAT  MW   14160   1.826   2.027   3.849
 3541WAT  OW   14161   1.523   1.661   3.160
 3541WAT  HW1  14162   1.531   1.566   3.166
 3541WAT  HW2  14163   1.464   1.676   3.086
 3541WAT  MW   14164   1.517   1.651   3.151
 3542WAT  OW   14165   0.600   0.263   0.623
 3542WAT  HW1  14166   0.627   0.180   0.584
 3542WAT  HW2  14167   0.621   0.329   0.558
 3542WAT  MW   14168   0.606   0.261   0.610
 3543WAT  OW   14169   6.009   5.305   2.038
 3543WAT  HW1  14170   5.926   5.268   2.007
 3543WAT  HW2  14171   6.046   5.237   2.094
 3543WAT  MW   14172   6.003   5.291   2.041
 3544WAT  OW   14173   1.067   3.799   2.211
 3544WAT  HW1  14174   0.998   3.756   2.263
 3544WAT  HW2  14175   1.076   3.744   2.133
 3544WAT  MW   14176   1.059   3.786   2.208
 3545WAT  OW   14177   1.765   1.956   1.011
 3545WAT  HW1  14178   1.850   1.913   1.021
 3545WAT  HW2  14179   1.764   1.986   0.920
 3545WAT  MW   14180   1.776   1.954   1.000
 3546WAT  OW   14181   2.889   2.678   3.485
 3546WAT  HW1  14182   2.959   2.623   3.520
 3546WAT  HW2  14183   2.912   2.689   3.392
 3546WAT  MW   14184   2.901   2.672   3.477
 3547WAT  OW   14185   4.390   6.358   5.463
 3547WAT  HW1  14186   4.380   6.276   5.414
 3547WAT  HW2  14187   4.301   6.384   5.486
 3547WAT  MW   14188   4.377   6.351   5.460
 3548WAT  OW   14189   6.398   3.601   6.294
 3548WAT  HW1  14190   6.405   3.506   6.298
 3548WAT  HW2  14191   6.460   3.633   6.359
 3548WAT  MW   14192   6.407   3.593   6.303
 3549WAT  OW   14193   3.550   4.760   5.404
 3549WAT  HW1  14194   3.506   4.843   5.421
 3549WAT  HW2  14195   3.479   4.697   5.392
 3549WAT  MW   14196   3.535   4.762   5.405
 3550WAT  OW   14197   4.568   0.514   0.574
 3550WAT  HW1  14198   4.492   0.553   0.617
 3550WAT  HW2  14199   4.532   0.442   0.521
 3550WAT  MW   14200   4.553   0.509   0.573
 3551WAT  OW   14201   5.482   6.293   3.977
 3551WAT  HW1  14202   5.495   6.271   3.884
 3551WAT  HW2  14203   5.567   6.326   4.006
 3551WAT  MW   14204   5.495   6.294   3.968
 3552WAT  OW   14205   2.735   3.460   3.676
 3552WAT  HW1  14206   2.756   3.547   3.710
 3552WAT  HW2  14207   2.654   3.473   3.626
 3552WAT  MW   14208   2.727   3.473   3.673
 3553WAT  OW   14209   0.816   6.437   3.013
 3553WAT  HW1  14210   0.831   6.384   3.091
 3553WAT  HW2  14211   0.756   6.506   3.043
 3553WAT  MW   14212   0.810   6.439   3.028
 3554WAT  OW   14213   2.981   2.075   0.132
 3554WAT  HW1  14214   2.920   2.047   0.063
 3554WAT  HW2  14215   3.040   2.001   0.143
 3554WAT  MW   14216   2.981   2.062   0.124
 3555WAT  OW   14217   3.389   5.427   2.193
 3555WAT  HW1  14218   3.367   5.501   2.137
 3555WAT  HW2  14219   3.309   5.411   2.244
 3555WAT  MW   14220   3.376   5.434   2.192
 3556WAT  OW   14221   2.485   4.661   4.771
 3556WAT  HW1  14222   2.514   4.700   4.688
 3556WAT  HW2  14223   2.558   4.677   4.831
 3556WAT  MW   14224   2.498   4.669   4.768
 3557WAT  OW   14225   2.535   5.547   5.748
 3557WAT  HW1  14226   2.556   5.502   5.667
 3557WAT  HW2  14227   2.464   5.496   5.787
 3557WAT  MW   14228   2.528   5.535   5.743
 3558WAT  OW   14229   2.411   4.854   1.770
 3558WAT  HW1  14230   2.353   4.784   1.740
 3558WAT  HW2  14231   2.450   4.888   1.689
 3558WAT  MW   14232   2.408   4.849   1.755
 3559WAT  OW   14233   2.593   5.319   5.986
 3559WAT  HW1  14234   2.661   5.387   5.985
 3559WAT  HW2  14235   2.625   5.253   5.924
 3559WAT  MW   14236   2.606   5.319   5.978
 3560WAT  OW   14237   6.508   1.560   1.536
 3560WAT  HW1  14238   6.568   1.526   1.470
 3560WAT  HW2  14239   6.492   1.486   1.595
 3560WAT  MW   14240   6.514   1.545   1.535
 3561WAT  OW   14241   0.067   2.776   6.185
 3561WAT  HW1  14242   0.022   2.761   6.268
 3561WAT  HW2  14243   0.009   2.834   6.136
 3561WAT  MW   14244   0.053   2.781   6.189
 3562WAT  OW   14245   5.740   5.750   4.150
 3562WAT  HW1  14246   5.729   5.772   4.057
 3562WAT  HW2  14247   5.662   5.785   4.193
 3562WAT  MW   14248   5.729   5.757   4.143
 3563WAT  OW   14249   1.454   6.246   4.315
 3563WAT  HW1  14250   1.538   6.215   4.283
 3563WAT  HW2  14251   1.465   6.254   4.409
 3563WAT  MW   14252   1.466   6.243   4.323
 3564WAT  OW   14253   0.114   4.807   2.829
 3564WAT  HW1  14254   0.074   4.848   2.906
 3564WAT  HW2  14255   0.155   4.728   2.862
 3564WAT  MW   14256   0.114   4.802   2.844
 3565WAT  OW   14257   3.881   2.959   6.034
 3565WAT  HW1  14258   3.928   2.918   5.961
 3565WAT  HW2  14259   3.893   3.053   6.020
 3565WAT  MW   14260   3.889   2.966   6.022
 3566WAT  OW   14261   4.447   3.159   2.340
 3566WAT  HW1  14262   4.399   3.100   2.398
 3566WAT  HW2  14263   4.416   3.246   2.363
 3566WAT  MW   14264   4.436   3.163   2.350
 3567WAT  OW   14265   1.147   4.678   6.040
 3567WAT  HW1  14266   1.170   4.636   6.123
 3567WAT  HW2  14267   1.104   4.759   6.065
 3567WAT  MW   14268   1.144   4.683   6.055
 3568WAT  OW   14269   3.037   0.280   6.012
 3568WAT  HW1  14270   2.997   0.346   6.070
 3568WAT  HW2  14271   2.998   0.298   5.926
 3568WAT  MW   14272   3.026   0.291   6.008
 3569WAT  OW   14273   0.673   2.728   6.658
 3569WAT  HW1  14274   0.730   2.802   6.679
 3569WAT  HW2  14275   0.619   2.716   6.736
 3569WAT  MW   14276   0.673   2.736   6.671
 3570WAT  OW   14277   0.312   0.112   5.291
 3570WAT  HW1  14278   0.375   0.088   5.358
 3570WAT  HW2  14279   0.315   0.208   5.288
 3570WAT  MW   14280   0.320   0.122   5.299
 3571WAT  OW   14281   5.999   3.572   2.176
 3571WAT  HW1  14282   5.911   3.546   2.205
 3571WAT  HW2  14283   5.985   3.609   2.089
 3571WAT  MW   14284   5.985   3.573   2.169
 3572WAT  OW   14285   1.084   1.706   2.356
 3572WAT  HW1  14286   1.138   1.682   2.432
 3572WAT  HW2  14287   1.019   1.766   2.391
 3572WAT  MW   14288   1.083   1.710   2.371
 3573WAT  OW   14289   3.872   3.635   2.998
 3573WAT  HW1  14290   3.857   3.575   2.925
 3573WAT  HW2  14291   3.785   3.668   3.021
 3573WAT  MW   14292   3.859   3.631   2.992
 3574WAT  OW   14293   6.443   0.356   3.844
 3574WAT  HW1  14294   6.467   0.284   3.786
 3574WAT  HW2  14295   6.525   0.381   3.887
 3574WAT  MW   14296   6.457   0.350   3.842
 3575WAT  OW   14297   3.290   1.440   3.585
 3575WAT  HW1  14298   3.345   1.417   3.661
 3575WAT  HW2  14299   3.313   1.531   3.567
 3575WAT  MW   14300   3.301   1.449   3.593
 3576WAT  OW   14301   3.663   2.747   5.254
 3576WAT  HW1  14302   3.630   2.836   5.248
 3576WAT  HW2  14303   3.671   2.717   5.163
 3576WAT  MW   14304   3.660   2.754   5.241
 3577WAT  OW   14305   1.738   6.063   2.757
 3577WAT  HW1  14306   1.716   6.000   2.826
 3577WAT  HW2  14307   1.736   6.148   2.800
 3577WAT  MW   14308   1.735   6.066   2.772
 3578WAT  OW   14309   4.185   1.349   1.457
 3578WAT  HW1  14310   4.266   1.372   1.409
 3578WAT  HW2  14311   4.124   1.419   1.434
 3578WAT  MW   14312   4.188   1.362   1.447
 3579WAT  OW   14313   5.765   5.570   0.471
 3579WAT  HW1  14314   5.809   5.626   0.534
 3579WAT  HW2  14315   5.691   5.533   0.519
 3579WAT  MW   14316   5.761   5.572   0.485
 3580WAT  OW   14317   4.964   6.290   0.016
 3580WAT  HW1  14318   4.999   6.357  -0.042
 3580WAT  HW2  14319   4.878   6.269  -0.020
 3580WAT  MW   14320   4.957   6.296   0.004
 3581WAT  OW   14321   2.161   0.265   2.067
 3581WAT  HW1  14322   2.122   0.351   2.050
 3581WAT  HW2  14323   2.099   0.222   2.127
 3581WAT  MW   14324   2.147   0.271   2.073
 3582WAT  OW   14325   2.086   6.190   6.191
 3582WAT  HW1  14326   2.033   6.267   6.208
 3582WAT  HW2  14327   2.025   6.126   6.153
 3582WAT  MW   14328   2.071   6.192   6.188
 3583WAT  OW   14329   6.376   0.613   2.826
 3583WAT  HW1  14330   6.336   0.607   2.913
 3583WAT  HW2  14331   6.470   0.619   2.844
 3583WAT  MW   14332   6.383   0.613   2.840
 3584WAT  OW   14333   0.119   1.708   2.633
 3584WAT  HW1  14334   0.122   1.762   2.554
 3584WAT  HW2  14335   0.026   1.698   2.652
 3584WAT  MW   14336   0.107   1.714   2.625
 3585WAT  OW   14337   1.352   3.112   0.659
 3585WAT  HW1  14338   1.437   3.155   0.656
 3585WAT  HW2  14339   1.333   3.104   0.753
 3585WAT  MW   14340   1.361   3.116   0.671
 3586WAT  OW   14341   3.900   3.382   6.325
 3586WAT  HW1  14342   3.980   3.426   6.353
 3586WAT  HW2  14343   3.841   3.453   6.299
 3586WAT  MW   14344   3.903   3.397   6.325
 3587WAT  OW   14345   4.491   0.331   5.248
 3587WAT  HW1  14346   4.575   0.376   5.258
 3587WAT  HW2  14347   4.450   0.338   5.334
 3587WAT  MW   14348   4.497   0.338   5.260
 3588WAT  OW   14349   6.375   4.813   1.161
 3588WAT  HW1  14350   6.419   4.898   1.161
 3588WAT  HW2  14351   6.294   4.828   1.210
 3588WAT  MW   14352   6.370   4.826   1.168
 3589WAT  OW   14353   3.957   3.841   5.984
 3589WAT  HW1  14354   3.874   3.817   5.943
 3589WAT  HW2  14355   3.968   3.934   5.961
 3589WAT  MW   14356   3.947   3.850   5.975
 3590WAT  OW   14357   3.871   5.135   2.878
 3590WAT  HW1  14358   3.964   5.121   2.861
 3590WAT  HW2  14359   3.843   5.197   2.810
 3590WAT  MW   14360   3.880   5.141   2.866
 3591WAT  OW   14361   6.209   0.224   3.235
 3591WAT  HW1  14362   6.139   0.272   3.190
 3591WAT  HW2  14363   6.286   0.238   3.181
 3591WAT  MW   14364   6.210   0.232   3.222
 3592WAT  OW   14365   0.348   1.233   5.432
 3592WAT  HW1  14366   0.395   1.284   5.498
 3592WAT  HW2  14367   0.388   1.146   5.436
 3592WAT  MW   14368   0.360   1.229   5.441
 3593WAT  OW   14369   1.396   2.241   1.488
 3593WAT  HW1  14370   1.492   2.239   1.496
 3593WAT  HW2  14371   1.378   2.196   1.405
 3593WAT  MW   14372   1.407   2.235   1.478
 3594WAT  OW   14373   1.243   0.465   0.750
 3594WAT  HW1  14374   1.317   0.508   0.792
 3594WAT  HW2  14375   1.175   0.461   0.818
 3594WAT  MW   14376   1.244   0.470   0.764
 3595WAT  OW   14377   5.465   2.496   3.311
 3595WAT  HW1  14378   5.397   2.564   3.317
 3595WAT  HW2  14379   5.512   2.516   3.231
 3595WAT  MW   14380   5.462   2.508   3.302
 3596WAT  OW   14381   5.560   4.559   3.870
 3596WAT  HW1  14382   5.638   4.605   3.840
 3596WAT  HW2  14383   5.488   4.622   3.859
 3596WAT  MW   14384   5.561   4.573   3.864
 3597WAT  OW   14385   1.973   2.277   6.504
 3597WAT  HW1  14386   1.935   2.196   6.539
 3597WAT  HW2  14387   2.067   2.267   6.518
 3597WAT  MW   14388   1.980   2.265   6.510
 3598WAT  OW   14389   5.305   1.189   2.431
 3598WAT  HW1  14390   5.325   1.099   2.404
 3598WAT  HW2  14391   5.287   1.182   2.525
 3598WAT  MW   14392   5.306   1.176   2.440
 3599WAT  OW   14393   3.558   4.887   6.678
 3599WAT  HW1  14394   3.576   4.908   6.770
 3599WAT  HW2  14395   3.464   4.900   6.669
 3599WAT  MW   14396   3.548   4.891   6.689
 3600WAT  OW   14397   3.312   1.403   3.103
 3600WAT  HW1  14398   3.314   1.321   3.054
 3600WAT  HW2  14399   3.397   1.406   3.149
 3600WAT  MW   14400   3.324   1.393   3.103
 3601WAT  OW   14401   2.452   0.297   0.421
 3601WAT  HW1  14402   2.420   0.266   0.506
 3601WAT  HW2  14403   2.526   0.239   0.402
 3601WAT  MW   14404   2.457   0.285   0.430
 3602WAT  OW   14405   4.778   3.824   4.778
 3602WAT  HW1  14406   4.848   3.780   4.826
 3602WAT  HW2  14407   4.780   3.784   4.691
 3602WAT  MW   14408   4.787   3.813   4.773
 3603WAT  OW   14409   2.948   0.057   6.240
 3603WAT  HW1  14410   2.880   0.029   6.302
 3603WAT  HW2  14411   2.942  -0.006   6.169
 3603WAT  MW   14412   2.938   0.045   6.239
 3604WAT  OW   14413   3.087   4.428   4.781
 3604WAT  HW1  14414   3.123   4.466   4.701
 3604WAT  HW2  14415   3.164   4.412   4.837
 3604WAT  MW   14416   3.102   4.431   4.778
 3605WAT  OW   14417   3.382   3.540   3.545
 3605WAT  HW1  14418   3.329   3.484   3.601
 3605WAT  HW2  14419   3.410   3.483   3.473
 3605WAT  MW   14420   3.379   3.525   3.543
 3606WAT  OW   14421   5.825   1.703   4.959
 3606WAT  HW1  14422   5.867   1.768   5.014
 3606WAT  HW2  14423   5.779   1.754   4.893
 3606WAT  MW   14424   5.824   1.718   4.957
 3607WAT  OW   14425   6.513   2.129   3.450
 3607WAT  HW1  14426   6.434   2.082   3.479
 3607WAT  HW2  14427   6.573   2.061   3.422
 3607WAT  MW   14428   6.510   2.114   3.450
 3608WAT  OW   14429   4.545   4.002   4.296
 3608WAT  HW1  14430   4.549   3.979   4.203
 3608WAT  HW2  14431   4.559   3.919   4.342
 3608WAT  MW   14432   4.547   3.988   4.290
 3609WAT  OW   14433   4.578   1.616   3.901
 3609WAT  HW1  14434   4.606   1.681   3.966
 3609WAT  HW2  14435   4.587   1.532   3.946
 3609WAT  MW   14436   4.583   1.613   3.916
 3610WAT  OW   14437   5.285   2.675   3.392
 3610WAT  HW1  14438   5.200   2.644   3.362
 3610WAT  HW2  14439   5.302   2.626   3.473
 3610WAT  MW   14440   5.276   2.664   3.398
 3611WAT  OW   14441   4.510   0.111   5.088
 3611WAT  HW1  14442   4.502   0.197   5.130
 3611WAT  HW2  14443   4.428   0.066   5.109
 3611WAT  MW   14444   4.498   0.116   5.096
 3612WAT  OW   14445   2.798   4.881   0.505
 3612WAT  HW1  14446   2.853   4.945   0.460
 3612WAT  HW2  14447   2.841   4.797   0.490
 3612WAT  MW   14448   2.811   4.879   0.497
 3613WAT  OW   14449   4.391   5.937   5.649
 3613WAT  HW1  14450   4.450   5.937   5.573
 3613WAT  HW2  14451   4.309   5.900   5.616
 3613WAT  MW   14452   4.388   5.932   5.634
 3614WAT  OW   14453   2.121   5.579   4.560
 3614WAT  HW1  14454   2.205   5.534   4.555
 3614WAT  HW2  14455   2.114   5.605   4.652
 3614WAT  MW   14456   2.131   5.576   4.572
 3615WAT  OW   14457   5.661   5.423   2.943
 3615WAT  HW1  14458   5.748   5.384   2.950
 3615WAT  HW2  14459   5.642   5.457   3.031
 3615WAT  MW   14460   5.670   5.423   2.956
 3616WAT  OW   14461   5.202   4.371   0.587
 3616WAT  HW1  14462   5.138   4.441   0.572
 3616WAT  HW2  14463   5.182   4.305   0.520
 3616WAT  MW   14464   5.191   4.372   0.576
 3617WAT  OW   14465   2.871   3.391   3.184
 3617WAT  HW1  14466   2.858   3.359   3.273
 3617WAT  HW2  14467   2.805   3.459   3.173
 3617WAT  MW   14468   2.861   3.396   3.195
 3618WAT  OW   14469   4.874   6.232   4.768
 3618WAT  HW1  14470   4.923   6.178   4.831
 3618WAT  HW2  14471   4.830   6.298   4.822
 3618WAT  MW   14472   4.874   6.233   4.784
 3619WAT  OW   14473   4.082   3.544   1.766
 3619WAT  HW1  14474   4.082   3.622   1.820
 3619WAT  HW2  14475   4.037   3.570   1.685
 3619WAT  MW   14476   4.076   3.558   1.762
 3620WAT  OW   14477   4.026   4.386   5.928
 3620WAT  HW1  14478   3.960   4.413   5.864
 3620WAT  HW2  14479   4.010   4.292   5.941
 3620WAT  MW   14480   4.015   4.377   5.921
 3621WAT  OW   14481   5.988   5.791   3.635
 3621WAT  HW1  14482   5.978   5.827   3.547
 3621WAT  HW2  14483   6.077   5.815   3.661
 3621WAT  MW   14484   5.998   5.799   3.627
 3622WAT  OW   14485   5.343   0.633   6.551
 3622WAT  HW1  14486   5.313   0.577   6.480
 3622WAT  HW2  14487   5.393   0.703   6.508
 3622WAT  MW   14488   5.346   0.635   6.536
 3623WAT  OW   14489   0.160   3.536   3.719
 3623WAT  HW1  14490   0.101   3.467   3.688
 3623WAT  HW2  14491   0.234   3.533   3.658
 3623WAT  MW   14492   0.162   3.526   3.707
 3624WAT  OW   14493   6.196   0.017   4.820
 3624WAT  HW1  14494   6.163  -0.049   4.759
 3624WAT  HW2  14495   6.290   0.022   4.801
 3624WAT  MW   14496   6.204   0.009   4.809
 3625WAT  OW   14497   4.241   5.269   3.294
 3625WAT  HW1  14498   4.189   5.203   3.249
 3625WAT  HW2  14499   4.222   5.255   3.387
 3625WAT  MW   14500   4.231   5.258   3.300
 3626WAT  OW   14501   0.124   2.022   6.573
 3626WAT  HW1  14502   0.069   2.077   6.517
 3626WAT  HW2  14503   0.099   1.932   6.551
 3626WAT  MW   14504   0.113   2.017   6.563
 3627WAT  OW   14505   5.095   4.952   0.215
 3627WAT  HW1  14506   5.170   5.001   0.180
 3627WAT  HW2  14507   5.037   5.020   0.250
 3627WAT  MW   14508   5.097   4.968   0.215
 3628WAT  OW   14509   4.532   1.563   2.801
 3628WAT  HW1  14510   4.579   1.547   2.719
 3628WAT  HW2  14511   4.546   1.656   2.818
 3628WAT  MW   14512   4.540   1.573   2.792
 3629WAT  OW   14513   6.359   2.828   5.526
 3629WAT  HW1  14514   6.335   2.750   5.576
 3629WAT  HW2  14515   6.443   2.855   5.562
 3629WAT  MW   14516   6.367   2.821   5.537
 3630WAT  OW   14517   2.331   2.843   6.448
 3630WAT  HW1  14518   2.291   2.928   6.430
 3630WAT  HW2  14519   2.257   2.784   6.463
 3630WAT  MW   14520   2.316   2.846   6.448
 3631WAT  OW   14521   4.825   2.508   3.998
 3631WAT  HW1  14522   4.775   2.426   4.001
 3631WAT  HW2  14523   4.811   2.548   4.083
 3631WAT  MW   14524   4.817   2.503   4.010
 3632WAT  OW   14525   1.987   1.110   5.042
 3632WAT  HW1  14526   2.037   1.161   4.979
 3632WAT  HW2  14527   2.052   1.076   5.103
 3632WAT  MW   14528   2.002   1.112   5.041
 3633WAT  OW   14529   1.690   3.844   6.005
 3633WAT  HW1  14530   1.622   3.884   6.060
 3633WAT  HW2  14531   1.723   3.917   5.952
 3633WAT  MW   14532   1.685   3.859   6.006
 3634WAT  OW   14533   5.569   4.193   0.256
 3634WAT  HW1  14534   5.530   4.276   0.229
 3634WAT  HW2  14535   5.602   4.210   0.344
 3634WAT  MW   14536   5.568   4.206   0.264
 3635WAT  OW   14537   4.972   5.807   3.275
 3635WAT  HW1  14538   4.975   5.742   3.205
 3635WAT  HW2  14539   4.881   5.835   3.277
 3635WAT  MW   14540   4.960   5.802   3.266
 3636WAT  OW   14541   2.421   5.668   2.333
 3636WAT  HW1  14542   2.398   5.583   2.294
 3636WAT  HW2  14543   2.383   5.665   2.421
 3636WAT  MW   14544   2.413   5.656   2.339
 3637WAT  OW   14545   4.678   1.732   0.059
 3637WAT  HW1  14546   4.642   1.673   0.125
 3637WAT  HW2  14547   4.601   1.777   0.022
 3637WAT  MW   14548   4.663   1.730   0.063
 3638WAT  OW   14549   2.118   0.421   0.538
 3638WAT  HW1  14550   2.157   0.487   0.481
 3638WAT  HW2  14551   2.061   0.371   0.479
 3638WAT  MW   14552   2.115   0.423   0.522
 3639WAT  OW   14553   5.396   1.859   1.594
 3639WAT  HW1  14554   5.463   1.919   1.561
 3639WAT  HW2  14555   5.437   1.773   1.592
 3639WAT  MW   14556   5.410   1.856   1.589
 3640WAT  OW   14557   5.401   4.082   6.665
 3640WAT  HW1  14558   5.365   4.171   6.661
 3640WAT  HW2  14559   5.350   4.033   6.601
 3640WAT  MW   14560   5.389   4.087   6.656
 3641WAT  OW   14561   2.401   5.462   0.230
 3641WAT  HW1  14562   2.313   5.471   0.193
 3641WAT  HW2  14563   2.387   5.421   0.315
 3641WAT  MW   14564   2.388   5.458   0.236
 3642WAT  OW   14565   5.655   6.161   2.884
 3642WAT  HW1  14566   5.643   6.066   2.888
 3642WAT  HW2  14567   5.567   6.195   2.870
 3642WAT  MW   14568   5.642   6.153   2.883
 3643WAT  OW   14569   3.182   3.937   6.359
 3643WAT  HW1  14570   3.141   3.899   6.281
 3643WAT  HW2  14571   3.110   3.949   6.420
 3643WAT  MW   14572   3.167   3.934   6.357
 3644WAT  OW   14573   6.106   4.518   3.008
 3644WAT  HW1  14574   6.044   4.452   3.039
 3644WAT  HW2  14575   6.112   4.504   2.914
 3644WAT  MW   14576   6.099   4.508   3.000
 3645WAT  OW   14577   5.683   2.197   2.784
 3645WAT  HW1  14578   5.771   2.200   2.744
 3645WAT  HW2  14579   5.679   2.109   2.823
 3645WAT  MW   14580   5.694   2.186   2.784
 3646WAT  OW   14581   5.630   4.861   4.494
 3646WAT  HW1  14582   5.684   4.890   4.421
 3646WAT  HW2  14583   5.545   4.902   4.479
 3646WAT  MW   14584   5.626   4.870   4.482
 3647WAT  OW   14585   1.565   2.293   4.496
 3647WAT  HW1  14586   1.573   2.305   4.402
 3647WAT  HW2  14587   1.475   2.262   4.509
 3647WAT  MW   14588   1.554   2.290   4.485
 3648WAT  OW   14589   6.504   3.074   0.609
 3648WAT  HW1  14590   6.567   3.094   0.539
 3648WAT  HW2  14591   6.465   3.159   0.630
 3648WAT  MW   14592   6.508   3.088   0.602
 3649WAT  OW   14593   6.359   5.115   3.626
 3649WAT  HW1  14594   6.282   5.059   3.622
 3649WAT  HW2  14595   6.336   5.191   3.572
 3649WAT  MW   14596   6.346   5.118   3.618
 3650WAT  OW   14597   4.140   5.631   0.754
 3650WAT  HW1  14598   4.124   5.589   0.838
 3650WAT  HW2  14599   4.135   5.725   0.773
 3650WAT  MW   14600   4.137   5.638   0.768
 3651WAT  OW   14601   3.202   5.548   5.212
 3651WAT  HW1  14602   3.298   5.541   5.206
 3651WAT  HW2  14603   3.187   5.633   5.251
 3651WAT  MW   14604   3.213   5.558   5.216
 3652WAT  OW   14605   6.492   3.066   4.041
 3652WAT  HW1  14606   6.415   3.057   4.098
 3652WAT  HW2  14607   6.565   3.076   4.102
 3652WAT  MW   14608   6.491   3.066   4.057
 3653WAT  OW   14609   5.763   3.716   5.317
 3653WAT  HW1  14610   5.808   3.641   5.358
 3653WAT  HW2  14611   5.706   3.750   5.385
 3653WAT  MW   14612   5.762   3.710   5.331
 3654WAT  OW   14613   1.466   2.598   5.872
 3654WAT  HW1  14614   1.437   2.594   5.781
 3654WAT  HW2  14615   1.455   2.508   5.905
 3654WAT  MW   14616   1.460   2.585   5.865
 3655WAT  OW   14617   1.201   4.529   1.448
 3655WAT  HW1  14618   1.294   4.531   1.472
 3655WAT  HW2  14619   1.200   4.488   1.361
 3655WAT  MW   14620   1.214   4.524   1.440
 3656WAT  OW   14621   3.499   6.456   2.961
 3656WAT  HW1  14622   3.550   6.400   3.020
 3656WAT  HW2  14623   3.542   6.446   2.876
 3656WAT  MW   14624   3.512   6.447   2.957
 3657WAT  OW   14625   3.797   3.748   3.488
 3657WAT  HW1  14626   3.841   3.698   3.556
 3657WAT  HW2  14627   3.844   3.726   3.407
 3657WAT  MW   14628   3.809   3.738   3.486
 3658WAT  OW   14629   6.613   3.959   0.198
 3658WAT  HW1  14630   6.600   3.892   0.265
 3658WAT  HW2  14631   6.548   3.940   0.131
 3658WAT  MW   14632   6.602   3.948   0.198
 3659WAT  OW   14633   4.775   5.724   3.503
 3659WAT  HW1  14634   4.761   5.707   3.596
 3659WAT  HW2  14635   4.870   5.731   3.494
 3659WAT  MW   14636   4.786   5.723   3.514
 3660WAT  OW   14637   2.989   0.608   1.375
 3660WAT  HW1  14638   2.942   0.685   1.342
 3660WAT  HW2  14639   2.941   0.533   1.340
 3660WAT  MW   14640   2.976   0.608   1.366
 3661WAT  OW   14641   5.561   1.274   5.403
 3661WAT  HW1  14642   5.516   1.266   5.487
 3661WAT  HW2  14643   5.520   1.349   5.361
 3661WAT  MW   14644   5.549   1.283   5.409
 3662WAT  OW   14645   3.512   2.920   2.819
 3662WAT  HW1  14646   3.447   2.876   2.875
 3662WAT  HW2  14647   3.473   2.919   2.732
 3662WAT  MW   14648   3.498   2.914   2.815
 3663WAT  OW   14649   6.007   6.678   3.894
 3663WAT  HW1  14650   5.996   6.584   3.877
 3663WAT  HW2  14651   6.102   6.690   3.897
 3663WAT  MW   14652   6.018   6.667   3.892
 3664WAT  OW   14653   2.881   4.117   3.332
 3664WAT  HW1  14654   2.902   4.043   3.389
 3664WAT  HW2  14655   2.955   4.123   3.272
 3664WAT  MW   14656   2.894   4.108   3.332
 3665WAT  OW   14657   1.512   6.527   4.278
 3665WAT  HW1  14658   1.433   6.570   4.311
 3665WAT  HW2  14659   1.494   6.434   4.287
 3665WAT  MW   14660   1.499   6.520   4.283
 3666WAT  OW   14661   1.136   4.125   5.990
 3666WAT  HW1  14662   1.098   4.131   5.902
 3666WAT  HW2  14663   1.227   4.151   5.978
 3666WAT  MW   14664   1.143   4.129   5.976
 3667WAT  OW   14665   2.752   3.360   2.299
 3667WAT  HW1  14666   2.691   3.288   2.316
 3667WAT  HW2  14667   2.765   3.402   2.384
 3667WAT  MW   14668   2.746   3.356   2.312
 3668WAT  OW   14669   4.340   3.120   0.609
 3668WAT  HW1  14670   4.311   3.100   0.520
 3668WAT  HW2  14671   4.409   3.055   0.627
 3668WAT  MW   14672   4.345   3.109   0.600
 3669WAT  OW   14673   1.073   5.749   3.359
 3669WAT  HW1  14674   0.988   5.745   3.315
 3669WAT  HW2  14675   1.052   5.747   3.452
 3669WAT  MW   14676   1.059   5.748   3.365
 3670WAT  OW   14677   1.705   0.798   2.163
 3670WAT  HW1  14678   1.772   0.859   2.195
 3670WAT  HW2  14679   1.642   0.793   2.234
 3670WAT  MW   14680   1.706   0.805   2.177
 3671WAT  OW   14681   2.957   3.383   2.792
 3671WAT  HW1  14682   2.915   3.466   2.812
 3671WAT  HW2  14683   3.051   3.402   2.798
 3671WAT  MW   14684   2.964   3.396   2.796
 3672WAT  OW   14685   5.607   3.944   2.190
 3672WAT  HW1  14686   5.595   3.933   2.096
 3672WAT  HW2  14687   5.563   3.868   2.228
 3672WAT  MW   14688   5.599   3.933   2.183
 3673WAT  OW   14689   1.845   3.338   4.503
 3673WAT  HW1  14690   1.779   3.405   4.482
 3673WAT  HW2  14691   1.928   3.379   4.481
 3673WAT  MW   14692   1.847   3.352   4.497
 3674WAT  OW   14693   0.560   5.893   3.953
 3674WAT  HW1  14694   0.625   5.827   3.977
 3674WAT  HW2  14695   0.483   5.842   3.927
 3674WAT  MW   14696   0.558   5.877   3.953
 3675WAT  OW   14697   2.177   4.380   6.080
 3675WAT  HW1  14698   2.222   4.401   6.162
 3675WAT  HW2  14699   2.213   4.441   6.016
 3675WAT  MW   14700   2.188   4.391   6.082
 3676WAT  OW   14701   5.868   5.991   3.803
 3676WAT  HW1  14702   5.832   6.051   3.738
 3676WAT  HW2  14703   5.910   5.921   3.753
 3676WAT  MW   14704   5.869   5.989   3.788
 3677WAT  OW   14705   2.826   5.755   1.992
 3677WAT  HW1  14706   2.751   5.752   2.052
 3677WAT  HW2  14707   2.887   5.815   2.034
 3677WAT  MW   14708   2.824   5.762   2.006
 3678WAT  OW   14709   0.246   2.318   0.746
 3678WAT  HW1  14710   0.224   2.319   0.840
 3678WAT  HW2  14711   0.308   2.390   0.736
 3678WAT  MW   14712   0.251   2.328   0.757
 3679WAT  OW   14713   2.915   0.764   6.498
 3679WAT  HW1  14714   2.825   0.786   6.524
 3679WAT  HW2  14715   2.905   0.690   6.437
 3679WAT  MW   14716   2.902   0.757   6.493
 3680WAT  OW   14717   3.521   1.499   5.669
 3680WAT  HW1  14718   3.449   1.500   5.605
 3680WAT  HW2  14719   3.578   1.571   5.641
 3680WAT  MW   14720   3.519   1.509   5.657
 3681WAT  OW   14721   4.464   1.282   1.797
 3681WAT  HW1  14722   4.550   1.272   1.755
 3681WAT  HW2  14723   4.447   1.376   1.796
 3681WAT  MW   14724   4.473   1.293   1.791
 3682WAT  OW   14725   2.602   4.618   5.498
 3682WAT  HW1  14726   2.549   4.635   5.576
 3682WAT  HW2  14727   2.690   4.647   5.522
 3682WAT  MW   14728   2.607   4.624   5.512
 3683WAT  OW   14729   4.963   2.275   4.186
 3683WAT  HW1  14730   4.967   2.283   4.281
 3683WAT  HW2  14731   5.052   2.294   4.156
 3683WAT  MW   14732   4.975   2.279   4.195
 3684WAT  OW   14733   5.761   5.527   1.883
 3684WAT  HW1  14734   5.844   5.545   1.928
 3684WAT  HW2  14735   5.751   5.432   1.890
 3684WAT  MW   14736   5.771   5.517   1.890
 3685WAT  OW   14737   1.614   0.198   6.036
 3685WAT  HW1  14738   1.541   0.253   6.063
 3685WAT  HW2  14739   1.575   0.111   6.024
 3685WAT  MW   14740   1.599   0.194   6.038
 3686WAT  OW   14741   5.289   3.416   4.894
 3686WAT  HW1  14742   5.341   3.373   4.825
 3686WAT  HW2  14743   5.353   3.441   4.960
 3686WAT  MW   14744   5.304   3.413   4.893
 3687WAT  OW   14745   4.780   1.073   4.564
 3687WAT  HW1  14746   4.853   1.125   4.532
 3687WAT  HW2  14747   4.793   0.986   4.525
 3687WAT  MW   14748   4.791   1.068   4.555
 3688WAT  OW   14749   2.192   2.811   5.923
 3688WAT  HW1  14750   2.205   2.745   5.855
 3688WAT  HW2  14751   2.279   2.824   5.960
 3688WAT  MW   14752   2.205   2.804   5.919
 3689WAT  OW   14753   3.065   5.386   0.305
 3689WAT  HW1  14754   3.055   5.464   0.359
 3689WAT  HW2  14755   2.984   5.337   0.317
 3689WAT  MW   14756   3.053   5.390   0.314
 3690WAT  OW   14757   2.012   4.072   6.464
 3690WAT  HW1  14758   1.959   4.135   6.416
 3690WAT  HW2  14759   1.949   4.021   6.514
 3690WAT  MW   14760   1.997   4.074   6.464
 3691WAT  OW   14761   1.492   6.056   2.175
 3691WAT  HW1  14762   1.479   6.017   2.262
 3691WAT  HW2  14763   1.433   6.131   2.174
 3691WAT  MW   14764   1.483   6.061   2.186
 3692WAT  OW   14765   2.842   6.025   3.924
 3692WAT  HW1  14766   2.837   6.056   3.833
 3692WAT  HW2  14767   2.886   5.941   3.918
 3692WAT  MW   14768   2.847   6.018   3.911
 3693WAT  OW   14769   4.624   6.410   0.133
 3693WAT  HW1  14770   4.603   6.317   0.125
 3693WAT  HW2  14771   4.540   6.451   0.154
 3693WAT  MW   14772   4.610   6.403   0.135
 3694WAT  OW   14773   3.387   5.658   3.036
 3694WAT  HW1  14774   3.344   5.661   2.950
 3694WAT  HW2  14775   3.376   5.567   3.064
 3694WAT  MW   14776   3.380   5.646   3.028
 3695WAT  OW   14777   5.131   1.837   0.393
 3695WAT  HW1  14778   5.221   1.817   0.420
 3695WAT  HW2  14779   5.110   1.768   0.330
 3695WAT  MW   14780   5.140   1.825   0.388
 3696WAT  OW   14781   2.529   3.290   1.738
 3696WAT  HW1  14782   2.450   3.282   1.792
 3696WAT  HW2  14783   2.520   3.223   1.671
 3696WAT  MW   14784   2.517   3.280   1.736
 3697WAT  OW   14785   3.686   4.211   1.034
 3697WAT  HW1  14786   3.770   4.169   1.017
 3697WAT  HW2  14787   3.665   4.187   1.125
 3697WAT  MW   14788   3.694   4.203   1.044
 3698WAT  OW   14789   3.904   5.483   5.328
 3698WAT  HW1  14790   3.995   5.459   5.310
 3698WAT  HW2  14791   3.910   5.553   5.392
 3698WAT  MW   14792   3.917   5.489   5.334
 3699WAT  OW   14793   2.319   3.224   3.962
 3699WAT  HW1  14794   2.340   3.218   4.055
 3699WAT  HW2  14795   2.223   3.227   3.959
 3699WAT  MW   14796   2.309   3.223   3.974
 3700WAT  OW   14797   5.226   2.864   2.992
 3700WAT  HW1  14798   5.164   2.802   3.030
 3700WAT  HW2  14799   5.173   2.922   2.939
 3700WAT  MW   14800   5.211   2.864   2.990
 3701WAT  OW   14801   4.928   0.525   4.615
 3701WAT  HW1  14802   4.980   0.603   4.636
 3701WAT  HW2  14803   4.905   0.489   4.701
 3701WAT  MW   14804   4.932   0.531   4.629
 3702WAT  OW   14805   3.546   0.588   3.654
 3702WAT  HW1  14806   3.503   0.568   3.738
 3702WAT  HW2  14807   3.483   0.643   3.608
 3702WAT  MW   14808   3.532   0.592   3.659
 3703WAT  OW   14809   5.813   2.790   5.807
 3703WAT  HW1  14810   5.749   2.723   5.781
 3703WAT  HW2  14811   5.766   2.843   5.872
 3703WAT  MW   14812   5.798   2.788   5.812
 3704WAT  OW   14813   5.531   4.621   6.677
 3704WAT  HW1  14814   5.494   4.688   6.734
 3704WAT  HW2  14815   5.526   4.658   6.589
 3704WAT  MW   14816   5.526   4.635   6.673
 3705WAT  OW   14817   5.608   1.496   5.704
 3705WAT  HW1  14818   5.576   1.411   5.674
 3705WAT  HW2  14819   5.531   1.554   5.697
 3705WAT  MW   14820   5.593   1.492   5.699
 3706WAT  OW   14821   4.183   1.081   2.729
 3706WAT  HW1  14822   4.099   1.087   2.684
 3706WAT  HW2  14823   4.218   1.170   2.728
 3706WAT  MW   14824   4.177   1.094   2.723
 3707WAT  OW   14825   4.395   3.474   1.826
 3707WAT  HW1  14826   4.410   3.488   1.920
 3707WAT  HW2  14827   4.302   3.490   1.814
 3707WAT  MW   14828   4.385   3.478   1.837
 3708WAT  OW   14829   0.180   2.954   0.514
 3708WAT  HW1  14830   0.146   2.966   0.602
 3708WAT  HW2  14831   0.134   3.019   0.461
 3708WAT  MW   14832   0.169   2.964   0.518
 3709WAT  OW   14833   3.090   6.368   4.559
 3709WAT  HW1  14834   2.995   6.354   4.562
 3709WAT  HW2  14835   3.121   6.342   4.646
 3709WAT  MW   14836   3.082   6.363   4.571
 3710WAT  OW   14837   3.390   3.164   5.865
 3710WAT  HW1  14838   3.428   3.127   5.945
 3710WAT  HW2  14839   3.320   3.221   5.895
 3710WAT  MW   14840   3.386   3.166   5.879
 3711WAT  OW   14841   2.253   1.857   0.780
 3711WAT  HW1  14842   2.260   1.950   0.759
 3711WAT  HW2  14843   2.165   1.847   0.817
 3711WAT  MW   14844   2.242   1.868   0.782
 3712WAT  OW   14845   0.890   5.342   1.815
 3712WAT  HW1  14846   0.898   5.418   1.758
 3712WAT  HW2  14847   0.807   5.300   1.789
 3712WAT  MW   14848   0.880   5.346   1.804
 3713WAT  OW   14849   2.747   5.907   5.543
 3713WAT  HW1  14850   2.684   5.848   5.501
 3713WAT  HW2  14851   2.824   5.853   5.557
 3713WAT  MW   14852   2.749   5.892   5.539
 3714WAT  OW   14853   3.053   5.947   2.553
 3714WAT  HW1  14854   2.973   5.997   2.540
 3714WAT  HW2  14855   3.117   5.989   2.495
 3714WAT  MW   14856   3.051   5.959   2.544
 3715WAT  OW   14857   4.175   1.729   6.124
 3715WAT  HW1  14858   4.127   1.646   6.126
 3715WAT  HW2  14859   4.189   1.746   6.031
 3715WAT  MW   14860   4.171   1.720   6.112
 3716WAT  OW   14861   1.865   4.846   0.169
 3716WAT  HW1  14862   1.814   4.766   0.154
 3716WAT  HW2  14863   1.907   4.831   0.254
 3716WAT  MW   14864   1.864   4.833   0.178
 3717WAT  OW   14865   0.572   3.335   4.218
 3717WAT  HW1  14866   0.508   3.319   4.149
 3717WAT  HW2  14867   0.610   3.248   4.236
 3717WAT  MW   14868   0.569   3.321   4.212
 3718WAT  OW   14869   1.623   3.605   5.498
 3718WAT  HW1  14870   1.594   3.528   5.547
 3718WAT  HW2  14871   1.544   3.659   5.489
 3718WAT  MW   14872   1.609   3.602   5.504
 3719WAT  OW   14873   3.931   2.440   4.482
 3719WAT  HW1  14874   4.026   2.434   4.487
 3719WAT  HW2  14875   3.903   2.464   4.570
 3719WAT  MW   14876   3.940   2.442   4.494
 3720WAT  OW   14877   0.734   3.636   3.631
 3720WAT  HW1  14878   0.717   3.605   3.720
 3720WAT  HW2  14879   0.703   3.727   3.631
 3720WAT  MW   14880   0.728   3.644   3.643
 3721WAT  OW   14881   5.993   5.483   2.643
 3721WAT  HW1  14882   6.068   5.537   2.618
 3721WAT  HW2  14883   5.942   5.473   2.563
 3721WAT  MW   14884   5.996   5.489   2.629
 3722WAT  OW   14885   0.819   4.910   6.499
 3722WAT  HW1  14886   0.742   4.895   6.554
 3722WAT  HW2  14887   0.847   4.999   6.520
 3722WAT  MW   14888   0.813   4.920   6.509
 3723WAT  OW   14889   0.911   3.770   5.206
 3723WAT  HW1  14890   0.880   3.704   5.143
 3723WAT  HW2  14891   0.940   3.719   5.281
 3723WAT  MW   14892   0.910   3.754   5.207
 3724WAT  OW   14893   2.904   5.760   6.074
 3724WAT  HW1  14894   2.881   5.831   6.014
 3724WAT  HW2  14895   2.999   5.749   6.064
 3724WAT  MW   14896   2.913   5.768   6.065
 3725WAT  OW   14897   0.711   3.874   0.797
 3725WAT  HW1  14898   0.762   3.834   0.728
 3725WAT  HW2  14899   0.621   3.848   0.779
 3725WAT  MW   14900   0.706   3.865   0.786
 3726WAT  OW   14901   2.517   4.967   0.131
 3726WAT  HW1  14902   2.537   4.957   0.224
 3726WAT  HW2  14903   2.577   4.907   0.087
 3726WAT  MW   14904   2.527   4.958   0.137
 3727WAT  OW   14905   0.195   2.036   4.296
 3727WAT  HW1  14906   0.247   1.957   4.281
 3727WAT  HW2  14907   0.193   2.046   4.391
 3727WAT  MW   14908   0.201   2.027   4.307
 3728WAT  OW   14909   2.102   2.681   2.536
 3728WAT  HW1  14910   2.070   2.763   2.573
 3728WAT  HW2  14911   2.052   2.613   2.582
 3728WAT  MW   14912   2.091   2.683   2.547
 3729WAT  OW   14913   1.237   1.599   5.897
 3729WAT  HW1  14914   1.196   1.682   5.873
 3729WAT  HW2  14915   1.175   1.532   5.866
 3729WAT  MW   14916   1.223   1.601   5.890
 3730WAT  OW   14917   5.009   0.713   1.320
 3730WAT  HW1  14918   5.090   0.741   1.278
 3730WAT  HW2  14919   5.001   0.620   1.297
 3730WAT  MW   14920   5.018   0.704   1.312
 3731WAT  OW   14921   6.338   6.518   5.723
 3731WAT  HW1  14922   6.401   6.590   5.722
 3731WAT  HW2  14923   6.366   6.461   5.650
 3731WAT  MW   14924   6.350   6.520   5.713
 3732WAT  OW   14925   3.656   1.966   6.550
 3732WAT  HW1  14926   3.675   2.044   6.498
 3732WAT  HW2  14927   3.590   1.919   6.500
 3732WAT  MW   14928   3.650   1.970   6.537
 3733WAT  OW   14929   3.186   5.646   5.642
 3733WAT  HW1  14930   3.227   5.732   5.636
 3733WAT  HW2  14931   3.092   5.663   5.635
 3733WAT  MW   14932   3.179   5.659   5.640
 3734WAT  OW   14933   3.377   0.812   1.839
 3734WAT  HW1  14934   3.452   0.754   1.829
 3734WAT  HW2  14935   3.409   0.884   1.893
 3734WAT  MW   14936   3.391   0.814   1.845
 3735WAT  OW   14937   5.075   3.681   2.449
 3735WAT  HW1  14938   5.114   3.759   2.489
 3735WAT  HW2  14939   4.989   3.709   2.419
 3735WAT  MW   14940   5.069   3.695   2.450
 3736WAT  OW   14941   3.917   3.753   5.366
 3736WAT  HW1  14942   3.823   3.768   5.358
 3736WAT  HW2  14943   3.933   3.741   5.459
 3736WAT  MW   14944   3.907   3.753   5.377
 3737WAT  OW   14945   0.841   5.748   5.930
 3737WAT  HW1  14946   0.826   5.654   5.936
 3737WAT  HW2  14947   0.755   5.787   5.946
 3737WAT  MW   14948   0.828   5.741   5.933
 3738WAT  OW   14949   6.185   2.888   0.404
 3738WAT  HW1  14950   6.122   2.827   0.364
 3738WAT  HW2  14951   6.144   2.974   0.394
 3738WAT  MW   14952   6.171   2.891   0.397
 3739WAT  OW   14953   6.621   4.717   2.329
 3739WAT  HW1  14954   6.541   4.685   2.370
 3739WAT  HW2  14955   6.690   4.661   2.364
 3739WAT  MW   14956   6.620   4.705   2.339
 3740WAT  OW   14957   3.616   5.904   0.558
 3740WAT  HW1  14958   3.558   5.915   0.482
 3740WAT  HW2  14959   3.584   5.968   0.622
 3740WAT  MW   14960   3.604   5.914   0.556
 3741WAT  OW   14961   5.479   4.822   5.747
 3741WAT  HW1  14962   5.453   4.909   5.715
 3741WAT  HW2  14963   5.574   4.820   5.737
 3741WAT  MW   14964   5.488   4.833   5.741
 3742WAT  OW   14965   0.936   2.730   4.498
 3742WAT  HW1  14966   0.969   2.791   4.431
 3742WAT  HW2  14967   0.925   2.647   4.451
 3742WAT  MW   14968   0.939   2.727   4.483
 3743WAT  OW   14969   3.028   2.996   3.179
 3743WAT  HW1  14970   3.020   3.090   3.165
 3743WAT  HW2  14971   2.938   2.963   3.171
 3743WAT  MW   14972   3.015   3.004   3.176
 3744WAT  OW   14973   6.008   6.105   1.568
 3744WAT  HW1  14974   5.935   6.150   1.525
 3744WAT  HW2  14975   6.084   6.125   1.515
 3744WAT  MW   14976   6.008   6.114   1.556
 3745WAT  OW   14977   1.780   2.649   2.481
 3745WAT  HW1  14978   1.824   2.688   2.557
 3745WAT  HW2  14979   1.843   2.586   2.446
 3745WAT  MW   14980   1.794   2.646   2.487
 3746WAT  OW   14981   1.561   5.178   0.480
 3746WAT  HW1  14982   1.492   5.143   0.423
 3746WAT  HW2  14983   1.541   5.271   0.486
 3746WAT  MW   14984   1.549   5.186   0.473
 3747WAT  OW   14985   1.621   1.083   2.682
 3747WAT  HW1  14986   1.578   1.020   2.740
 3747WAT  HW2  14987   1.598   1.168   2.719
 3747WAT  MW   14988   1.612   1.086   2.695
 3748WAT  OW   14989   1.120   4.955   4.185
 3748WAT  HW1  14990   1.184   5.008   4.137
 3748WAT  HW2  14991   1.112   4.999   4.270
 3748WAT  MW   14992   1.127   4.968   4.190
 3749WAT  OW   14993   0.245   3.883   2.824
 3749WAT  HW1  14994   0.199   3.967   2.815
 3749WAT  HW2  14995   0.175   3.819   2.832
 3749WAT  MW   14996   0.229   3.886   2.824
 3750WAT  OW   14997   1.531   6.669   3.593
 3750WAT  HW1  14998   1.552   6.731   3.523
 3750WAT  HW2  14999   1.510   6.725   3.668
 3750WAT  MW   15000   1.531   6.685   3.594
 3751WAT  OW   15001   2.140   1.852   5.554
 3751WAT  HW1  15002   2.216   1.795   5.566
 3751WAT  HW2  15003   2.108   1.869   5.643
 3751WAT  MW   15004   2.146   1.846   5.567
 3752WAT  OW   15005   3.140   1.213   1.399
 3752WAT  HW1  15006   3.097   1.128   1.410
 3752WAT  HW2  15007   3.202   1.217   1.472
 3752WAT  MW   15008   3.142   1.202   1.410
 3753WAT  OW   15009   3.721   1.600   5.408
 3753WAT  HW1  15010   3.666   1.679   5.404
 3753WAT  HW2  15011   3.695   1.549   5.331
 3753WAT  MW   15012   3.710   1.604   5.397
 3754WAT  OW   15013   1.771   5.178   5.516
 3754WAT  HW1  15014   1.704   5.182   5.583
 3754WAT  HW2  15015   1.723   5.165   5.434
 3754WAT  MW   15016   1.756   5.176   5.514
 3755WAT  OW   15017   1.125   3.685   0.067
 3755WAT  HW1  15018   1.064   3.701   0.139
 3755WAT  HW2  15019   1.211   3.693   0.107
 3755WAT  MW   15020   1.128   3.688   0.082
 3756WAT  OW   15021   4.218   1.816   5.493
 3756WAT  HW1  15022   4.271   1.770   5.559
 3756WAT  HW2  15023   4.277   1.882   5.458
 3756WAT  MW   15024   4.233   1.818   5.497
 3757WAT  OW   15025   0.920   5.931   2.425
 3757WAT  HW1  15026   1.005   5.970   2.448
 3757WAT  HW2  15027   0.943   5.854   2.374
 3757WAT  MW   15028   0.935   5.926   2.421
 3758WAT  OW   15029   4.761   5.994   3.290
 3758WAT  HW1  15030   4.683   5.953   3.253
 3758WAT  HW2  15031   4.761   6.082   3.253
 3758WAT  MW   15032   4.751   6.000   3.280
 3759WAT  OW   15033   5.973   1.122   2.608
 3759WAT  HW1  15034   6.007   1.068   2.537
 3759WAT  HW2  15035   5.880   1.100   2.612
 3759WAT  MW   15036   5.965   1.112   2.599
 3760WAT  OW   15037   4.407   6.199   1.861
 3760WAT  HW1  15038   4.483   6.151   1.828
 3760WAT  HW2  15039   4.442   6.283   1.890
 3760WAT  MW   15040   4.422   6.204   1.861
 3761WAT  OW   15041   3.399   3.674   4.237
 3761WAT  HW1  15042   3.350   3.754   4.217
 3761WAT  HW2  15043   3.348   3.632   4.307
 3761WAT  MW   15044   3.385   3.679   4.244
 3762WAT  OW   15045   3.290   4.681   0.217
 3762WAT  HW1  15046   3.298   4.626   0.139
 3762WAT  HW2  15047   3.231   4.632   0.275
 3762WAT  MW   15048   3.283   4.667   0.215
 3763WAT  OW   15049   5.802   2.681   2.471
 3763WAT  HW1  15050   5.777   2.614   2.408
 3763WAT  HW2  15051   5.876   2.644   2.518
 3763WAT  MW   15052   5.808   2.668   2.469
 3764WAT  OW   15053   5.048   4.251   3.388
 3764WAT  HW1  15054   5.039   4.331   3.336
 3764WAT  HW2  15055   5.060   4.282   3.478
 3764WAT  MW   15056   5.049   4.266   3.393
 3765WAT  OW   15057   2.552   6.564   6.441
 3765WAT  HW1  15058   2.557   6.617   6.520
 3765WAT  HW2  15059   2.471   6.515   6.449
 3765WAT  MW   15060   2.542   6.564   6.452
 3766WAT  OW   15061   6.266   5.936   0.367
 3766WAT  HW1  15062   6.348   5.979   0.342
 3766WAT  HW2  15063   6.270   5.930   0.462
 3766WAT  MW   15064   6.277   5.941   0.376
 3767WAT  OW   15065   6.352   3.986   1.659
 3767WAT  HW1  15066   6.366   4.071   1.700
 3767WAT  HW2  15067   6.426   3.932   1.689
 3767WAT  MW   15068   6.364   3.990   1.668
 3768WAT  OW   15069   0.391   3.555   6.461
 3768WAT  HW1  15070   0.409   3.568   6.368
 3768WAT  HW2  15071   0.328   3.483   6.463
 3768WAT  MW   15072   0.385   3.547   6.449
 3769WAT  OW   15073   5.143   1.566   3.085
 3769WAT  HW1  15074   5.198   1.644   3.083
 3769WAT  HW2  15075   5.204   1.493   3.088
 3769WAT  MW   15076   5.158   1.567   3.085
 3770WAT  OW   15077   4.770   3.518   2.937
 3770WAT  HW1  15078   4.736   3.526   2.847
 3770WAT  HW2  15079   4.849   3.571   2.937
 3770WAT  MW   15080   4.776   3.526   2.925
 3771WAT  OW   15081   2.916   4.637   4.467
 3771WAT  HW1  15082   2.861   4.712   4.445
 3771WAT  HW2  15083   2.854   4.567   4.488
 3771WAT  MW   15084   2.901   4.637   4.467
 3772WAT  OW   15085   5.874   3.927   0.775
 3772WAT  HW1  15086   5.802   3.931   0.839
 3772WAT  HW2  15087   5.953   3.941   0.827
 3772WAT  MW   15088   5.875   3.929   0.790
 3773WAT  OW   15089   3.478   1.800   6.353
 3773WAT  HW1  15090   3.406   1.747   6.387
 3773WAT  HW2  15091   3.442   1.888   6.347
 3773WAT  MW   15092   3.464   1.805   6.356
 3774WAT  OW   15093   2.988   2.055   1.413
 3774WAT  HW1  15094   3.016   2.147   1.411
 3774WAT  HW2  15095   3.026   2.021   1.493
 3774WAT  MW   15096   2.997   2.063   1.423
 3775WAT  OW   15097   3.445   5.179   2.106
 3775WAT  HW1  15098   3.433   5.185   2.011
 3775WAT  HW2  15099   3.422   5.265   2.139
 3775WAT  MW   15100   3.441   5.191   2.098
 3776WAT  OW   15101   4.498   2.054   6.291
 3776WAT  HW1  15102   4.571   1.996   6.311
 3776WAT  HW2  15103   4.515   2.133   6.341
 3776WAT  MW   15104   4.510   2.057   6.300
 3777WAT  OW   15105   0.271   4.575   2.144
 3777WAT  HW1  15106   0.324   4.630   2.087
 3777WAT  HW2  15107   0.295   4.485   2.120
 3777WAT  MW   15108   0.281   4.570   2.133
 3778WAT  OW   15109   2.897   0.388   1.232
 3778WAT  HW1  15110   2.906   0.332   1.309
 3778WAT  HW2  15111   2.828   0.347   1.180
 3778WAT  MW   15112   2.889   0.375   1.236
 3779WAT  OW   15113   4.257   5.579   6.323
 3779WAT  HW1  15114   4.167   5.590   6.354
 3779WAT  HW2  15115   4.280   5.490   6.347
 3779WAT  MW   15116   4.248   5.569   6.330
 3780WAT  OW   15117   5.076   0.148   1.401
 3780WAT  HW1  15118   5.024   0.206   1.457
 3780WAT  HW2  15119   5.103   0.077   1.459
 3780WAT  MW   15120   5.073   0.146   1.416
 3781WAT  OW   15121   6.498   5.902   1.267
 3781WAT  HW1  15122   6.410   5.865   1.267
 3781WAT  HW2  15123   6.543   5.858   1.194
 3781WAT  MW   15124   6.493   5.891   1.257
 3782WAT  OW   15125   5.648   0.111   3.160
 3782WAT  HW1  15126   5.597   0.184   3.195
 3782WAT  HW2  15127   5.643   0.121   3.065
 3782WAT  MW   15128   5.641   0.122   3.152
 3783WAT  OW   15129   1.893   1.067   1.660
 3783WAT  HW1  15130   1.819   1.008   1.653
 3783WAT  HW2  15131   1.855   1.153   1.677
 3783WAT  MW   15132   1.878   1.071   1.661
 3784WAT  OW   15133   6.185   3.237   6.459
 3784WAT  HW1  15134   6.112   3.176   6.472
 3784WAT  HW2  15135   6.188   3.289   6.539
 3784WAT  MW   15136   6.176   3.236   6.471
 3785WAT  OW   15137   3.392   0.535   6.234
 3785WAT  HW1  15138   3.321   0.544   6.171
 3785WAT  HW2  15139   3.349   0.518   6.318
 3785WAT  MW   15140   3.377   0.534   6.237
 3786WAT  OW   15141   0.006   3.238   5.989
 3786WAT  HW1  15142   0.035   3.304   6.051
 3786WAT  HW2  15143   0.078   3.175   5.984
 3786WAT  MW   15144   0.019   3.238   5.996
 3787WAT  OW   15145   1.893   0.561   2.734
 3787WAT  HW1  15146   1.801   0.586   2.740
 3787WAT  HW2  15147   1.926   0.569   2.824
 3787WAT  MW   15148   1.885   0.566   2.747
 3788WAT  OW   15149   5.741   5.103   3.911
 3788WAT  HW1  15150   5.691   5.042   3.857
 3788WAT  HW2  15151   5.704   5.189   3.892
 3788WAT  MW   15152   5.729   5.106   3.902
 3789WAT  OW   15153   2.886   2.561   4.347
 3789WAT  HW1  15154   2.816   2.627   4.352
 3789WAT  HW2  15155   2.963   2.610   4.319
 3789WAT  MW   15156   2.887   2.576   4.344
 3790WAT  OW   15157   1.488   4.820   6.588
 3790WAT  HW1  15158   1.497   4.736   6.544
 3790WAT  HW2  15159   1.571   4.865   6.573
 3790WAT  MW   15160   1.500   4.815   6.581
 3791WAT  OW   15161   4.213   2.377   4.223
 3791WAT  HW1  15162   4.204   2.283   4.211
 3791WAT  HW2  15163   4.184   2.393   4.312
 3791WAT  MW   15164   4.208   2.367   4.233
 3792WAT  OW   15165   4.039   0.576   3.020
 3792WAT  HW1  15166   3.984   0.654   3.026
 3792WAT  HW2  15167   4.101   0.596   2.950
 3792WAT  MW   15168   4.040   0.589   3.012
 3793WAT  OW   15169   4.765   4.663   0.898
 3793WAT  HW1  15170   4.721   4.578   0.902
 3793WAT  HW2  15171   4.853   4.644   0.867
 3793WAT  MW   15172   4.771   4.650   0.894
 3794WAT  OW   15173   2.655   5.909   0.485
 3794WAT  HW1  15174   2.565   5.913   0.517
 3794WAT  HW2  15175   2.679   6.000   0.467
 3794WAT  MW   15176   2.646   5.922   0.487
 3795WAT  OW   15177   4.740   0.560   5.564
 3795WAT  HW1  15178   4.650   0.526   5.568
 3795WAT  HW2  15179   4.761   0.582   5.654
 3795WAT  MW   15180   4.731   0.558   5.576
 3796WAT  OW   15181   1.780   5.123   5.030
 3796WAT  HW1  15182   1.838   5.052   5.055
 3796WAT  HW2  15183   1.716   5.128   5.101
 3796WAT  MW   15184   1.779   5.114   5.043
 3797WAT  OW   15185   6.644   3.900   5.071
 3797WAT  HW1  15186   6.621   3.876   5.161
 3797WAT  HW2  15187   6.722   3.850   5.052
 3797WAT  MW   15188   6.651   3.890   5.081
 3798WAT  OW   15189   5.228   5.725   1.323
 3798WAT  HW1  15190   5.164   5.775   1.273
 3798WAT  HW2  15191   5.179   5.651   1.358
 3798WAT  MW   15192   5.213   5.722   1.321
 3799WAT  OW   15193   2.615   5.239   0.068
 3799WAT  HW1  15194   2.674   5.226  -0.007
 3799WAT  HW2  15195   2.593   5.151   0.096
 3799WAT  MW   15196   2.620   5.226   0.061
 3800WAT  OW   15197   2.090   5.903   2.766
 3800WAT  HW1  15198   2.063   5.935   2.680
 3800WAT  HW2  15199   2.164   5.845   2.749
 3800WAT  MW   15200   2.096   5.900   2.753
 3801WAT  OW   15201   6.410   5.939   5.601
 3801WAT  HW1  15202   6.346   5.985   5.655
 3801WAT  HW2  15203   6.382   5.847   5.604
 3801WAT  MW   15204   6.398   5.933   5.609
 3802WAT  OW   15205   0.327   6.347   5.108
 3802WAT  HW1  15206   0.359   6.399   5.182
 3802WAT  HW2  15207   0.341   6.403   5.032
 3802WAT  MW   15208   0.333   6.361   5.108
 3803WAT  OW   15209   4.141   4.608   2.506
 3803WAT  HW1  15210   4.201   4.571   2.570
 3803WAT  HW2  15211   4.097   4.533   2.468
 3803WAT  MW   15212   4.143   4.594   2.509
 3804WAT  OW   15213   5.006   4.163   4.392
 3804WAT  HW1  15214   5.031   4.073   4.413
 3804WAT  HW2  15215   4.910   4.160   4.383
 3804WAT  MW   15216   4.996   4.151   4.394
 3805WAT  OW   15217   3.962   4.811   3.636
 3805WAT  HW1  15218   3.915   4.790   3.556
 3805WAT  HW2  15219   3.917   4.888   3.672
 3805WAT  MW   15220   3.950   4.819   3.631
 3806WAT  OW   15221   1.474   2.016   0.971
 3806WAT  HW1  15222   1.387   1.983   0.948
 3806WAT  HW2  15223   1.534   1.945   0.949
 3806WAT  MW   15224   1.471   2.002   0.965
 3807WAT  OW   15225   4.823   5.135   2.959
 3807WAT  HW1  15226   4.843   5.129   2.866
 3807WAT  HW2  15227   4.728   5.119   2.964
 3807WAT  MW   15228   4.813   5.132   2.947
 3808WAT  OW   15229   6.591   5.176   1.640
 3808WAT  HW1  15230   6.624   5.240   1.703
 3808WAT  HW2  15231   6.538   5.227   1.580
 3808WAT  MW   15232   6.588   5.191   1.641
 3809WAT  OW   15233   0.013   6.366   0.584
 3809WAT  HW1  15234   0.009   6.461   0.581
 3809WAT  HW2  15235   0.041   6.346   0.673
 3809WAT  MW   15236   0.016   6.376   0.595
 3810WAT  OW   15237   1.068   4.288   3.663
 3810WAT  HW1  15238   1.109   4.366   3.699
 3810WAT  HW2  15239   1.142   4.231   3.640
 3810WAT  MW   15240   1.083   4.291   3.665
 3811WAT  OW   15241   3.544   1.863   0.116
 3811WAT  HW1  15242   3.576   1.878   0.027
 3811WAT  HW2  15243   3.469   1.804   0.105
 3811WAT  MW   15244   3.538   1.857   0.103
 3812WAT  OW   15245   2.649   4.300   2.930
 3812WAT  HW1  15246   2.554   4.297   2.939
 3812WAT  HW2  15247   2.668   4.392   2.909
 3812WAT  MW   15248   2.639   4.312   2.929
 3813WAT  OW   15249   2.215   0.434   3.305
 3813WAT  HW1  15250   2.242   0.415   3.395
 3813WAT  HW2  15251   2.125   0.403   3.299
 3813WAT  MW   15252   2.206   0.428   3.316
 3814WAT  OW   15253   2.974   1.026   1.950
 3814WAT  HW1  15254   2.989   1.120   1.959
 3814WAT  HW2  15255   2.993   1.007   1.858
 3814WAT  MW   15256   2.978   1.036   1.939
 3815WAT  OW   15257   5.998   5.548   5.216
 3815WAT  HW1  15258   5.931   5.530   5.282
 3815WAT  HW2  15259   5.948   5.576   5.139
 3815WAT  MW   15260   5.982   5.549   5.214
 3816WAT  OW   15261   4.908   2.082   5.696
 3816WAT  HW1  15262   4.989   2.112   5.737
 3816WAT  HW2  15263   4.854   2.161   5.688
 3816WAT  MW   15264   4.911   2.096   5.701
 3817WAT  OW   15265   3.074   6.090   6.065
 3817WAT  HW1  15266   3.005   6.156   6.057
 3817WAT  HW2  15267   3.119   6.091   5.981
 3817WAT  MW   15268   3.071   6.099   6.053
 3818WAT  OW   15269   4.429   0.858   1.268
 3818WAT  HW1  15270   4.359   0.875   1.331
 3818WAT  HW2  15271   4.390   0.880   1.183
 3818WAT  MW   15272   4.415   0.863   1.265
 3819WAT  OW   15273   5.627   1.802   1.291
 3819WAT  HW1  15274   5.629   1.879   1.234
 3819WAT  HW2  15275   5.534   1.786   1.306
 3819WAT  MW   15276   5.615   1.810   1.285
 3820WAT  OW   15277   3.146   1.194   5.000
 3820WAT  HW1  15278   3.185   1.164   4.917
 3820WAT  HW2  15279   3.180   1.133   5.065
 3820WAT  MW   15280   3.156   1.182   4.998
 3821WAT  OW   15281   3.727   4.961   6.291
 3821WAT  HW1  15282   3.739   5.052   6.264
 3821WAT  HW2  15283   3.784   4.910   6.234
 3821WAT  MW   15284   3.736   4.966   6.280
 3822WAT  OW   15285   3.657   6.265   1.254
 3822WAT  HW1  15286   3.682   6.355   1.234
 3822WAT  HW2  15287   3.713   6.239   1.327
 3822WAT  MW   15288   3.667   6.273   1.261
 3823WAT  OW   15289   3.178   6.084   5.162
 3823WAT  HW1  15290   3.269   6.069   5.188
 3823WAT  HW2  15291   3.133   6.103   5.244
 3823WAT  MW   15292   3.184   6.084   5.176
 3824WAT  OW   15293   1.510   1.360   6.473
 3824WAT  HW1  15294   1.514   1.381   6.380
 3824WAT  HW2  15295   1.460   1.432   6.512
 3824WAT  MW   15296   1.504   1.372   6.466
 3825WAT  OW   15297   6.482   2.404   1.114
 3825WAT  HW1  15298   6.480   2.401   1.018
 3825WAT  HW2  15299   6.392   2.422   1.140
 3825WAT  MW   15300   6.470   2.406   1.105
 3826WAT  OW   15301   5.308   5.315   2.485
 3826WAT  HW1  15302   5.291   5.334   2.393
 3826WAT  HW2  15303   5.260   5.382   2.533
 3826WAT  MW   15304   5.299   5.326   2.479
 3827WAT  OW   15305   6.247   6.591   6.330
 3827WAT  HW1  15306   6.309   6.663   6.328
 3827WAT  HW2  15307   6.294   6.521   6.375
 3827WAT  MW   15308   6.262   6.591   6.336
 3828WAT  OW   15309   3.146   0.980   2.226
 3828WAT  HW1  15310   3.123   0.958   2.136
 3828WAT  HW2  15311   3.228   0.934   2.241
 3828WAT  MW   15312   3.153   0.971   2.216
 3829WAT  OW   15313   4.919   2.681   2.717
 3829WAT  HW1  15314   4.945   2.615   2.782
 3829WAT  HW2  15315   4.901   2.759   2.769
 3829WAT  MW   15316   4.920   2.683   2.733
 3830WAT  OW   15317   6.274   0.165   5.968
 3830WAT  HW1  15318   6.286   0.071   5.957
 3830WAT  HW2  15319   6.274   0.200   5.878
 3830WAT  MW   15320   6.275   0.158   5.954
 3831WAT  OW   15321   0.182   1.443   3.464
 3831WAT  HW1  15322   0.193   1.513   3.528
 3831WAT  HW2  15323   0.267   1.437   3.420
 3831WAT  MW   15324   0.195   1.451   3.467
 3832WAT  OW   15325   4.789   3.017   5.530
 3832WAT  HW1  15326   4.768   3.009   5.623
 3832WAT  HW2  15327   4.857   3.084   5.526
 3832WAT  MW   15328   4.795   3.025   5.542
 3833WAT  OW   15329   0.309   3.805   6.522
 3833WAT  HW1  15330   0.248   3.853   6.466
 3833WAT  HW2  15331   0.299   3.714   6.495
 3833WAT  MW   15332   0.299   3.799   6.511
 3834WAT  OW   15333   3.684   6.028   6.306
 3834WAT  HW1  15334   3.674   6.011   6.400
 3834WAT  HW2  15335   3.761   6.085   6.300
 3834WAT  MW   15336   3.693   6.033   6.318
 3835WAT  OW   15337   1.167   4.980   0.803
 3835WAT  HW1  15338   1.177   5.053   0.863
 3835WAT  HW2  15339   1.257   4.957   0.778
 3835WAT  MW   15340   1.180   4.986   0.808
 3836WAT  OW   15341   5.060   6.133   2.927
 3836WAT  HW1  15342   5.070   6.121   3.021
 3836WAT  HW2  15343   5.081   6.225   2.912
 3836WAT  MW   15344   5.064   6.143   2.937
 3837WAT  OW   15345   4.037   6.389   3.863
 3837WAT  HW1  15346   4.016   6.310   3.913
 3837WAT  HW2  15347   3.981   6.457   3.900
 3837WAT  MW   15348   4.027   6.388   3.874
 3838WAT  OW   15349   3.401   4.100   6.558
 3838WAT  HW1  15350   3.494   4.085   6.542
 3838WAT  HW2  15351   3.358   4.074   6.477
 3838WAT  MW   15352   3.408   4.094   6.546
 3839WAT  OW   15353   2.181   3.917   0.191
 3839WAT  HW1  15354   2.217   3.921   0.280
 3839WAT  HW2  15355   2.214   3.996   0.148
 3839WAT  MW   15356   2.190   3.928   0.197
 3840WAT  OW   15357   1.272   6.450   1.552
 3840WAT  HW1  15358   1.360   6.483   1.567
 3840WAT  HW2  15359   1.254   6.394   1.627
 3840WAT  MW   15360   1.281   6.447   1.564
 3841WAT  OW   15361   1.157   3.353   1.754
 3841WAT  HW1  15362   1.137   3.277   1.698
 3841WAT  HW2  15363   1.097   3.344   1.828
 3841WAT  MW   15364   1.146   3.342   1.756
 3842WAT  OW   15365   2.186   5.652   6.206
 3842WAT  HW1  15366   2.128   5.696   6.144
 3842WAT  HW2  15367   2.274   5.663   6.169
 3842WAT  MW   15368   2.190   5.659   6.193
 3843WAT  OW   15369   3.308   0.274   4.066
 3843WAT  HW1  15370   3.247   0.256   3.994
 3843WAT  HW2  15371   3.331   0.187   4.100
 3843WAT  MW   15372   3.303   0.260   4.061
 3844WAT  OW   15373   4.599   0.729   6.629
 3844WAT  HW1  15374   4.583   0.645   6.587
 3844WAT  HW2  15375   4.560   0.793   6.569
 3844WAT  MW   15376   4.591   0.726   6.616
 3845WAT  OW   15377   0.004   5.125   4.908
 3845WAT  HW1  15378   0.081   5.181   4.903
 3845WAT  HW2  15379  -0.000   5.083   4.822
 3845WAT  MW   15380   0.013   5.127   4.896
 3846WAT  OW   15381   4.162   1.574   2.166
 3846WAT  HW1  15382   4.187   1.490   2.203
 3846WAT  HW2  15383   4.067   1.578   2.176
 3846WAT  MW   15384   4.153   1.564   2.172
 3847WAT  OW   15385   5.526   3.757   6.286
 3847WAT  HW1  15386   5.494   3.847   6.272
 3847WAT  HW2  15387   5.616   3.759   6.252
 3847WAT  MW   15388   5.534   3.769   6.279
 3848WAT  OW   15389   1.747   3.062   0.246
 3848WAT  HW1  15390   1.658   3.089   0.226
 3848WAT  HW2  15391   1.796   3.144   0.254
 3848WAT  MW   15392   1.742   3.077   0.245
 3849WAT  OW   15393   5.518   5.443   6.034
 3849WAT  HW1  15394   5.434   5.486   6.050
 3849WAT  HW2  15395   5.539   5.466   5.944
 3849WAT  MW   15396   5.509   5.451   6.024
 3850WAT  OW   15397   2.454   1.378   5.635
 3850WAT  HW1  15398   2.380   1.321   5.655
 3850WAT  HW2  15399   2.503   1.332   5.568
 3850WAT  MW   15400   2.451   1.365   5.629
 3851WAT  OW   15401   0.506   2.529   2.048
 3851WAT  HW1  15402   0.554   2.468   2.103
 3851WAT  HW2  15403   0.573   2.579   2.003
 3851WAT  MW   15404   0.521   2.527   2.049
 3852WAT  OW   15405   1.623   3.408   0.888
 3852WAT  HW1  15406   1.626   3.382   0.980
 3852WAT  HW2  15407   1.696   3.470   0.879
 3852WAT  MW   15408   1.633   3.413   0.899
 3853WAT  OW   15409   5.605   0.468   2.501
 3853WAT  HW1  15410   5.651   0.533   2.448
 3853WAT  HW2  15411   5.675   0.412   2.536
 3853WAT  MW   15412   5.620   0.469   2.498
 3854WAT  OW   15413   2.592   4.311   3.344
 3854WAT  HW1  15414   2.568   4.353   3.426
 3854WAT  HW2  15415   2.631   4.381   3.291
 3854WAT  MW   15416   2.594   4.326   3.348
 3855WAT  OW   15417   0.386   5.643   5.603
 3855WAT  HW1  15418   0.407   5.578   5.670
 3855WAT  HW2  15419   0.377   5.593   5.522
 3855WAT  MW   15420   0.387   5.628   5.602
 3856WAT  OW   15421   0.658   2.836   6.409
 3856WAT  HW1  15422   0.672   2.778   6.334
 3856WAT  HW2  15423   0.663   2.778   6.485
 3856WAT  MW   15424   0.661   2.820   6.409
 3857WAT  OW   15425   1.649   6.265   0.940
 3857WAT  HW1  15426   1.588   6.191   0.936
 3857WAT  HW2  15427   1.598   6.340   0.910
 3857WAT  MW   15428   1.634   6.265   0.936
 3858WAT  OW   15429   4.830   3.710   2.290
 3858WAT  HW1  15430   4.822   3.620   2.257
 3858WAT  HW2  15431   4.747   3.727   2.334
 3858WAT  MW   15432   4.818   3.700   2.292
 3859WAT  OW   15433   5.088   5.118   1.143
 3859WAT  HW1  15434   4.995   5.137   1.150
 3859WAT  HW2  15435   5.130   5.203   1.136
 3859WAT  MW   15436   5.081   5.131   1.143
 3860WAT  OW   15437   1.855   1.545   0.749
 3860WAT  HW1  15438   1.892   1.512   0.667
 3860WAT  HW2  15439   1.867   1.474   0.812
 3860WAT  MW   15440   1.861   1.531   0.747
 3861WAT  OW   15441   1.958   3.685   3.369
 3861WAT  HW1  15442   1.977   3.602   3.413
 3861WAT  HW2  15443   2.019   3.747   3.409
 3861WAT  MW   15444   1.969   3.682   3.380
 3862WAT  OW   15445   3.791   5.517   0.414
 3862WAT  HW1  15446   3.811   5.593   0.469
 3862WAT  HW2  15447   3.767   5.448   0.476
 3862WAT  MW   15448   3.790   5.518   0.429
 3863WAT  OW   15449   2.191   5.715   3.612
 3863WAT  HW1  15450   2.207   5.676   3.698
 3863WAT  HW2  15451   2.130   5.655   3.569
 3863WAT  MW   15452   2.185   5.702   3.617
 3864WAT  OW   15453   0.636   1.625   5.027
 3864WAT  HW1  15454   0.696   1.655   4.959
 3864WAT  HW2  15455   0.551   1.619   4.984
 3864WAT  MW   15456   0.633   1.628   5.012
 3865WAT  OW   15457   0.189   6.070   5.428
 3865WAT  HW1  15458   0.252   6.011   5.469
 3865WAT  HW2  15459   0.104   6.038   5.458
 3865WAT  MW   15460   0.186   6.058   5.437
 3866WAT  OW   15461   0.634   2.643   2.451
 3866WAT  HW1  15462   0.628   2.613   2.542
 3866WAT  HW2  15463   0.715   2.694   2.449
 3866WAT  MW   15464   0.644   2.646   2.463
 3867WAT  OW   15465   0.697   5.074   0.352
 3867WAT  HW1  15466   0.698   5.056   0.446
 3867WAT  HW2  15467   0.611   5.043   0.323
 3867WAT  MW   15468   0.686   5.068   0.360
 3868WAT  OW   15469   6.420   3.212   0.065
 3868WAT  HW1  15470   6.387   3.123   0.073
 3868WAT  HW2  15471   6.396   3.254   0.147
 3868WAT  MW   15472   6.413   3.206   0.077
 3869WAT  OW   15473   3.187   3.881   3.432
 3869WAT  HW1  15474   3.199   3.822   3.507
 3869WAT  HW2  15475   3.258   3.857   3.372
 3869WAT  MW   15476   3.198   3.870   3.434
 3870WAT  OW   15477   3.024   2.945   5.624
 3870WAT  HW1  15478   3.077   2.959   5.702
 3870WAT  HW2  15479   3.021   2.850   5.615
 3870WAT  MW   15480   3.030   2.934   5.633
 3871WAT  OW   15481   6.599   3.479   0.636
 3871WAT  HW1  15482   6.673   3.433   0.597
 3871WAT  HW2  15483   6.607   3.569   0.603
 3871WAT  MW   15484   6.610   3.485   0.626
 3872WAT  OW   15485   5.062   1.571   5.727
 3872WAT  HW1  15486   5.008   1.650   5.725
 3872WAT  HW2  15487   5.055   1.538   5.816
 3872WAT  MW   15488   5.054   1.577   5.738
 3873WAT  OW   15489   4.436   4.587   4.553
 3873WAT  HW1  15490   4.428   4.638   4.472
 3873WAT  HW2  15491   4.369   4.519   4.544
 3873WAT  MW   15492   4.426   4.584   4.541
 3874WAT  OW   15493   4.172   5.350   0.384
 3874WAT  HW1  15494   4.102   5.401   0.342
 3874WAT  HW2  15495   4.253   5.392   0.354
 3874WAT  MW   15496   4.174   5.362   0.374
 3875WAT  OW   15497   2.030   3.670   2.494
 3875WAT  HW1  15498   2.125   3.681   2.496
 3875WAT  HW2  15499   2.003   3.710   2.411
 3875WAT  MW   15500   2.039   3.677   2.483
 3876WAT  OW   15501   6.346   0.253   6.542
 3876WAT  HW1  15502   6.376   0.201   6.468
 3876WAT  HW2  15503   6.267   0.297   6.511
 3876WAT  MW   15504   6.340   0.252   6.528
 3877WAT  OW   15505   5.176   3.545   0.248
 3877WAT  HW1  15506   5.268   3.550   0.275
 3877WAT  HW2  15507   5.130   3.513   0.325
 3877WAT  MW   15508   5.182   3.542   0.261
 3878WAT  OW   15509   3.853   1.406   3.209
 3878WAT  HW1  15510   3.792   1.480   3.205
 3878WAT  HW2  15511   3.820   1.353   3.282
 3878WAT  MW   15512   3.840   1.409   3.218
 3879WAT  OW   15513   6.536   1.817   1.580
 3879WAT  HW1  15514   6.604   1.848   1.521
 3879WAT  HW2  15515   6.529   1.723   1.563
 3879WAT  MW   15516   6.544   1.808   1.570
 3880WAT  OW   15517   4.372   3.648   5.733
 3880WAT  HW1  15518   4.347   3.697   5.811
 3880WAT  HW2  15519   4.291   3.605   5.704
 3880WAT  MW   15520   4.358   3.648   5.740
 3881WAT  OW   15521   1.766   1.241   0.391
 3881WAT  HW1  15522   1.735   1.239   0.482
 3881WAT  HW2  15523   1.695   1.284   0.343
 3881WAT  MW   15524   1.752   1.247   0.397
 3882WAT  OW   15525   3.735   3.583   6.257
 3882WAT  HW1  15526   3.751   3.664   6.210
 3882WAT  HW2  15527   3.645   3.558   6.234
 3882WAT  MW   15528   3.725   3.590   6.247
 3883WAT  OW   15529   3.274   4.646   1.408
 3883WAT  HW1  15530   3.272   4.639   1.504
 3883WAT  HW2  15531   3.242   4.561   1.377
 3883WAT  MW   15532   3.269   4.634   1.417
 3884WAT  OW   15533   5.659   0.629   3.119
 3884WAT  HW1  15534   5.668   0.599   3.029
 3884WAT  HW2  15535   5.728   0.694   3.130
 3884WAT  MW   15536   5.669   0.634   3.109
 3885WAT  OW   15537   5.378   6.055   2.357
 3885WAT  HW1  15538   5.471   6.071   2.337
 3885WAT  HW2  15539   5.379   6.010   2.441
 3885WAT  MW   15540   5.391   6.051   2.365
 3886WAT  OW   15541   0.356   6.282   6.408
 3886WAT  HW1  15542   0.426   6.344   6.426
 3886WAT  HW2  15543   0.384   6.237   6.329
 3886WAT  MW   15544   0.369   6.285   6.400
 3887WAT  OW   15545   4.677   0.274   4.489
 3887WAT  HW1  15546   4.729   0.308   4.416
 3887WAT  HW2  15547   4.678   0.179   4.476
 3887WAT  MW   15548   4.684   0.266   4.477
 3888WAT  OW   15549   0.081   0.252   2.743
 3888WAT  HW1  15550   0.064   0.304   2.821
 3888WAT  HW2  15551   0.137   0.308   2.689
 3888WAT  MW   15552   0.086   0.266   2.746
 3889WAT  OW   15553   6.453   4.903   0.346
 3889WAT  HW1  15554   6.371   4.916   0.300
 3889WAT  HW2  15555   6.493   4.990   0.348
 3889WAT  MW   15556   6.448   4.916   0.340
 3890WAT  OW   15557   5.747   0.275   5.866
 3890WAT  HW1  15558   5.687   0.342   5.898
 3890WAT  HW2  15559   5.720   0.195   5.911
 3890WAT  MW   15560   5.736   0.273   5.876
 3891WAT  OW   15561   4.433   5.949   5.085
 3891WAT  HW1  15562   4.414   6.010   5.013
 3891WAT  HW2  15563   4.348   5.913   5.110
 3891WAT  MW   15564   4.420   5.953   5.079
 3892WAT  OW   15565   2.758   1.385   4.822
 3892WAT  HW1  15566   2.791   1.325   4.888
 3892WAT  HW2  15567   2.725   1.460   4.871
 3892WAT  MW   15568   2.758   1.387   4.837
 3893WAT  OW   15569   4.004   1.974   2.814
 3893WAT  HW1  15570   4.033   2.021   2.736
 3893WAT  HW2  15571   4.080   1.974   2.872
 3893WAT  MW   15572   4.018   1.980   2.812
 3894WAT  OW   15573   0.380   4.364   3.142
 3894WAT  HW1  15574   0.329   4.297   3.098
 3894WAT  HW2  15575   0.405   4.425   3.073
 3894WAT  MW   15576   0.377   4.363   3.127
 3895WAT  OW   15577   3.619   1.856   3.270
 3895WAT  HW1  15578   3.653   1.880   3.184
 3895WAT  HW2  15579   3.552   1.922   3.288
 3895WAT  MW   15580   3.615   1.868   3.261
 3896WAT  OW   15581   3.409   4.859   6.131
 3896WAT  HW1  15582   3.344   4.798   6.096
 3896WAT  HW2  15583   3.463   4.806   6.191
 3896WAT  MW   15584   3.408   4.844   6.134
 3897WAT  OW   15585   3.672   5.611   6.115
 3897WAT  HW1  15586   3.610   5.584   6.182
 3897WAT  HW2  15587   3.618   5.646   6.044
 3897WAT  MW   15588   3.657   5.612   6.114
 3898WAT  OW   15589   4.501   5.640   2.793
 3898WAT  HW1  15590   4.491   5.546   2.808
 3898WAT  HW2  15591   4.517   5.677   2.880
 3898WAT  MW   15592   4.502   5.632   2.807
 3899WAT  OW   15593   4.438   2.979   6.308
 3899WAT  HW1  15594   4.352   3.011   6.336
 3899WAT  HW2  15595   4.500   3.023   6.366
 3899WAT  MW   15596   4.435   2.989   6.319
 3900WAT  OW   15597   5.383   4.476   2.445
 3900WAT  HW1  15598   5.411   4.561   2.411
 3900WAT  HW2  15599   5.360   4.493   2.536
 3900WAT  MW   15600   5.384   4.490   2.452
 3901WAT  OW   15601   2.156   2.101   1.935
 3901WAT  HW1  15602   2.098   2.177   1.926
 3901WAT  HW2  15603   2.112   2.045   1.999
 3901WAT  MW   15604   2.142   2.104   1.942
 3902WAT  OW   15605   2.503   5.242   3.434
 3902WAT  HW1  15606   2.519   5.289   3.352
 3902WAT  HW2  15607   2.519   5.307   3.502
 3902WAT  MW   15608   2.507   5.257   3.432
 3903WAT  OW   15609   1.931   5.059   0.390
 3903WAT  HW1  15610   1.914   5.118   0.463
 3903WAT  HW2  15611   1.861   5.077   0.327
 3903WAT  MW   15612   1.920   5.069   0.391
 3904WAT  OW   15613   1.872   3.816   0.929
 3904WAT  HW1  15614   1.817   3.865   0.869
 3904WAT  HW2  15615   1.833   3.831   1.015
 3904WAT  MW   15616   1.860   3.824   0.933
 3905WAT  OW   15617   3.206   4.365   5.831
 3905WAT  HW1  15618   3.117   4.399   5.832
 3905WAT  HW2  15619   3.242   4.388   5.917
 3905WAT  MW   15620   3.199   4.372   5.842
 3906WAT  OW   15621   5.818   1.000   1.140
 3906WAT  HW1  15622   5.906   0.987   1.104
 3906WAT  HW2  15623   5.770   0.922   1.114
 3906WAT  MW   15624   5.824   0.988   1.132
 3907WAT  OW   15625   4.936   6.007   5.199
 3907WAT  HW1  15626   4.936   5.916   5.226
 3907WAT  HW2  15627   5.004   6.048   5.252
 3907WAT  MW   15628   4.945   6.001   5.209
 3908WAT  OW   15629   4.580   4.118   2.328
 3908WAT  HW1  15630   4.547   4.045   2.277
 3908WAT  HW2  15631   4.562   4.094   2.419
 3908WAT  MW   15632   4.573   4.105   2.334
 3909WAT  OW   15633   1.419   4.241   4.976
 3909WAT  HW1  15634   1.351   4.191   5.020
 3909WAT  HW2  15635   1.498   4.189   4.986
 3909WAT  MW   15636   1.420   4.228   4.983
 3910WAT  OW   15637   5.432   1.502   5.340
 3910WAT  HW1  15638   5.351   1.501   5.391
 3910WAT  HW2  15639   5.490   1.561   5.388
 3910WAT  MW   15640   5.429   1.510   5.353
 3911WAT  OW   15641   0.553   3.424   1.935
 3911WAT  HW1  15642   0.631   3.422   1.880
 3911WAT  HW2  15643   0.554   3.339   1.980
 3911WAT  MW   15644   0.563   3.413   1.934
 3912WAT  OW   15645   3.651   1.432   0.007
 3912WAT  HW1  15646   3.696   1.384   0.076
 3912WAT  HW2  15647   3.629   1.516   0.047
 3912WAT  MW   15648   3.654   1.437   0.021
 3913WAT  OW   15649   2.756   0.451   6.066
 3913WAT  HW1  15650   2.760   0.431   5.972
 3913WAT  HW2  15651   2.699   0.528   6.071
 3913WAT  MW   15652   2.749   0.459   6.054
 3914WAT  OW   15653   0.399   1.004   3.520
 3914WAT  HW1  15654   0.472   1.033   3.574
 3914WAT  HW2  15655   0.321   1.036   3.566
 3914WAT  MW   15656   0.398   1.012   3.533
 3915WAT  OW   15657   1.426   2.713   1.997
 3915WAT  HW1  15658   1.516   2.689   1.974
 3915WAT  HW2  15659   1.372   2.670   1.931
 3915WAT  MW   15660   1.430   2.704   1.986
 3916WAT  OW   15661   4.991   0.094   2.521
 3916WAT  HW1  15662   4.910   0.043   2.511
 3916WAT  HW2  15663   4.967   0.182   2.491
 3916WAT  MW   15664   4.977   0.099   2.516
 3917WAT  OW   15665   1.733   0.563   1.834
 3917WAT  HW1  15666   1.769   0.649   1.853
 3917WAT  HW2  15667   1.670   0.547   1.904
 3917WAT  MW   15668   1.729   0.572   1.846
 3918WAT  OW   15669   3.807   5.935   5.217
 3918WAT  HW1  15670   3.781   5.926   5.126
 3918WAT  HW2  15671   3.830   6.027   5.227
 3918WAT  MW   15672   3.807   5.946   5.207
 3919WAT  OW   15673   4.466   4.107   2.567
 3919WAT  HW1  15674   4.498   4.184   2.615
 3919WAT  HW2  15675   4.518   4.034   2.600
 3919WAT  MW   15676   4.477   4.108   2.578
 3920WAT  OW   15677   4.561   4.786   1.436
 3920WAT  HW1  15678   4.622   4.751   1.501
 3920WAT  HW2  15679   4.568   4.726   1.361
 3920WAT  MW   15680   4.570   4.773   1.435
 3921WAT  OW   15681   5.434   5.758   0.107
 3921WAT  HW1  15682   5.482   5.677   0.095
 3921WAT  HW2  15683   5.501   5.826   0.112
 3921WAT  MW   15684   5.449   5.756   0.106
 3922WAT  OW   15685   2.128   6.397   0.666
 3922WAT  HW1  15686   2.040   6.363   0.683
 3922WAT  HW2  15687   2.186   6.335   0.711
 3922WAT  MW   15688   2.124   6.384   0.674
 3923WAT  OW   15689   3.936   5.795   3.707
 3923WAT  HW1  15690   3.962   5.756   3.790
 3923WAT  HW2  15691   4.017   5.835   3.673
 3923WAT  MW   15692   3.950   5.795   3.713
 3924WAT  OW   15693   1.925   2.763   5.237
 3924WAT  HW1  15694   2.018   2.762   5.213
 3924WAT  HW2  15695   1.896   2.672   5.228
 3924WAT  MW   15696   1.933   2.751   5.233
 3925WAT  OW   15697   2.149   5.974   5.846
 3925WAT  HW1  15698   2.175   6.060   5.877
 3925WAT  HW2  15699   2.229   5.921   5.854
 3925WAT  MW   15700   2.163   5.978   5.851
 3926WAT  OW   15701   6.155   2.172   1.024
 3926WAT  HW1  15702   6.246   2.157   1.000
 3926WAT  HW2  15703   6.148   2.267   1.031
 3926WAT  MW   15704   6.166   2.183   1.022
 3927WAT  OW   15705   2.907   4.915   5.683
 3927WAT  HW1  15706   2.984   4.942   5.733
 3927WAT  HW2  15707   2.922   4.950   5.595
 3927WAT  MW   15708   2.919   4.923   5.678
 3928WAT  OW   15709   2.381   5.331   4.818
 3928WAT  HW1  15710   2.383   5.236   4.810
 3928WAT  HW2  15711   2.384   5.363   4.727
 3928WAT  MW   15712   2.382   5.323   4.805
 3929WAT  OW   15713   1.887   6.325   3.115
 3929WAT  HW1  15714   1.971   6.364   3.090
 3929WAT  HW2  15715   1.903   6.230   3.113
 3929WAT  MW   15716   1.900   6.317   3.111
 3930WAT  OW   15717   3.637   2.775   3.616
 3930WAT  HW1  15718   3.608   2.772   3.707
 3930WAT  HW2  15719   3.556   2.773   3.565
 3930WAT  MW   15720   3.622   2.775   3.621
 3931WAT  OW   15721   0.056   4.586   3.743
 3931WAT  HW1  15722   0.053   4.639   3.823
 3931WAT  HW2  15723   0.106   4.639   3.681
 3931WAT  MW   15724   0.062   4.600   3.745
 3932WAT  OW   15725   3.733   3.062   4.282
 3932WAT  HW1  15726   3.776   3.069   4.367
 3932WAT  HW2  15727   3.774   3.131   4.229
 3932WAT  MW   15728   3.744   3.072   4.286
 3933WAT  OW   15729   4.488   5.386   2.561
 3933WAT  HW1  15730   4.583   5.386   2.567
 3933WAT  HW2  15731   4.460   5.466   2.605
 3933WAT  MW   15732   4.497   5.396   2.568
 3934WAT  OW   15733   2.992   3.371   1.081
 3934WAT  HW1  15734   2.950   3.333   1.158
 3934WAT  HW2  15735   3.068   3.315   1.064
 3934WAT  MW   15736   2.996   3.358   1.089
 3935WAT  OW   15737   6.388   3.641   5.066
 3935WAT  HW1  15738   6.338   3.678   5.139
 3935WAT  HW2  15739   6.346   3.677   4.987
 3935WAT  MW   15740   6.376   3.651   5.065
 3936WAT  OW   15741   0.894   2.158   5.425
 3936WAT  HW1  15742   0.971   2.182   5.375
 3936WAT  HW2  15743   0.928   2.116   5.504
 3936WAT  MW   15744   0.908   2.156   5.429
 3937WAT  OW   15745   6.691   3.567   2.071
 3937WAT  HW1  15746   6.672   3.481   2.109
 3937WAT  HW2  15747   6.654   3.630   2.132
 3937WAT  MW   15748   6.684   3.564   2.084
 3938WAT  OW   15749   4.107   0.253   4.899
 3938WAT  HW1  15750   4.125   0.159   4.890
 3938WAT  HW2  15751   4.174   0.284   4.961
 3938WAT  MW   15752   4.118   0.245   4.906
 3939WAT  OW   15753   1.568   5.508   5.955
 3939WAT  HW1  15754   1.555   5.602   5.967
 3939WAT  HW2  15755   1.504   5.484   5.887
 3939WAT  MW   15756   1.558   5.517   5.947
 3940WAT  OW   15757   2.267   2.635   3.642
 3940WAT  HW1  15758   2.327   2.598   3.577
 3940WAT  HW2  15759   2.267   2.729   3.623
 3940WAT  MW   15760   2.275   2.643   3.631
 3941WAT  OW   15761   1.567   6.161   3.013
 3941WAT  HW1  15762   1.530   6.164   3.101
 3941WAT  HW2  15763   1.524   6.232   2.966
 3941WAT  MW   15764   1.557   6.171   3.018
 3942WAT  OW   15765   2.227   1.993   6.548
 3942WAT  HW1  15766   2.247   2.083   6.523
 3942WAT  HW2  15767   2.155   1.967   6.491
 3942WAT  MW   15768   2.220   2.001   6.537
 3943WAT  OW   15769   0.762   2.446   0.008
 3943WAT  HW1  15770   0.727   2.526  -0.030
 3943WAT  HW2  15771   0.831   2.477   0.067
 3943WAT  MW   15772   0.767   2.461   0.011
 3944WAT  OW   15773   2.307   0.661   4.062
 3944WAT  HW1  15774   2.357   0.634   3.985
 3944WAT  HW2  15775   2.298   0.582   4.114
 3944WAT  MW   15776   2.312   0.647   4.058
 3945WAT  OW   15777   5.307   5.784   3.046
 3945WAT  HW1  15778   5.285   5.827   2.963
 3945WAT  HW2  15779   5.365   5.846   3.090
 3945WAT  MW   15780   5.311   5.798   3.041
 3946WAT  OW   15781   2.215   3.556   0.343
 3946WAT  HW1  15782   2.301   3.551   0.302
 3946WAT  HW2  15783   2.155   3.521   0.277
 3946WAT  MW   15784   2.218   3.550   0.329
 3947WAT  OW   15785   3.143   3.796   5.354
 3947WAT  HW1  15786   3.175   3.720   5.306
 3947WAT  HW2  15787   3.049   3.779   5.367
 3947WAT  MW   15788   3.135   3.784   5.349
 3948WAT  OW   15789   1.243   6.426   0.059
 3948WAT  HW1  15790   1.286   6.357   0.111
 3948WAT  HW2  15791   1.246   6.393  -0.030
 3948WAT  MW   15792   1.249   6.412   0.054
 3949WAT  OW   15793   5.903   4.675   6.333
 3949WAT  HW1  15794   5.940   4.587   6.345
 3949WAT  HW2  15795   5.819   4.672   6.378
 3949WAT  MW   15796   5.897   4.663   6.341
 3950WAT  OW   15797   2.651   1.438   0.246
 3950WAT  HW1  15798   2.736   1.435   0.289
 3950WAT  HW2  15799   2.596   1.380   0.298
 3950WAT  MW   15800   2.655   1.430   0.258
 3951WAT  OW   15801   3.815   6.223   6.041
 3951WAT  HW1  15802   3.729   6.202   6.006
 3951WAT  HW2  15803   3.874   6.159   6.001
 3951WAT  MW   15804   3.812   6.212   6.031
 3952WAT  OW   15805   6.584   4.430   3.007
 3952WAT  HW1  15806   6.562   4.345   2.968
 3952WAT  HW2  15807   6.586   4.491   2.932
 3952WAT  MW   15808   6.582   4.427   2.992
 3953WAT  OW   15809   6.295   5.264   3.827
 3953WAT  HW1  15810   6.338   5.203   3.766
 3953WAT  HW2  15811   6.324   5.351   3.798
 3953WAT  MW   15812   6.305   5.267   3.815
 3954WAT  OW   15813   5.183   1.906   2.592
 3954WAT  HW1  15814   5.213   1.947   2.673
 3954WAT  HW2  15815   5.216   1.963   2.522
 3954WAT  MW   15816   5.192   1.919   2.593
 3955WAT  OW   15817   6.496   0.875   2.494
 3955WAT  HW1  15818   6.548   0.868   2.413
 3955WAT  HW2  15819   6.489   0.969   2.510
 3955WAT  MW   15820   6.502   0.886   2.485
 3956WAT  OW   15821   0.798   2.783   2.800
 3956WAT  HW1  15822   0.738   2.857   2.793
 3956WAT  HW2  15823   0.742   2.706   2.797
 3956WAT  MW   15824   0.783   2.783   2.799
 3957WAT  OW   15825   3.298   1.792   0.793
 3957WAT  HW1  15826   3.240   1.860   0.827
 3957WAT  HW2  15827   3.337   1.831   0.715
 3957WAT  MW   15828   3.296   1.806   0.787
 3958WAT  OW   15829   1.489   4.560   3.463
 3958WAT  HW1  15830   1.414   4.508   3.490
 3958WAT  HW2  15831   1.450   4.640   3.426
 3958WAT  MW   15832   1.474   4.564   3.462
 3959WAT  OW   15833   4.594   1.044   3.509
 3959WAT  HW1  15834   4.673   1.013   3.464
 3959WAT  HW2  15835   4.564   0.968   3.559
 3959WAT  MW   15836   4.600   1.030   3.510
 3960WAT  OW   15837   5.034   1.257   2.860
 3960WAT  HW1  15838   5.008   1.182   2.913
 3960WAT  HW2  15839   5.105   1.225   2.805
 3960WAT  MW   15840   5.040   1.243   2.860
 3961WAT  OW   15841   3.214   4.481   4.183
 3961WAT  HW1  15842   3.285   4.521   4.134
 3961WAT  HW2  15843   3.163   4.556   4.216
 3961WAT  MW   15844   3.216   4.496   4.181
 3962WAT  OW   15845   1.637   4.639   6.190
 3962WAT  HW1  15846   1.688   4.720   6.181
 3962WAT  HW2  15847   1.556   4.657   6.142
 3962WAT  MW   15848   1.633   4.652   6.182
 3963WAT  OW   15849   5.546   0.809   4.722
 3963WAT  HW1  15850   5.574   0.872   4.656
 3963WAT  HW2  15851   5.465   0.845   4.758
 3963WAT  MW   15852   5.539   0.822   4.718
 3964WAT  OW   15853   6.097   1.139   0.718
 3964WAT  HW1  15854   6.191   1.156   0.726
 3964WAT  HW2  15855   6.055   1.211   0.764
 3964WAT  MW   15856   6.104   1.151   0.725
 3965WAT  OW   15857   6.526   5.902   0.059
 3965WAT  HW1  15858   6.475   5.980   0.036
 3965WAT  HW2  15859   6.610   5.914   0.015
 3965WAT  MW   15860   6.530   5.914   0.050
 3966WAT  OW   15861   4.237   0.181   0.558
 3966WAT  HW1  15862   4.309   0.192   0.496
 3966WAT  HW2  15863   4.207   0.270   0.576
 3966WAT  MW   15864   4.242   0.194   0.552
 3967WAT  OW   15865   0.251   4.001   4.364
 3967WAT  HW1  15866   0.220   3.929   4.418
 3967WAT  HW2  15867   0.286   4.065   4.426
 3967WAT  MW   15868   0.252   4.000   4.379
 3968WAT  OW   15869   2.863   4.207   1.992
 3968WAT  HW1  15870   2.856   4.131   2.050
 3968WAT  HW2  15871   2.772   4.227   1.969
 3968WAT  MW   15872   2.850   4.200   1.997
 3969WAT  OW   15873   3.710   5.293   1.712
 3969WAT  HW1  15874   3.711   5.243   1.630
 3969WAT  HW2  15875   3.624   5.277   1.749
 3969WAT  MW   15876   3.699   5.284   1.706
 3970WAT  OW   15877   3.876   1.381   3.981
 3970WAT  HW1  15878   3.937   1.453   3.997
 3970WAT  HW2  15879   3.930   1.312   3.943
 3970WAT  MW   15880   3.891   1.382   3.978
 3971WAT  OW   15881   6.487   4.089   4.270
 3971WAT  HW1  15882   6.505   4.095   4.364
 3971WAT  HW2  15883   6.415   4.150   4.255
 3971WAT  MW   15884   6.480   4.098   4.281
 3972WAT  OW   15885   0.916   4.267   6.164
 3972WAT  HW1  15886   0.953   4.267   6.075
 3972WAT  HW2  15887   0.879   4.354   6.174
 3972WAT  MW   15888   0.916   4.278   6.153
 3973WAT  OW   15889   1.964   4.940   5.169
 3973WAT  HW1  15890   1.970   4.881   5.094
 3973WAT  HW2  15891   2.024   5.011   5.149
 3973WAT  MW   15892   1.972   4.942   5.157
 3974WAT  OW   15893   1.384   4.124   2.679
 3974WAT  HW1  15894   1.366   4.127   2.773
 3974WAT  HW2  15895   1.431   4.206   2.661
 3974WAT  MW   15896   1.388   4.135   2.689
 3975WAT  OW   15897   4.937   0.885   5.856
 3975WAT  HW1  15898   5.029   0.897   5.835
 3975WAT  HW2  15899   4.925   0.934   5.938
 3975WAT  MW   15900   4.947   0.893   5.864
 3976WAT  OW   15901   6.556   0.773   0.340
 3976WAT  HW1  15902   6.480   0.742   0.291
 3976WAT  HW2  15903   6.522   0.793   0.427
 3976WAT  MW   15904   6.541   0.771   0.345
 3977WAT  OW   15905   4.460   2.191   6.042
 3977WAT  HW1  15906   4.468   2.134   6.118
 3977WAT  HW2  15907   4.486   2.278   6.074
 3977WAT  MW   15908   4.464   2.195   6.056
 3978WAT  OW   15909   5.123   3.603   4.807
 3978WAT  HW1  15910   5.165   3.523   4.839
 3978WAT  HW2  15911   5.187   3.672   4.824
 3978WAT  MW   15912   5.137   3.602   4.814
 3979WAT  OW   15913   4.953   2.486   6.646
 3979WAT  HW1  15914   5.025   2.476   6.708
 3979WAT  HW2  15915   4.924   2.577   6.657
 3979WAT  MW   15916   4.958   2.497   6.656
 3980WAT  OW   15917   1.348   3.671   3.442
 3980WAT  HW1  15918   1.326   3.757   3.481
 3980WAT  HW2  15919   1.270   3.647   3.393
 3980WAT  MW   15920   1.335   3.679   3.441
 3981WAT  OW   15921   3.131   4.548   0.395
 3981WAT  HW1  15922   3.128   4.453   0.394
 3981WAT  HW2  15923   3.195   4.570   0.462
 3981WAT  MW   15924   3.139   4.538   0.404
 3982WAT  OW   15925   1.522   5.863   5.015
 3982WAT  HW1  15926   1.610   5.898   5.000
 3982WAT  HW2  15927   1.486   5.918   5.085
 3982WAT  MW   15928   1.529   5.875   5.022
 3983WAT  OW   15929   3.120   5.747   4.726
 3983WAT  HW1  15930   3.109   5.671   4.784
 3983WAT  HW2  15931   3.207   5.735   4.688
 3983WAT  MW   15932   3.130   5.735   4.729
 3984WAT  OW   15933   1.622   0.410   2.048
 3984WAT  HW1  15934   1.543   0.394   1.997
 3984WAT  HW2  15935   1.597   0.392   2.138
 3984WAT  MW   15936   1.609   0.405   2.053
 3985WAT  OW   15937   4.154   6.053   1.567
 3985WAT  HW1  15938   4.213   6.125   1.589
 3985WAT  HW2  15939   4.197   5.976   1.604
 3985WAT  MW   15940   4.168   6.052   1.574
 3986WAT  OW   15941   1.735   5.275   1.111
 3986WAT  HW1  15942   1.765   5.188   1.139
 3986WAT  HW2  15943   1.734   5.328   1.190
 3986WAT  MW   15944   1.738   5.270   1.125
 3987WAT  OW   15945   6.018   4.998   4.799
 3987WAT  HW1  15946   5.955   5.029   4.864
 3987WAT  HW2  15947   5.983   5.028   4.715
 3987WAT  MW   15948   6.005   5.006   4.796
 3988WAT  OW   15949   3.278   2.933   4.722
 3988WAT  HW1  15950   3.229   2.877   4.662
 3988WAT  HW2  15951   3.242   3.021   4.709
 3988WAT  MW   15952   3.267   2.937   4.712
 3989WAT  OW   15953   5.498   1.229   1.769
 3989WAT  HW1  15954   5.422   1.284   1.785
 3989WAT  HW2  15955   5.523   1.196   1.855
 3989WAT  MW   15956   5.491   1.232   1.782
 3990WAT  OW   15957   3.935   0.098   3.638
 3990WAT  HW1  15958   3.861   0.058   3.593
 3990WAT  HW2  15959   3.911   0.190   3.648
 3990WAT  MW   15960   3.922   0.105   3.634
 3991WAT  OW   15961   5.790   1.208   6.503
 3991WAT  HW1  15962   5.754   1.174   6.421
 3991WAT  HW2  15963   5.845   1.282   6.476
 3991WAT  MW   15964   5.792   1.213   6.489
 3992WAT  OW   15965   0.456   2.445   6.458
 3992WAT  HW1  15966   0.394   2.469   6.527
 3992WAT  HW2  15967   0.436   2.354   6.437
 3992WAT  MW   15968   0.445   2.436   6.464
 3993WAT  OW   15969   5.737   6.643   2.693
 3993WAT  HW1  15970   5.662   6.688   2.654
 3993WAT  HW2  15971   5.713   6.551   2.692
 3993WAT  MW   15972   5.724   6.637   2.688
 3994WAT  OW   15973   6.309   6.217   2.601
 3994WAT  HW1  15974   6.274   6.259   2.679
 3994WAT  HW2  15975   6.237   6.163   2.568
 3994WAT  MW   15976   6.295   6.215   2.607
 3995WAT  OW   15977   3.255   2.879   2.083
 3995WAT  HW1  15978   3.248   2.862   2.177
 3995WAT  HW2  15979   3.324   2.821   2.053
 3995WAT  MW   15980   3.263   2.869   2.091
 3996WAT  OW   15981   6.553   5.582   4.133
 3996WAT  HW1  15982   6.639   5.620   4.120
 3996WAT  HW2  15983   6.508   5.642   4.192
 3996WAT  MW   15984   6.558   5.595   4.139
 3997WAT  OW   15985   1.107   2.154   5.722
 3997WAT  HW1  15986   1.185   2.131   5.671
 3997WAT  HW2  15987   1.087   2.244   5.695
 3997WAT  MW   15988   1.115   2.163   5.712
 3998WAT  OW   15989   4.977   2.820   5.433
 3998WAT  HW1  15990   4.915   2.880   5.474
 3998WAT  HW2  15991   4.958   2.735   5.473
 3998WAT  MW   15992   4.966   2.817   5.443
 3999WAT  OW   15993   2.930   5.151   0.654
 3999WAT  HW1  15994   2.895   5.101   0.728
 3999WAT  HW2  15995   3.016   5.181   0.683
 3999WAT  MW   15996   2.936   5.149   0.667
 4000WAT  OW   15997   1.227   6.281   0.953
 4000WAT  HW1  15998   1.145   6.257   0.910
 4000WAT  HW2  15999   1.262   6.198   0.986
 4000WAT  MW   16000   1.221   6.267   0.952
 4001WAT  OW   16001   3.446   0.430   6.675
 4001WAT  HW1  16002   3.375   0.483   6.709
 4001WAT  HW2  16003   3.404   0.365   6.618
 4001WAT  MW   16004   3.431   0.428   6.672
 4002WAT  OW   16005   4.281   0.893   1.029
 4002WAT  HW1  16006   4.269   0.984   1.055
 4002WAT  HW2  16007   4.293   0.896   0.934
 4002WAT  MW   16008   4.281   0.905   1.020
 4003WAT  OW   16009   6.408   3.545   3.988
 4003WAT  HW1  16010   6.409   3.636   3.959
 4003WAT  HW2  16011   6.407   3.550   4.084
 4003WAT  MW   16012   6.408   3.558   3.997
 4004WAT  OW   16013   3.123   2.828   5.400
 4004WAT  HW1  16014   3.140   2.862   5.312
 4004WAT  HW2  16015   3.092   2.903   5.450
 4004WAT  MW   16016   3.121   2.842   5.395
 4005WAT  OW   16017   6.016   4.393   1.330
 4005WAT  HW1  16018   5.966   4.398   1.412
 4005WAT  HW2  16019   5.954   4.357   1.266
 4005WAT  MW   16020   6.001   4.389   1.332
 4006WAT  OW   16021   1.282   4.771   3.355
 4006WAT  HW1  16022   1.343   4.837   3.389
 4006WAT  HW2  16023   1.238   4.814   3.282
 4006WAT  MW   16024   1.284   4.785   3.350
 4007WAT  OW   16025   4.115   2.167   5.668
 4007WAT  HW1  16026   4.080   2.135   5.585
 4007WAT  HW2  16027   4.045   2.222   5.705
 4007WAT  MW   16028   4.101   2.170   5.662
 4008WAT  OW   16029   3.005   6.206   5.343
 4008WAT  HW1  16030   3.038   6.296   5.351
 4008WAT  HW2  16031   2.930   6.213   5.285
 4008WAT  MW   16032   3.000   6.219   5.337
 4009WAT  OW   16033   1.486   6.343   3.866
 4009WAT  HW1  16034   1.566   6.294   3.885
 4009WAT  HW2  16035   1.486   6.352   3.771
 4009WAT  MW   16036   1.496   6.338   3.856
 4010WAT  OW   16037   5.815   3.184   2.222
 4010WAT  HW1  16038   5.763   3.181   2.141
 4010WAT  HW2  16039   5.791   3.104   2.268
 4010WAT  MW   16040   5.805   3.173   2.217
 4011WAT  OW   16041   1.045   0.481   3.377
 4011WAT  HW1  16042   1.141   0.482   3.375
 4011WAT  HW2  16043   1.020   0.572   3.360
 4011WAT  MW   16044   1.054   0.493   3.375
 4012WAT  OW   16045   2.311   5.986   2.514
 4012WAT  HW1  16046   2.316   6.021   2.425
 4012WAT  HW2  16047   2.326   6.061   2.571
 4012WAT  MW   16048   2.314   6.000   2.510
 4013WAT  OW   16049   5.195   0.627   4.994
 4013WAT  HW1  16050   5.220   0.624   4.902
 4013WAT  HW2  16051   5.179   0.535   5.018
 4013WAT  MW   16052   5.196   0.614   4.985
 4014WAT  OW   16053   0.032   3.424   0.232
 4014WAT  HW1  16054   0.103   3.431   0.296
 4014WAT  HW2  16055   0.044   3.500   0.175
 4014WAT  MW   16056   0.043   3.435   0.233
 4015WAT  OW   16057   6.382   5.168   0.080
 4015WAT  HW1  16058   6.377   5.090   0.135
 4015WAT  HW2  16059   6.408   5.136  -0.005
 4015WAT  MW   16060   6.385   5.154   0.076
 4016WAT  OW   16061   3.354   6.561   2.405
 4016WAT  HW1  16062   3.391   6.536   2.321
 4016WAT  HW2  16063   3.396   6.503   2.469
 4016WAT  MW   16064   3.364   6.550   2.403
 4017WAT  OW   16065   3.672   2.037   0.599
 4017WAT  HW1  16066   3.750   1.989   0.624
 4017WAT  HW2  16067   3.661   2.018   0.505
 4017WAT  MW   16068   3.681   2.028   0.590
 4018WAT  OW   16069   3.106   6.520   0.011
 4018WAT  HW1  16070   3.143   6.557   0.091
 4018WAT  HW2  16071   3.026   6.476   0.040
 4018WAT  MW   16072   3.100   6.519   0.026
 4019WAT  OW   16073   5.996   1.663   0.491
 4019WAT  HW1  16074   5.937   1.728   0.453
 4019WAT  HW2  16075   5.959   1.643   0.577
 4019WAT  MW   16076   5.983   1.669   0.497
 4020WAT  OW   16077   5.951   1.674   5.279
 4020WAT  HW1  16078   6.005   1.712   5.348
 4020WAT  HW2  16079   5.958   1.736   5.206
 4020WAT  MW   16080   5.959   1.687   5.278
 4021WAT  OW   16081   5.463   5.396   3.304
 4021WAT  HW1  16082   5.500   5.308   3.294
 4021WAT  HW2  16083   5.425   5.416   3.219
 4021WAT  MW   16084   5.463   5.387   3.291
 4022WAT  OW   16085   1.635   6.652   0.299
 4022WAT  HW1  16086   1.600   6.689   0.218
 4022WAT  HW2  16087   1.571   6.676   0.366
 4022WAT  MW   16088   1.622   6.660   0.297
 4023WAT  OW   16089   3.129   3.164   4.711
 4023WAT  HW1  16090   3.202   3.223   4.730
 4023WAT  HW2  16091   3.117   3.169   4.616
 4023WAT  MW   16092   3.137   3.172   4.701
 4024WAT  OW   16093   4.258   6.372   5.159
 4024WAT  HW1  16094   4.347   6.358   5.128
 4024WAT  HW2  16095   4.207   6.390   5.080
 4024WAT  MW   16096   4.263   6.373   5.145
 4025WAT  OW   16097   1.817   2.709   3.178
 4025WAT  HW1  16098   1.889   2.719   3.240
 4025WAT  HW2  16099   1.769   2.632   3.208
 4025WAT  MW   16100   1.820   2.700   3.190
 4026WAT  OW   16101   2.820   0.999   1.701
 4026WAT  HW1  16102   2.864   0.941   1.639
 4026WAT  HW2  16103   2.756   1.046   1.649
 4026WAT  MW   16104   2.817   0.997   1.686
 4027WAT  OW   16105   6.284   0.603   1.556
 4027WAT  HW1  16106   6.313   0.545   1.486
 4027WAT  HW2  16107   6.199   0.568   1.582
 4027WAT  MW   16108   6.277   0.591   1.550
 4028WAT  OW   16109   4.263   2.296   3.128
 4028WAT  HW1  16110   4.198   2.278   3.196
 4028WAT  HW2  16111   4.224   2.366   3.075
 4028WAT  MW   16112   4.249   2.303   3.130
 4029WAT  OW   16113   2.772   5.352   1.817
 4029WAT  HW1  16114   2.821   5.364   1.899
 4029WAT  HW2  16115   2.840   5.350   1.749
 4029WAT  MW   16116   2.788   5.353   1.819
 4030WAT  OW   16117   3.399   6.658   6.398
 4030WAT  HW1  16118   3.329   6.627   6.341
 4030WAT  HW2  16119   3.467   6.689   6.338
 4030WAT  MW   16120   3.399   6.658   6.383
 4031WAT  OW   16121   0.827   5.469   5.915
 4031WAT  HW1  16122   0.852   5.428   5.832
 4031WAT  HW2  16123   0.749   5.421   5.943
 4031WAT  MW   16124   0.820   5.458   5.908
 4032WAT  OW   16125   0.476   4.417   6.532
 4032WAT  HW1  16126   0.417   4.366   6.588
 4032WAT  HW2  16127   0.564   4.387   6.556
 4032WAT  MW   16128   0.480   4.406   6.542
 4033WAT  OW   16129   2.425   5.593   6.486
 4033WAT  HW1  16130   2.475   5.585   6.404
 4033WAT  HW2  16131   2.400   5.503   6.507
 4033WAT  MW   16132   2.429   5.580   6.478
 4034WAT  OW   16133   5.270   1.879   4.862
 4034WAT  HW1  16134   5.299   1.797   4.903
 4034WAT  HW2  16135   5.212   1.918   4.927
 4034WAT  MW   16136   5.266   1.873   4.876
 4035WAT  OW   16137   2.549   4.111   0.957
 4035WAT  HW1  16138   2.622   4.049   0.964
 4035WAT  HW2  16139   2.513   4.115   1.046
 4035WAT  MW   16140   2.554   4.103   0.970
 4036WAT  OW   16141   5.961   1.005   1.634
 4036WAT  HW1  16142   5.949   1.009   1.539
 4036WAT  HW2  16143   5.989   1.093   1.658
 4036WAT  MW   16144   5.963   1.017   1.625
 4037WAT  OW   16145   4.395   0.259   3.502
 4037WAT  HW1  16146   4.342   0.181   3.516
 4037WAT  HW2  16147   4.463   0.231   3.440
 4037WAT  MW   16148   4.397   0.245   3.495
 4038WAT  OW   16149   3.507   1.605   2.455
 4038WAT  HW1  16150   3.483   1.675   2.394
 4038WAT  HW2  16151   3.449   1.618   2.530
 4038WAT  MW   16152   3.496   1.616   2.457
 4039WAT  OW   16153   4.644   2.302   0.673
 4039WAT  HW1  16154   4.623   2.287   0.581
 4039WAT  HW2  16155   4.563   2.333   0.712
 4039WAT  MW   16156   4.631   2.304   0.666
 4040WAT  OW   16157   1.365   5.677   0.731
 4040WAT  HW1  16158   1.324   5.762   0.746
 4040WAT  HW2  16159   1.328   5.620   0.799
 4040WAT  MW   16160   1.354   5.681   0.742
 4041WAT  OW   16161   2.105   4.378   0.656
 4041WAT  HW1  16162   2.183   4.347   0.702
 4041WAT  HW2  16163   2.043   4.400   0.726
 4041WAT  MW   16164   2.107   4.377   0.671
 4042WAT  OW   16165   0.997   6.517   2.056
 4042WAT  HW1  16166   0.976   6.611   2.054
 4042WAT  HW2  16167   1.012   6.494   1.964
 4042WAT  MW   16168   0.996   6.527   2.043
 4043WAT  OW   16169   4.088   1.615   1.415
 4043WAT  HW1  16170   4.054   1.633   1.502
 4043WAT  HW2  16171   4.177   1.649   1.415
 4043WAT  MW   16172   4.095   1.622   1.426
 4044WAT  OW   16173   5.926   3.093   1.702
 4044WAT  HW1  16174   5.951   3.075   1.611
 4044WAT  HW2  16175   6.006   3.127   1.742
 4044WAT  MW   16176   5.940   3.095   1.695
 4045WAT  OW   16177   1.793   3.701   4.267
 4045WAT  HW1  16178   1.829   3.618   4.237
 4045WAT  HW2  16179   1.777   3.750   4.186
 4045WAT  MW   16180   1.796   3.697   4.252
 4046WAT  OW   16181   2.241   3.972   5.011
 4046WAT  HW1  16182   2.247   3.877   5.007
 4046WAT  HW2  16183   2.301   4.003   4.943
 4046WAT  MW   16184   2.250   3.964   5.001
 4047WAT  OW   16185   4.223   6.148   4.463
 4047WAT  HW1  16186   4.158   6.125   4.398
 4047WAT  HW2  16187   4.288   6.199   4.415
 4047WAT  MW   16188   4.223   6.152   4.448
 4048WAT  OW   16189   5.798   6.421   5.092
 4048WAT  HW1  16190   5.867   6.475   5.053
 4048WAT  HW2  16191   5.719   6.475   5.089
 4048WAT  MW   16192   5.797   6.435   5.087
 4049WAT  OW   16193   1.204   4.943   5.663
 4049WAT  HW1  16194   1.209   4.986   5.749
 4049WAT  HW2  16195   1.284   4.892   5.656
 4049WAT  MW   16196   1.215   4.942   5.673
 4050WAT  OW   16197   1.420   0.511   5.534
 4050WAT  HW1  16198   1.435   0.441   5.598
 4050WAT  HW2  16199   1.507   0.548   5.519
 4050WAT  MW   16200   1.433   0.507   5.541
 4051WAT  OW   16201   3.832   3.681   0.394
 4051WAT  HW1  16202   3.922   3.714   0.384
 4051WAT  HW2  16203   3.783   3.727   0.326
 4051WAT  MW   16204   3.838   3.692   0.383
 4052WAT  OW   16205   4.678   2.968   5.783
 4052WAT  HW1  16206   4.722   3.031   5.840
 4052WAT  HW2  16207   4.595   3.010   5.760
 4052WAT  MW   16208   4.673   2.982   5.788
 4053WAT  OW   16209   0.515   0.045   1.014
 4053WAT  HW1  16210   0.490   0.133   0.987
 4053WAT  HW2  16211   0.609   0.052   1.034
 4053WAT  MW   16212   0.524   0.057   1.013
 4054WAT  OW   16213   5.155   4.820   0.459
 4054WAT  HW1  16214   5.103   4.885   0.506
 4054WAT  HW2  16215   5.165   4.857   0.371
 4054WAT  MW   16216   5.149   4.833   0.454
 4055WAT  OW   16217   5.381   3.555   1.075
 4055WAT  HW1  16218   5.303   3.586   1.122
 4055WAT  HW2  16219   5.435   3.514   1.143
 4055WAT  MW   16220   5.378   3.554   1.090
 4056WAT  OW   16221   0.757   5.369   0.383
 4056WAT  HW1  16222   0.826   5.308   0.408
 4056WAT  HW2  16223   0.774   5.447   0.435
 4056WAT  MW   16224   0.768   5.371   0.393
 4057WAT  OW   16225   5.706   4.136   1.267
 4057WAT  HW1  16226   5.741   4.083   1.195
 4057WAT  HW2  16227   5.611   4.133   1.255
 4057WAT  MW   16228   5.698   4.128   1.256
 4058WAT  OW   16229   4.425   6.662   2.815
 4058WAT  HW1  16230   4.353   6.606   2.787
 4058WAT  HW2  16231   4.385   6.724   2.875
 4058WAT  MW   16232   4.410   6.663   2.819
 4059WAT  OW   16233   0.739   0.649   6.400
 4059WAT  HW1  16234   0.825   0.640   6.441
 4059WAT  HW2  16235   0.731   0.572   6.343
 4059WAT  MW   16236   0.749   0.638   6.398
 4060WAT  OW   16237   2.204   3.374   5.800
 4060WAT  HW1  16238   2.275   3.367   5.736
 4060WAT  HW2  16239   2.157   3.454   5.775
 4060WAT  MW   16240   2.207   3.384   5.788
 4061WAT  OW   16241   6.173   2.268   0.125
 4061WAT  HW1  16242   6.255   2.227   0.097
 4061WAT  HW2  16243   6.128   2.200   0.175
 4061WAT  MW   16244   6.178   2.254   0.128
 4062WAT  OW   16245   0.545   5.761   5.901
 4062WAT  HW1  16246   0.491   5.804   5.834
 4062WAT  HW2  16247   0.582   5.685   5.856
 4062WAT  MW   16248   0.543   5.757   5.886
 4063WAT  OW   16249   4.202   0.876   5.116
 4063WAT  HW1  16250   4.201   0.783   5.091
 4063WAT  HW2  16251   4.133   0.915   5.063
 4063WAT  MW   16252   4.193   0.869   5.106
 4064WAT  OW   16253   1.185   6.068   1.947
 4064WAT  HW1  16254   1.169   6.018   1.867
 4064WAT  HW2  16255   1.201   6.003   2.014
 4064WAT  MW   16256   1.185   6.053   1.945
 4065WAT  OW   16257   4.673   5.835   5.054
 4065WAT  HW1  16258   4.592   5.885   5.070
 4065WAT  HW2  16259   4.687   5.786   5.135
 4065WAT  MW   16260   4.664   5.835   5.066
 4066WAT  OW   16261   0.803   4.459   1.070
 4066WAT  HW1  16262   0.743   4.506   1.011
 4066WAT  HW2  16263   0.884   4.450   1.019
 4066WAT  MW   16264   0.806   4.464   1.055
 4067WAT  OW   16265   1.699   1.056   3.034
 4067WAT  HW1  16266   1.719   1.132   2.980
 4067WAT  HW2  16267   1.749   1.070   3.115
 4067WAT  MW   16268   1.708   1.068   3.038
 4068WAT  OW   16269   2.128   3.257   2.164
 4068WAT  HW1  16270   2.168   3.179   2.127
 4068WAT  HW2  16271   2.084   3.225   2.243
 4068WAT  MW   16272   2.127   3.242   2.170
 4069WAT  OW   16273   2.308   4.271   5.505
 4069WAT  HW1  16274   2.385   4.226   5.470
 4069WAT  HW2  16275   2.344   4.332   5.570
 4069WAT  MW   16276   2.323   4.273   5.509
 4070WAT  OW   16277   0.387   3.552   0.066
 4070WAT  HW1  16278   0.444   3.548  -0.010
 4070WAT  HW2  16279   0.423   3.486   0.126
 4070WAT  MW   16280   0.399   3.543   0.064
 4071WAT  OW   16281   1.960   0.781   0.277
 4071WAT  HW1  16282   1.973   0.765   0.371
 4071WAT  HW2  16283   2.043   0.755   0.237
 4071WAT  MW   16284   1.973   0.775   0.284
 4072WAT  OW   16285   6.505   0.445   5.387
 4072WAT  HW1  16286   6.579   0.450   5.327
 4072WAT  HW2  16287   6.428   0.455   5.332
 4072WAT  MW   16288   6.505   0.447   5.372
 4073WAT  OW   16289   4.824   6.153   1.041
 4073WAT  HW1  16290   4.749   6.093   1.047
 4073WAT  HW2  16291   4.875   6.135   1.121
 4073WAT  MW   16292   4.821   6.142   1.052
 4074WAT  OW   16293   2.279   5.797   3.126
 4074WAT  HW1  16294   2.302   5.887   3.104
 4074WAT  HW2  16295   2.335   5.776   3.201
 4074WAT  MW   16296   2.290   5.806   3.133
 4075WAT  OW   16297   1.205   6.091   6.335
 4075WAT  HW1  16298   1.226   6.151   6.407
 4075WAT  HW2  16299   1.291   6.060   6.304
 4075WAT  MW   16300   1.219   6.095   6.340
 4076WAT  OW   16301   2.246   0.596   0.374
 4076WAT  HW1  16302   2.332   0.594   0.415
 4076WAT  HW2  16303   2.265   0.604   0.280
 4076WAT  MW   16304   2.260   0.597   0.367
 4077WAT  OW   16305   2.260   3.732   3.790
 4077WAT  HW1  16306   2.298   3.737   3.701
 4077WAT  HW2  16307   2.277   3.642   3.818
 4077WAT  MW   16308   2.268   3.721   3.782
 4078WAT  OW   16309   6.372   6.537   1.226
 4078WAT  HW1  16310   6.459   6.562   1.194
 4078WAT  HW2  16311   6.359   6.589   1.304
 4078WAT  MW   16312   6.382   6.547   1.232
 4079WAT  OW   16313   5.388   6.583   4.366
 4079WAT  HW1  16314   5.305   6.580   4.318
 4079WAT  HW2  16315   5.386   6.505   4.421
 4079WAT  MW   16316   5.377   6.573   4.367
 4080WAT  OW   16317   3.245   3.215   5.488
 4080WAT  HW1  16318   3.308   3.146   5.510
 4080WAT  HW2  16319   3.300   3.290   5.464
 4080WAT  MW   16320   3.261   3.216   5.488
 4081WAT  OW   16321   4.741   5.506   4.073
 4081WAT  HW1  16322   4.833   5.534   4.071
 4081WAT  HW2  16323   4.738   5.431   4.013
 4081WAT  MW   16324   4.753   5.500   4.065
 4082WAT  OW   16325   5.478   0.464   4.884
 4082WAT  HW1  16326   5.399   0.489   4.837
 4082WAT  HW2  16327   5.458   0.378   4.922
 4082WAT  MW   16328   5.465   0.456   4.883
 4083WAT  OW   16329   0.363   3.573   5.602
 4083WAT  HW1  16330   0.380   3.531   5.687
 4083WAT  HW2  16331   0.376   3.504   5.538
 4083WAT  MW   16332   0.367   3.559   5.605
 4084WAT  OW   16333   3.015   0.150   0.888
 4084WAT  HW1  16334   3.049   0.226   0.933
 4084WAT  HW2  16335   3.015   0.080   0.954
 4084WAT  MW   16336   3.019   0.151   0.903
 4085WAT  OW   16337   2.353   5.344   6.627
 4085WAT  HW1  16338   2.426   5.345   6.688
 4085WAT  HW2  16339   2.276   5.361   6.681
 4085WAT  MW   16340   2.352   5.346   6.642
 4086WAT  OW   16341   3.575   0.122   3.545
 4086WAT  HW1  16342   3.480   0.133   3.553
 4086WAT  HW2  16343   3.609   0.210   3.560
 4086WAT  MW   16344   3.567   0.135   3.548
 4087WAT  OW   16345   3.163   2.332   0.125
 4087WAT  HW1  16346   3.116   2.249   0.130
 4087WAT  HW2  16347   3.131   2.382   0.199
 4087WAT  MW   16348   3.153   2.327   0.135
 4088WAT  OW   16349   3.696   4.418   1.409
 4088WAT  HW1  16350   3.758   4.409   1.336
 4088WAT  HW2  16351   3.752   4.422   1.487
 4088WAT  MW   16352   3.712   4.417   1.409
 4089WAT  OW   16353   3.467   1.275   0.338
 4089WAT  HW1  16354   3.467   1.313   0.425
 4089WAT  HW2  16355   3.415   1.335   0.285
 4089WAT  MW   16356   3.460   1.288   0.342
 4090WAT  OW   16357   3.157   5.521   1.615
 4090WAT  HW1  16358   3.225   5.478   1.563
 4090WAT  HW2  16359   3.203   5.591   1.661
 4090WAT  MW   16360   3.172   5.525   1.614
 4091WAT  OW   16361   0.764   4.579   6.669
 4091WAT  HW1  16362   0.851   4.617   6.661
 4091WAT  HW2  16363   0.707   4.653   6.688
 4091WAT  MW   16364   0.768   4.594   6.670
 4092WAT  OW   16365   3.320   3.561   1.216
 4092WAT  HW1  16366   3.304   3.477   1.258
 4092WAT  HW2  16367   3.382   3.605   1.274
 4092WAT  MW   16368   3.326   3.556   1.229
 4093WAT  OW   16369   6.054   2.930   2.306
 4093WAT  HW1  16370   5.965   2.936   2.271
 4093WAT  HW2  16371   6.104   2.994   2.256
 4093WAT  MW   16372   6.049   2.940   2.295
 4094WAT  OW   16373   0.405   0.307   4.943
 4094WAT  HW1  16374   0.490   0.340   4.914
 4094WAT  HW2  16375   0.421   0.215   4.964
 4094WAT  MW   16376   0.419   0.299   4.942
 4095WAT  OW   16377   2.716   3.731   3.760
 4095WAT  HW1  16378   2.655   3.764   3.695
 4095WAT  HW2  16379   2.662   3.709   3.835
 4095WAT  MW   16380   2.701   3.732   3.761
 4096WAT  OW   16381   0.414   3.769   3.345
 4096WAT  HW1  16382   0.507   3.764   3.368
 4096WAT  HW2  16383   0.369   3.777   3.429
 4096WAT  MW   16384   0.420   3.770   3.359
 4097WAT  OW   16385   3.008   5.736   2.710
 4097WAT  HW1  16386   3.091   5.706   2.746
 4097WAT  HW2  16387   3.030   5.812   2.657
 4097WAT  MW   16388   3.022   5.742   2.708
 4098WAT  OW   16389   0.984   0.994   4.123
 4098WAT  HW1  16390   0.986   0.910   4.168
 4098WAT  HW2  16391   1.047   0.984   4.051
 4098WAT  MW   16392   0.993   0.982   4.119
 4099WAT  OW   16393   1.506   1.387   1.686
 4099WAT  HW1  16394   1.454   1.349   1.757
 4099WAT  HW2  16395   1.562   1.452   1.730
 4099WAT  MW   16396   1.507   1.391   1.702
 4100WAT  OW   16397   1.992   0.893   5.287
 4100WAT  HW1  16398   1.952   0.965   5.336
 4100WAT  HW2  16399   1.918   0.851   5.243
 4100WAT  MW   16400   1.977   0.897   5.287
 4101WAT  OW   16401   6.085   2.344   3.373
 4101WAT  HW1  16402   6.120   2.338   3.462
 4101WAT  HW2  16403   5.997   2.380   3.384
 4101WAT  MW   16404   6.078   2.348   3.386
 4102WAT  OW   16405   5.796   0.930   0.152
 4102WAT  HW1  16406   5.837   0.844   0.141
 4102WAT  HW2  16407   5.730   0.934   0.083
 4102WAT  MW   16408   5.793   0.919   0.141
 4103WAT  OW   16409   5.290   1.807   3.022
 4103WAT  HW1  16410   5.382   1.816   2.995
 4103WAT  HW2  16411   5.241   1.855   2.956
 4103WAT  MW   16412   5.296   1.814   3.010
 4104WAT  OW   16413   2.289   4.429   2.355
 4104WAT  HW1  16414   2.381   4.402   2.358
 4104WAT  HW2  16415   2.255   4.406   2.441
 4104WAT  MW   16416   2.297   4.422   2.367
 4105WAT  OW   16417   5.376   0.546   2.397
 4105WAT  HW1  16418   5.468   0.535   2.422
 4105WAT  HW2  16419   5.327   0.492   2.460
 4105WAT  MW   16420   5.381   0.538   2.408
 4106WAT  OW   16421   4.802   0.643   6.102
 4106WAT  HW1  16422   4.858   0.715   6.130
 4106WAT  HW2  16423   4.777   0.665   6.013
 4106WAT  MW   16424   4.806   0.655   6.094
 4107WAT  OW   16425   1.704   4.910   3.069
 4107WAT  HW1  16426   1.766   4.838   3.060
 4107WAT  HW2  16427   1.757   4.986   3.091
 4107WAT  MW   16428   1.719   4.911   3.070
 4108WAT  OW   16429   5.408   0.154   0.668
 4108WAT  HW1  16430   5.321   0.183   0.693
 4108WAT  HW2  16431   5.453   0.136   0.750
 4108WAT  MW   16432   5.403   0.156   0.682
 4109WAT  OW   16433   4.539   4.466   1.709
 4109WAT  HW1  16434   4.506   4.548   1.745
 4109WAT  HW2  16435   4.634   4.470   1.721
 4109WAT  MW   16436   4.547   4.477   1.715
 4110WAT  OW   16437   5.985   5.804   6.449
 4110WAT  HW1  16438   5.955   5.779   6.362
 4110WAT  HW2  16439   5.910   5.846   6.490
 4110WAT  MW   16440   5.971   5.806   6.443
 4111WAT  OW   16441   2.938   3.112   6.041
 4111WAT  HW1  16442   2.963   3.116   6.134
 4111WAT  HW2  16443   2.846   3.141   6.041
 4111WAT  MW   16444   2.929   3.117   6.054
 4112WAT  OW   16445   1.350   4.522   5.580
 4112WAT  HW1  16446   1.403   4.475   5.516
 4112WAT  HW2  16447   1.262   4.486   5.570
 4112WAT  MW   16448   1.346   4.511   5.571
 4113WAT  OW   16449   5.855   1.797   2.849
 4113WAT  HW1  16450   5.814   1.751   2.775
 4113WAT  HW2  16451   5.942   1.757   2.857
 4113WAT  MW   16452   5.861   1.785   2.840
 4114WAT  OW   16453   2.761   3.217   2.052
 4114WAT  HW1  16454   2.773   3.270   1.973
 4114WAT  HW2  16455   2.758   3.281   2.123
 4114WAT  MW   16456   2.762   3.233   2.051
 4115WAT  OW   16457   6.036   3.007   1.472
 4115WAT  HW1  16458   5.998   2.923   1.449
 4115WAT  HW2  16459   6.079   3.037   1.392
 4115WAT  MW   16460   6.037   3.000   1.458
 4116WAT  OW   16461   1.661   4.596   4.602
 4116WAT  HW1  16462   1.648   4.690   4.614
 4116WAT  HW2  16463   1.573   4.559   4.614
 4116WAT  MW   16464   1.647   4.603   4.605
 4117WAT  OW   16465   6.470   2.764   4.825
 4117WAT  HW1  16466   6.533   2.836   4.828
 4117WAT  HW2  16467   6.513   2.692   4.872
 4117WAT  MW   16468   6.484   2.764   4.832
 4118WAT  OW   16469   0.922   1.320   1.690
 4118WAT  HW1  16470   0.905   1.397   1.635
 4118WAT  HW2  16471   0.977   1.352   1.761
 4118WAT  MW   16472   0.927   1.334   1.692
 4119WAT  OW   16473   1.444   5.936   5.275
 4119WAT  HW1  16474   1.409   6.024   5.266
 4119WAT  HW2  16475   1.369   5.883   5.302
 4119WAT  MW   16476   1.429   5.940   5.277
 4120WAT  OW   16477   2.681   2.250   4.571
 4120WAT  HW1  16478   2.772   2.225   4.587
 4120WAT  HW2  16479   2.629   2.191   4.626
 4120WAT  MW   16480   2.686   2.239   4.580
 4121WAT  OW   16481   4.549   6.024   1.683
 4121WAT  HW1  16482   4.513   6.091   1.624
 4121WAT  HW2  16483   4.486   5.952   1.677
 4121WAT  MW   16484   4.536   6.024   1.674
 4122WAT  OW   16485   0.318   2.616   0.381
 4122WAT  HW1  16486   0.351   2.526   0.379
 4122WAT  HW2  16487   0.228   2.608   0.349
 4122WAT  MW   16488   0.310   2.603   0.376
 4123WAT  OW   16489   3.359   2.519   4.920
 4123WAT  HW1  16490   3.321   2.499   4.835
 4123WAT  HW2  16491   3.395   2.436   4.951
 4123WAT  MW   16492   3.359   2.506   4.913
 4124WAT  OW   16493   1.083   5.802   3.648
 4124WAT  HW1  16494   1.169   5.775   3.680
 4124WAT  HW2  16495   1.094   5.893   3.621
 4124WAT  MW   16496   1.096   5.810   3.649
 4125WAT  OW   16497   5.150   3.445   5.632
 4125WAT  HW1  16498   5.106   3.468   5.715
 4125WAT  HW2  16499   5.240   3.424   5.658
 4125WAT  MW   16500   5.156   3.445   5.647
 4126WAT  OW   16501   5.815   1.355   5.430
 4126WAT  HW1  16502   5.731   1.315   5.408
 4126WAT  HW2  16503   5.878   1.283   5.423
 4126WAT  MW   16504   5.813   1.340   5.426
 4127WAT  OW   16505   5.182   5.357   6.268
 4127WAT  HW1  16506   5.097   5.393   6.294
 4127WAT  HW2  16507   5.232   5.352   6.349
 4127WAT  MW   16508   5.177   5.361   6.282
 4128WAT  OW   16509   3.139   4.617   2.125
 4128WAT  HW1  16510   3.132   4.601   2.220
 4128WAT  HW2  16511   3.088   4.547   2.085
 4128WAT  MW   16512   3.132   4.606   2.133
 4129WAT  OW   16513   2.674   3.548   1.442
 4129WAT  HW1  16514   2.663   3.484   1.372
 4129WAT  HW2  16515   2.682   3.632   1.398
 4129WAT  MW   16516   2.674   3.550   1.427
 4130WAT  OW   16517   2.997   2.209   0.816
 4130WAT  HW1  16518   3.010   2.304   0.818
 4130WAT  HW2  16519   2.938   2.194   0.743
 4130WAT  MW   16520   2.991   2.220   0.807
 4131WAT  OW   16521   6.044   5.710   0.632
 4131WAT  HW1  16522   6.091   5.720   0.715
 4131WAT  HW2  16523   6.078   5.628   0.595
 4131WAT  MW   16524   6.055   5.700   0.638
 4132WAT  OW   16525   0.527   2.607   0.170
 4132WAT  HW1  16526   0.510   2.513   0.168
 4132WAT  HW2  16527   0.444   2.646   0.195
 4132WAT  MW   16528   0.514   2.600   0.173
 4133WAT  OW   16529   0.489   3.854   3.057
 4133WAT  HW1  16530   0.499   3.831   3.150
 4133WAT  HW2  16531   0.442   3.780   3.019
 4133WAT  MW   16532   0.484   3.841   3.064
 4134WAT  OW   16533   5.275   3.563   3.083
 4134WAT  HW1  16534   5.231   3.495   3.135
 4134WAT  HW2  16535   5.259   3.644   3.131
 4134WAT  MW   16536   5.267   3.565   3.097
 4135WAT  OW   16537   3.744   6.522   2.301
 4135WAT  HW1  16538   3.796   6.599   2.280
 4135WAT  HW2  16539   3.794   6.449   2.266
 4135WAT  MW   16540   3.757   6.523   2.294
 4136WAT  OW   16541   3.654   3.780   1.079
 4136WAT  HW1  16542   3.710   3.841   1.128
 4136WAT  HW2  16543   3.583   3.833   1.046
 4136WAT  MW   16544   3.652   3.795   1.081
 4137WAT  OW   16545   4.425   0.599   1.368
 4137WAT  HW1  16546   4.331   0.588   1.354
 4137WAT  HW2  16547   4.445   0.685   1.330
 4137WAT  MW   16548   4.415   0.609   1.361
 4138WAT  OW   16549   6.428   5.163   0.923
 4138WAT  HW1  16550   6.376   5.170   0.843
 4138WAT  HW2  16551   6.364   5.172   0.993
 4138WAT  MW   16552   6.413   5.165   0.922
 4139WAT  OW   16553   2.544   4.419   0.576
 4139WAT  HW1  16554   2.482   4.478   0.533
 4139WAT  HW2  16555   2.558   4.349   0.513
 4139WAT  MW   16556   2.538   4.418   0.562
 4140WAT  OW   16557   1.201   6.232   4.183
 4140WAT  HW1  16558   1.281   6.217   4.233
 4140WAT  HW2  16559   1.154   6.299   4.233
 4140WAT  MW   16560   1.205   6.239   4.197
 4141WAT  OW   16561   4.495   6.218   5.700
 4141WAT  HW1  16562   4.588   6.202   5.684
 4141WAT  HW2  16563   4.460   6.245   5.614
 4141WAT  MW   16564   4.502   6.220   5.686
 4142WAT  OW   16565   4.991   1.784   5.381
 4142WAT  HW1  16566   4.958   1.722   5.445
 4142WAT  HW2  16567   5.022   1.730   5.308
 4142WAT  MW   16568   4.991   1.769   5.380
 4143WAT  OW   16569   4.061   2.098   1.995
 4143WAT  HW1  16570   4.105   2.020   2.029
 4143WAT  HW2  16571   4.072   2.091   1.900
 4143WAT  MW   16572   4.068   2.087   1.987
 4144WAT  OW   16573   1.030   3.834   6.545
 4144WAT  HW1  16574   0.958   3.774   6.530
 4144WAT  HW2  16575   1.067   3.808   6.629
 4144WAT  MW   16576   1.026   3.823   6.554
 4145WAT  OW   16577   4.621   4.432   0.852
 4145WAT  HW1  16578   4.576   4.381   0.919
 4145WAT  HW2  16579   4.660   4.366   0.794
 4145WAT  MW   16580   4.620   4.417   0.853
 4146WAT  OW   16581   0.583   1.807   6.531
 4146WAT  HW1  16582   0.591   1.903   6.530
 4146WAT  HW2  16583   0.665   1.776   6.495
 4146WAT  MW   16584   0.595   1.816   6.526
 4147WAT  OW   16585   2.742   1.330   2.925
 4147WAT  HW1  16586   2.738   1.351   3.018
 4147WAT  HW2  16587   2.720   1.412   2.881
 4147WAT  MW   16588   2.739   1.344   2.932
 4148WAT  OW   16589   5.160   0.822   3.125
 4148WAT  HW1  16590   5.229   0.760   3.101
 4148WAT  HW2  16591   5.117   0.781   3.200
 4148WAT  MW   16592   5.164   0.808   3.132
 4149WAT  OW   16593   0.760   1.989   6.167
 4149WAT  HW1  16594   0.838   1.959   6.121
 4149WAT  HW2  16595   0.752   2.082   6.143
 4149WAT  MW   16596   0.769   1.997   6.158
 4150WAT  OW   16597   2.097   1.198   0.458
 4150WAT  HW1  16598   2.185   1.167   0.481
 4150WAT  HW2  16599   2.092   1.184   0.363
 4150WAT  MW   16600   2.108   1.192   0.448
 4151WAT  OW   16601   1.311   0.443   1.516
 4151WAT  HW1  16602   1.296   0.361   1.564
 4151WAT  HW2  16603   1.263   0.509   1.565
 4151WAT  MW   16604   1.303   0.441   1.529
 4152WAT  OW   16605   4.231   6.365   1.288
 4152WAT  HW1  16606   4.216   6.421   1.212
 4152WAT  HW2  16607   4.143   6.353   1.326
 4152WAT  MW   16608   4.217   6.370   1.283
 4153WAT  OW   16609   6.632   1.342   3.379
 4153WAT  HW1  16610   6.630   1.251   3.407
 4153WAT  HW2  16611   6.715   1.375   3.413
 4153WAT  MW   16612   6.643   1.335   3.387
 4154WAT  OW   16613   4.020   2.630   3.477
 4154WAT  HW1  16614   4.107   2.590   3.481
 4154WAT  HW2  16615   4.032   2.718   3.513
 4154WAT  MW   16616   4.033   2.636   3.482
 4155WAT  OW   16617   5.415   1.388   5.101
 4155WAT  HW1  16618   5.505   1.388   5.067
 4155WAT  HW2  16619   5.419   1.442   5.179
 4155WAT  MW   16620   5.427   1.395   5.107
 4156WAT  OW   16621   6.518   4.294   3.894
 4156WAT  HW1  16622   6.560   4.252   3.819
 4156WAT  HW2  16623   6.575   4.273   3.968
 4156WAT  MW   16624   6.531   4.286   3.894
 4157WAT  OW   16625   2.711   4.074   2.562
 4157WAT  HW1  16626   2.716   3.988   2.603
 4157WAT  HW2  16627   2.754   4.133   2.624
 4157WAT  MW   16628   2.718   4.071   2.575
 4158WAT  OW   16629   3.330   0.864   6.543
 4158WAT  HW1  16630   3.401   0.839   6.485
 4158WAT  HW2  16631   3.251   0.853   6.491
 4158WAT  MW   16632   3.329   0.859   6.529
 4159WAT  OW   16633   1.434   5.948   2.436
 4159WAT  HW1  16634   1.343   5.977   2.432
 4159WAT  HW2  16635   1.444   5.914   2.525
 4159WAT  MW   16636   1.423   5.947   2.447
 4160WAT  OW   16637   1.814   3.328   4.783
 4160WAT  HW1  16638   1.816   3.318   4.688
 4160WAT  HW2  16639   1.749   3.263   4.812
 4160WAT  MW   16640   1.806   3.318   4.774
 4161WAT  OW   16641   0.705   0.060   5.199
 4161WAT  HW1  16642   0.674   0.066   5.289
 4161WAT  HW2  16643   0.703   0.150   5.167
 4161WAT  MW   16644   0.701   0.073   5.207
 4162WAT  OW   16645   2.031   6.395   1.118
 4162WAT  HW1  16646   1.944   6.355   1.118
 4162WAT  HW2  16647   2.034   6.446   1.038
 4162WAT  MW   16648   2.020   6.396   1.107
 4163WAT  OW   16649   6.066   4.364   0.672
 4163WAT  HW1  16650   6.102   4.340   0.757
 4163WAT  HW2  16651   6.068   4.460   0.672
 4163WAT  MW   16652   6.071   4.374   0.683
 4164WAT  OW   16653   0.375   5.953   4.759
 4164WAT  HW1  16654   0.287   5.984   4.780
 4164WAT  HW2  16655   0.367   5.858   4.756
 4164WAT  MW   16656   0.362   5.945   4.761
 4165WAT  OW   16657   5.674   3.307   4.945
 4165WAT  HW1  16658   5.728   3.327   4.869
 4165WAT  HW2  16659   5.597   3.364   4.935
 4165WAT  MW   16660   5.671   3.317   4.934
 4166WAT  OW   16661   4.277   0.602   3.551
 4166WAT  HW1  16662   4.371   0.618   3.547
 4166WAT  HW2  16663   4.238   0.672   3.499
 4166WAT  MW   16664   4.284   0.613   3.544
 4167WAT  OW   16665   6.090   6.598   4.594
 4167WAT  HW1  16666   6.170   6.566   4.552
 4167WAT  HW2  16667   6.093   6.693   4.580
 4167WAT  MW   16668   6.101   6.607   4.587
 4168WAT  OW   16669   5.259   4.669   4.575
 4168WAT  HW1  16670   5.176   4.711   4.598
 4168WAT  HW2  16671   5.295   4.725   4.507
 4168WAT  MW   16672   5.253   4.682   4.569
 4169WAT  OW   16673   6.679   2.227   2.235
 4169WAT  HW1  16674   6.737   2.299   2.214
 4169WAT  HW2  16675   6.595   2.270   2.256
 4169WAT  MW   16676   6.675   2.242   2.235
 4170WAT  OW   16677   5.020   5.906   2.134
 4170WAT  HW1  16678   5.020   5.811   2.124
 4170WAT  HW2  16679   4.935   5.934   2.100
 4170WAT  MW   16680   5.009   5.897   2.128
 4171WAT  OW   16681   4.502   4.349   6.449
 4171WAT  HW1  16682   4.414   4.371   6.477
 4171WAT  HW2  16683   4.505   4.377   6.357
 4171WAT  MW   16684   4.491   4.356   6.440
 4172WAT  OW   16685   0.999   6.509   0.193
 4172WAT  HW1  16686   0.991   6.442   0.261
 4172WAT  HW2  16687   1.065   6.474   0.133
 4172WAT  MW   16688   1.007   6.495   0.194
 4173WAT  OW   16689   0.436   2.674   3.249
 4173WAT  HW1  16690   0.472   2.617   3.317
 4173WAT  HW2  16691   0.347   2.693   3.279
 4173WAT  MW   16692   0.429   2.669   3.262
 4174WAT  OW   16693   1.264   0.036   2.111
 4174WAT  HW1  16694   1.305  -0.012   2.182
 4174WAT  HW2  16695   1.261  -0.026   2.038
 4174WAT  MW   16696   1.269   0.022   2.111
 4175WAT  OW   16697   5.100   5.081   2.286
 4175WAT  HW1  16698   5.121   5.070   2.379
 4175WAT  HW2  16699   5.132   5.001   2.245
 4175WAT  MW   16700   5.107   5.069   2.293
 4176WAT  OW   16701   1.159   0.545   5.591
 4176WAT  HW1  16702   1.249   0.531   5.560
 4176WAT  HW2  16703   1.164   0.627   5.641
 4176WAT  MW   16704   1.172   0.554   5.593
 4177WAT  OW   16705   0.351   3.404   6.105
 4177WAT  HW1  16706   0.400   3.482   6.131
 4177WAT  HW2  16707   0.372   3.393   6.012
 4177WAT  MW   16708   0.360   3.413   6.096
 4178WAT  OW   16709   2.542   2.397   1.559
 4178WAT  HW1  16710   2.570   2.488   1.548
 4178WAT  HW2  16711   2.506   2.393   1.648
 4178WAT  MW   16712   2.541   2.409   1.569
 4179WAT  OW   16713   6.390   0.066   4.132
 4179WAT  HW1  16714   6.357   0.154   4.151
 4179WAT  HW2  16715   6.484   0.071   4.150
 4179WAT  MW   16716   6.398   0.078   4.137
 4180WAT  OW   16717   1.969   1.637   6.045
 4180WAT  HW1  16718   1.937   1.548   6.033
 4180WAT  HW2  16719   2.049   1.627   6.097
 4180WAT  MW   16720   1.976   1.624   6.050
 4181WAT  OW   16721   6.304   1.712   3.391
 4181WAT  HW1  16722   6.233   1.734   3.330
 4181WAT  HW2  16723   6.320   1.619   3.378
 4181WAT  MW   16724   6.297   1.703   3.381
 4182WAT  OW   16725   5.634   3.168   3.122
 4182WAT  HW1  16726   5.638   3.198   3.213
 4182WAT  HW2  16727   5.626   3.073   3.129
 4182WAT  MW   16728   5.633   3.159   3.135
 4183WAT  OW   16729   4.402   6.549   0.237
 4183WAT  HW1  16730   4.464   6.595   0.293
 4183WAT  HW2  16731   4.360   6.618   0.186
 4183WAT  MW   16732   4.405   6.564   0.237
 4184WAT  OW   16733   6.548   2.275   1.646
 4184WAT  HW1  16734   6.562   2.184   1.672
 4184WAT  HW2  16735   6.555   2.324   1.728
 4184WAT  MW   16736   6.551   2.269   1.660
 4185WAT  OW   16737   1.796   6.084   6.383
 4185WAT  HW1  16738   1.736   6.041   6.444
 4185WAT  HW2  16739   1.879   6.089   6.430
 4185WAT  MW   16740   1.799   6.079   6.397
 4186WAT  OW   16741   6.151   2.861   3.828
 4186WAT  HW1  16742   6.100   2.898   3.900
 4186WAT  HW2  16743   6.240   2.854   3.863
 4186WAT  MW   16744   6.156   2.865   3.842
 4187WAT  OW   16745   6.010   6.289   2.350
 4187WAT  HW1  16746   5.967   6.213   2.310
 4187WAT  HW2  16747   6.097   6.290   2.312
 4187WAT  MW   16748   6.016   6.279   2.340
 4188WAT  OW   16749   2.264   0.931   4.121
 4188WAT  HW1  16750   2.317   0.958   4.045
 4188WAT  HW2  16751   2.284   0.838   4.131
 4188WAT  MW   16752   2.274   0.922   4.112
 4189WAT  OW   16753   0.630   0.003   2.677
 4189WAT  HW1  16754   0.718  -0.008   2.715
 4189WAT  HW2  16755   0.584  -0.078   2.701
 4189WAT  MW   16756   0.636  -0.009   2.685
 4190WAT  OW   16757   6.239   0.932   5.327
 4190WAT  HW1  16758   6.247   1.020   5.291
 4190WAT  HW2  16759   6.230   0.945   5.421
 4190WAT  MW   16760   6.239   0.945   5.334
 4191WAT  OW   16761   5.545   3.362   6.172
 4191WAT  HW1  16762   5.582   3.301   6.108
 4191WAT  HW2  16763   5.619   3.387   6.227
 4191WAT  MW   16764   5.560   3.357   6.170
 4192WAT  OW   16765   2.762   2.840   3.961
 4192WAT  HW1  16766   2.740   2.752   3.994
 4192WAT  HW2  16767   2.755   2.897   4.038
 4192WAT  MW   16768   2.758   2.836   3.975
 4193WAT  OW   16769   6.669   1.640   3.078
 4193WAT  HW1  16770   6.674   1.641   2.982
 4193WAT  HW2  16771   6.749   1.684   3.106
 4193WAT  MW   16772   6.681   1.646   3.069
 4194WAT  OW   16773   6.036   0.933   4.216
 4194WAT  HW1  16774   6.070   0.963   4.301
 4194WAT  HW2  16775   5.976   0.862   4.238
 4194WAT  MW   16776   6.033   0.928   4.230
 4195WAT  OW   16777   0.484   6.203   4.199
 4195WAT  HW1  16778   0.461   6.112   4.178
 4195WAT  HW2  16779   0.406   6.253   4.177
 4195WAT  MW   16780   0.471   6.197   4.193
 4196WAT  OW   16781   1.261   3.391   3.048
 4196WAT  HW1  16782   1.271   3.348   2.963
 4196WAT  HW2  16783   1.316   3.340   3.107
 4196WAT  MW   16784   1.270   3.378   3.045
 4197WAT  OW   16785   6.025   6.110   4.001
 4197WAT  HW1  16786   5.993   6.068   4.080
 4197WAT  HW2  16787   5.965   6.081   3.932
 4197WAT  MW   16788   6.013   6.101   4.002
 4198WAT  OW   16789   0.898   1.689   3.783
 4198WAT  HW1  16790   0.880   1.625   3.852
 4198WAT  HW2  16791   0.942   1.638   3.714
 4198WAT  MW   16792   0.901   1.673   3.783
 4199WAT  OW   16793   2.847   3.143   1.228
 4199WAT  HW1  16794   2.830   3.053   1.201
 4199WAT  HW2  16795   2.929   3.139   1.277
 4199WAT  MW   16796   2.856   3.130   1.231
 4200WAT  OW   16797   4.725   3.085   2.695
 4200WAT  HW1  16798   4.697   3.047   2.612
 4200WAT  HW2  16799   4.787   3.154   2.669
 4200WAT  MW   16800   4.730   3.089   2.680
 4201WAT  OW   16801   4.849   2.405   2.295
 4201WAT  HW1  16802   4.798   2.459   2.355
 4201WAT  HW2  16803   4.795   2.398   2.217
 4201WAT  MW   16804   4.835   2.411   2.293
 4202WAT  OW   16805   6.228   3.408   2.027
 4202WAT  HW1  16806   6.293   3.422   2.096
 4202WAT  HW2  16807   6.258   3.330   1.980
 4202WAT  MW   16808   6.240   3.399   2.030
 4203WAT  OW   16809   1.291   1.988   5.139
 4203WAT  HW1  16810   1.244   2.071   5.141
 4203WAT  HW2  16811   1.314   1.975   5.047
 4203WAT  MW   16812   1.288   1.997   5.128
 4204WAT  OW   16813   6.213   0.883   1.575
 4204WAT  HW1  16814   6.187   0.801   1.533
 4204WAT  HW2  16815   6.132   0.918   1.611
 4204WAT  MW   16816   6.199   0.877   1.574
 4205WAT  OW   16817   5.263   0.833   1.233
 4205WAT  HW1  16818   5.299   0.907   1.184
 4205WAT  HW2  16819   5.276   0.857   1.325
 4205WAT  MW   16820   5.270   0.846   1.239
 4206WAT  OW   16821   4.536   2.429   6.166
 4206WAT  HW1  16822   4.623   2.400   6.195
 4206WAT  HW2  16823   4.544   2.436   6.071
 4206WAT  MW   16824   4.549   2.426   6.157
 4207WAT  OW   16825   2.271   5.978   4.901
 4207WAT  HW1  16826   2.315   5.904   4.859
 4207WAT  HW2  16827   2.247   6.036   4.829
 4207WAT  MW   16828   2.273   5.976   4.886
 4208WAT  OW   16829   4.445   1.286   2.505
 4208WAT  HW1  16830   4.485   1.372   2.491
 4208WAT  HW2  16831   4.494   1.227   2.447
 4208WAT  MW   16832   4.457   1.289   2.496
 4209WAT  OW   16833   0.623   1.185   2.925
 4209WAT  HW1  16834   0.647   1.183   3.017
 4209WAT  HW2  16835   0.650   1.272   2.895
 4209WAT  MW   16836   0.629   1.196   2.933
 4210WAT  OW   16837   6.574   6.425   4.509
 4210WAT  HW1  16838   6.479   6.414   4.516
 4210WAT  HW2  16839   6.589   6.517   4.527
 4210WAT  MW   16840   6.563   6.435   4.512
 4211WAT  OW   16841   1.645   1.930   0.321
 4211WAT  HW1  16842   1.560   1.889   0.333
 4211WAT  HW2  16843   1.708   1.866   0.355
 4211WAT  MW   16844   1.642   1.916   0.327
 4212WAT  OW   16845   0.329   3.177   3.531
 4212WAT  HW1  16846   0.286   3.123   3.596
 4212WAT  HW2  16847   0.268   3.249   3.515
 4212WAT  MW   16848   0.316   3.179   3.537
 4213WAT  OW   16849   1.642   0.990   6.032
 4213WAT  HW1  16850   1.596   0.953   6.107
 4213WAT  HW2  16851   1.573   1.007   5.967
 4213WAT  MW   16852   1.627   0.987   6.033
 4214WAT  OW   16853   2.476   2.006   1.745
 4214WAT  HW1  16854   2.570   2.020   1.732
 4214WAT  HW2  16855   2.458   2.043   1.831
 4214WAT  MW   16856   2.486   2.013   1.754
 4215WAT  OW   16857   2.627   6.411   2.205
 4215WAT  HW1  16858   2.705   6.432   2.256
 4215WAT  HW2  16859   2.561   6.390   2.271
 4215WAT  MW   16860   2.628   6.411   2.220
 4216WAT  OW   16861   2.037   5.729   5.158
 4216WAT  HW1  16862   2.080   5.815   5.160
 4216WAT  HW2  16863   1.975   5.735   5.086
 4216WAT  MW   16864   2.035   5.741   5.149
 4217WAT  OW   16865   1.199   3.715   1.755
 4217WAT  HW1  16866   1.228   3.796   1.798
 4217WAT  HW2  16867   1.276   3.658   1.758
 4217WAT  MW   16868   1.213   3.718   1.761
 4218WAT  OW   16869   1.414   1.013   3.048
 4218WAT  HW1  16870   1.408   0.921   3.075
 4218WAT  HW2  16871   1.508   1.032   3.050
 4218WAT  MW   16872   1.426   1.003   3.052
 4219WAT  OW   16873   6.043   4.395   2.370
 4219WAT  HW1  16874   5.990   4.321   2.400
 4219WAT  HW2  16875   5.996   4.430   2.295
 4219WAT  MW   16876   6.030   4.390   2.364
 4220WAT  OW   16877   4.295   2.908   4.018
 4220WAT  HW1  16878   4.222   2.862   3.976
 4220WAT  HW2  16879   4.265   2.926   4.107
 4220WAT  MW   16880   4.282   2.905   4.024
 4221WAT  OW   16881   5.970   1.328   0.872
 4221WAT  HW1  16882   5.876   1.324   0.887
 4221WAT  HW2  16883   6.007   1.353   0.956
 4221WAT  MW   16884   5.963   1.330   0.885
 4222WAT  OW   16885   3.226   3.952   0.065
 4222WAT  HW1  16886   3.293   3.996   0.013
 4222WAT  HW2  16887   3.178   3.898   0.001
 4222WAT  MW   16888   3.229   3.951   0.049
 4223WAT  OW   16889   1.998   2.405   5.794
 4223WAT  HW1  16890   1.987   2.500   5.802
 4223WAT  HW2  16891   1.989   2.389   5.700
 4223WAT  MW   16892   1.995   2.416   5.783
 4224WAT  OW   16893   2.447   4.066   0.712
 4224WAT  HW1  16894   2.496   4.068   0.794
 4224WAT  HW2  16895   2.355   4.066   0.739
 4224WAT  MW   16896   2.441   4.066   0.726
 4225WAT  OW   16897   2.825   4.265   2.717
 4225WAT  HW1  16898   2.836   4.354   2.685
 4225WAT  HW2  16899   2.773   4.273   2.797
 4225WAT  MW   16900   2.820   4.278   2.723
 4226WAT  OW   16901   1.306   1.426   2.327
 4226WAT  HW1  16902   1.222   1.386   2.347
 4226WAT  HW2  16903   1.289   1.482   2.251
 4226WAT  MW   16904   1.293   1.428   2.320
 4227WAT  OW   16905   0.456   4.668   6.498
 4227WAT  HW1  16906   0.465   4.574   6.517
 4227WAT  HW2  16907   0.499   4.711   6.571
 4227WAT  MW   16908   0.463   4.661   6.510
 4228WAT  OW   16909   2.316   3.455   2.821
 4228WAT  HW1  16910   2.333   3.549   2.827
 4228WAT  HW2  16911   2.400   3.414   2.844
 4228WAT  MW   16912   2.329   3.462   2.825
 4229WAT  OW   16913   4.042   5.680   5.103
 4229WAT  HW1  16914   3.986   5.684   5.181
 4229WAT  HW2  16915   3.991   5.630   5.039
 4229WAT  MW   16916   4.028   5.674   5.105
 4230WAT  OW   16917   1.754   4.873   6.448
 4230WAT  HW1  16918   1.833   4.897   6.495
 4230WAT  HW2  16919   1.784   4.854   6.359
 4230WAT  MW   16920   1.768   4.874   6.442
 4231WAT  OW   16921   5.774   4.779   5.224
 4231WAT  HW1  16922   5.752   4.802   5.134
 4231WAT  HW2  16923   5.756   4.685   5.230
 4231WAT  MW   16924   5.769   4.769   5.213
 4232WAT  OW   16925   5.896   0.114   1.764
 4232WAT  HW1  16926   5.925   0.158   1.843
 4232WAT  HW2  16927   5.827   0.054   1.793
 4232WAT  MW   16928   5.890   0.112   1.778
 4233WAT  OW   16929   0.752   1.637   2.102
 4233WAT  HW1  16930   0.738   1.561   2.045
 4233WAT  HW2  16931   0.680   1.634   2.164
 4233WAT  MW   16932   0.741   1.626   2.102
 4234WAT  OW   16933   4.699   1.415   5.633
 4234WAT  HW1  16934   4.632   1.366   5.586
 4234WAT  HW2  16935   4.738   1.351   5.693
 4234WAT  MW   16936   4.696   1.400   5.635
 4235WAT  OW   16937   3.268   0.863   4.153
 4235WAT  HW1  16938   3.252   0.927   4.084
 4235WAT  HW2  16939   3.218   0.786   4.127
 4235WAT  MW   16940   3.259   0.861   4.141
 4236WAT  OW   16941   2.520   4.232   2.362
 4236WAT  HW1  16942   2.506   4.221   2.456
 4236WAT  HW2  16943   2.535   4.143   2.330
 4236WAT  MW   16944   2.520   4.219   2.370
 4237WAT  OW   16945   3.685   4.284   2.514
 4237WAT  HW1  16946   3.629   4.287   2.436
 4237WAT  HW2  16947   3.721   4.373   2.521
 4237WAT  MW   16948   3.683   4.296   2.504
 4238WAT  OW   16949   5.373   6.059   1.921
 4238WAT  HW1  16950   5.345   6.008   1.997
 4238WAT  HW2  16951   5.337   6.012   1.846
 4238WAT  MW   16952   5.364   6.046   1.922
 4239WAT  OW   16953   4.206   1.206   5.036
 4239WAT  HW1  16954   4.132   1.144   5.034
 4239WAT  HW2  16955   4.165   1.292   5.033
 4239WAT  MW   16956   4.191   1.209   5.035
 4240WAT  OW   16957   1.404   1.063   5.915
 4240WAT  HW1  16958   1.333   1.063   5.851
 4240WAT  HW2  16959   1.412   1.154   5.943
 4240WAT  MW   16960   1.396   1.075   5.910
 4241WAT  OW   16961   6.568   2.544   5.004
 4241WAT  HW1  16962   6.622   2.487   4.949
 4241WAT  HW2  16963   6.631   2.586   5.063
 4241WAT  MW   16964   6.584   2.542   5.004
 4242WAT  OW   16965   1.778   6.620   6.625
 4242WAT  HW1  16966   1.772   6.712   6.648
 4242WAT  HW2  16967   1.871   6.598   6.634
 4242WAT  MW   16968   1.789   6.629   6.629
 4243WAT  OW   16969   3.550   2.670   0.655
 4243WAT  HW1  16970   3.499   2.669   0.574
 4243WAT  HW2  16971   3.486   2.665   0.725
 4243WAT  MW   16972   3.535   2.669   0.654
 4244WAT  OW   16973   4.773   5.377   2.554
 4244WAT  HW1  16974   4.797   5.469   2.547
 4244WAT  HW2  16975   4.845   5.337   2.602
 4244WAT  MW   16976   4.786   5.384   2.559
 4245WAT  OW   16977   5.682   0.751   1.843
 4245WAT  HW1  16978   5.629   0.727   1.918
 4245WAT  HW2  16979   5.716   0.838   1.864
 4245WAT  MW   16980   5.679   0.759   1.856
 4246WAT  OW   16981   5.725   1.652   6.658
 4246WAT  HW1  16982   5.689   1.566   6.637
 4246WAT  HW2  16983   5.704   1.665   6.750
 4246WAT  MW   16984   5.717   1.643   6.668
 4247WAT  OW   16985   5.282   3.088   2.799
 4247WAT  HW1  16986   5.349   3.153   2.820
 4247WAT  HW2  16987   5.214   3.102   2.865
 4247WAT  MW   16988   5.282   3.098   2.811
 4248WAT  OW   16989   3.923   6.657   2.822
 4248WAT  HW1  16990   3.889   6.658   2.732
 4248WAT  HW2  16991   3.846   6.671   2.877
 4248WAT  MW   16992   3.909   6.659   2.817
 4249WAT  OW   16993   4.469   2.341   4.884
 4249WAT  HW1  16994   4.454   2.249   4.861
 4249WAT  HW2  16995   4.542   2.339   4.946
 4249WAT  MW   16996   4.477   2.329   4.889
 4250WAT  OW   16997   1.985   2.181   6.210
 4250WAT  HW1  16998   2.039   2.249   6.251
 4250WAT  HW2  16999   1.984   2.203   6.117
 4250WAT  MW   17000   1.992   2.193   6.203
 4251WAT  OW   17001   4.513   4.316   1.470
 4251WAT  HW1  17002   4.513   4.348   1.560
 4251WAT  HW2  17003   4.591   4.261   1.463
 4251WAT  MW   17004   4.523   4.313   1.481
 4252WAT  OW   17005   1.356   2.165   5.602
 4252WAT  HW1  17006   1.435   2.206   5.638
 4252WAT  HW2  17007   1.388   2.107   5.534
 4252WAT  MW   17008   1.370   2.163   5.598
 4253WAT  OW   17009   2.713   1.569   1.474
 4253WAT  HW1  17010   2.728   1.632   1.544
 4253WAT  HW2  17011   2.681   1.490   1.518
 4253WAT  MW   17012   2.711   1.567   1.489
 4254WAT  OW   17013   2.372   4.363   0.782
 4254WAT  HW1  17014   2.391   4.273   0.808
 4254WAT  HW2  17015   2.440   4.386   0.720
 4254WAT  MW   17016   2.383   4.354   0.778
 4255WAT  OW   17017   1.928   4.887   1.709
 4255WAT  HW1  17018   2.014   4.927   1.720
 4255WAT  HW2  17019   1.905   4.853   1.795
 4255WAT  MW   17020   1.936   4.887   1.722
 4256WAT  OW   17021   0.251   6.038   3.563
 4256WAT  HW1  17022   0.237   6.118   3.511
 4256WAT  HW2  17023   0.188   6.045   3.635
 4256WAT  MW   17024   0.241   6.049   3.565
 4257WAT  OW   17025   2.916   4.463   4.087
 4257WAT  HW1  17026   2.964   4.383   4.111
 4257WAT  HW2  17027   2.954   4.490   4.004
 4257WAT  MW   17028   2.928   4.456   4.080
 4258WAT  OW   17029   1.753   3.151   4.288
 4258WAT  HW1  17030   1.771   3.205   4.365
 4258WAT  HW2  17031   1.772   3.062   4.317
 4258WAT  MW   17032   1.758   3.146   4.302
 4259WAT  OW   17033   0.712   4.953   5.894
 4259WAT  HW1  17034   0.715   4.941   5.989
 4259WAT  HW2  17035   0.641   4.896   5.864
 4259WAT  MW   17036   0.703   4.944   5.902
 4260WAT  OW   17037   0.755   5.876   1.092
 4260WAT  HW1  17038   0.704   5.954   1.070
 4260WAT  HW2  17039   0.766   5.881   1.187
 4260WAT  MW   17040   0.750   5.887   1.102
 4261WAT  OW   17041   5.686   1.803   4.742
 4261WAT  HW1  17042   5.750   1.822   4.673
 4261WAT  HW2  17043   5.629   1.879   4.745
 4261WAT  MW   17044   5.687   1.815   4.733
 4262WAT  OW   17045   5.005   2.991   4.121
 4262WAT  HW1  17046   4.959   3.059   4.072
 4262WAT  HW2  17047   4.936   2.937   4.160
 4262WAT  MW   17048   4.990   2.992   4.120
 4263WAT  OW   17049   3.822   3.552   0.649
 4263WAT  HW1  17050   3.819   3.598   0.565
 4263WAT  HW2  17051   3.914   3.528   0.660
 4263WAT  MW   17052   3.834   3.555   0.639
 4264WAT  OW   17053   1.696   1.323   5.379
 4264WAT  HW1  17054   1.725   1.378   5.306
 4264WAT  HW2  17055   1.663   1.384   5.444
 4264WAT  MW   17056   1.696   1.338   5.378
 4265WAT  OW   17057   0.487   3.675   5.316
 4265WAT  HW1  17058   0.514   3.600   5.368
 4265WAT  HW2  17059   0.549   3.744   5.339
 4265WAT  MW   17060   0.498   3.675   5.326
 4266WAT  OW   17061   4.605   5.775   2.566
 4266WAT  HW1  17062   4.556   5.737   2.639
 4266WAT  HW2  17063   4.540   5.829   2.519
 4266WAT  MW   17064   4.590   5.777   2.569
 4267WAT  OW   17065   2.635   5.752   0.838
 4267WAT  HW1  17066   2.699   5.737   0.908
 4267WAT  HW2  17067   2.634   5.670   0.788
 4267WAT  MW   17068   2.643   5.739   0.840
 4268WAT  OW   17069   0.084   2.896   2.667
 4268WAT  HW1  17070   0.086   2.800   2.675
 4268WAT  HW2  17071   0.029   2.912   2.591
 4268WAT  MW   17072   0.077   2.885   2.658
 4269WAT  OW   17073   5.686   1.345   0.944
 4269WAT  HW1  17074   5.638   1.331   0.862
 4269WAT  HW2  17075   5.641   1.419   0.986
 4269WAT  MW   17076   5.673   1.353   0.939
 4270WAT  OW   17077   0.691   2.354   4.192
 4270WAT  HW1  17078   0.674   2.266   4.224
 4270WAT  HW2  17079   0.608   2.382   4.153
 4270WAT  MW   17080   0.678   2.346   4.191
 4271WAT  OW   17081   3.982   4.605   1.766
 4271WAT  HW1  17082   3.961   4.687   1.811
 4271WAT  HW2  17083   4.024   4.551   1.833
 4271WAT  MW   17084   3.985   4.609   1.781
 4272WAT  OW   17085   3.702   0.932   6.027
 4272WAT  HW1  17086   3.704   0.838   6.046
 4272WAT  HW2  17087   3.737   0.939   5.938
 4272WAT  MW   17088   3.707   0.920   6.017
 4273WAT  OW   17089   0.184   2.248   4.748
 4273WAT  HW1  17090   0.275   2.271   4.761
 4273WAT  HW2  17091   0.139   2.332   4.738
 4273WAT  MW   17092   0.190   2.262   4.748
 4274WAT  OW   17093   3.047   5.680   3.412
 4274WAT  HW1  17094   3.067   5.634   3.330
 4274WAT  HW2  17095   2.961   5.718   3.399
 4274WAT  MW   17096   3.038   5.679   3.400
 4275WAT  OW   17097   0.131   3.282   2.535
 4275WAT  HW1  17098   0.208   3.339   2.529
 4275WAT  HW2  17099   0.141   3.237   2.619
 4275WAT  MW   17100   0.143   3.284   2.545
 4276WAT  OW   17101   3.173   4.644   0.967
 4276WAT  HW1  17102   3.223   4.693   0.902
 4276WAT  HW2  17103   3.144   4.566   0.920
 4276WAT  MW   17104   3.176   4.640   0.952
 4277WAT  OW   17105   0.688   6.214   0.062
 4277WAT  HW1  17106   0.661   6.237   0.151
 4277WAT  HW2  17107   0.612   6.169   0.025
 4277WAT  MW   17108   0.674   6.211   0.069
 4278WAT  OW   17109   2.402   3.816   4.760
 4278WAT  HW1  17110   2.443   3.798   4.845
 4278WAT  HW2  17111   2.474   3.813   4.697
 4278WAT  MW   17112   2.417   3.813   4.763
 4279WAT  OW   17113   1.292   5.883   2.117
 4279WAT  HW1  17114   1.337   5.820   2.062
 4279WAT  HW2  17115   1.353   5.956   2.125
 4279WAT  MW   17116   1.306   5.885   2.111
 4280WAT  OW   17117   3.265   3.123   0.171
 4280WAT  HW1  17118   3.285   3.210   0.134
 4280WAT  HW2  17119   3.307   3.123   0.257
 4280WAT  MW   17120   3.274   3.135   0.177
 4281WAT  OW   17121   1.907   4.211   3.810
 4281WAT  HW1  17122   1.837   4.154   3.841
 4281WAT  HW2  17123   1.877   4.300   3.829
 4281WAT  MW   17124   1.894   4.215   3.816
 4282WAT  OW   17125   4.210   3.497   2.842
 4282WAT  HW1  17126   4.304   3.511   2.837
 4282WAT  HW2  17127   4.178   3.566   2.900
 4282WAT  MW   17128   4.218   3.508   2.849
 4283WAT  OW   17129   3.532   4.313   5.891
 4283WAT  HW1  17130   3.597   4.243   5.882
 4283WAT  HW2  17131   3.544   4.346   5.980
 4283WAT  MW   17132   3.542   4.308   5.901
 4284WAT  OW   17133   2.148   3.902   3.440
 4284WAT  HW1  17134   2.145   3.970   3.506
 4284WAT  HW2  17135   2.179   3.947   3.361
 4284WAT  MW   17136   2.152   3.917   3.438
 4285WAT  OW   17137   0.172   0.063   6.279
 4285WAT  HW1  17138   0.203   0.129   6.341
 4285WAT  HW2  17139   0.116   0.005   6.331
 4285WAT  MW   17140   0.169   0.064   6.294
 4286WAT  OW   17141   1.084   0.104   4.169
 4286WAT  HW1  17142   1.053   0.193   4.156
 4286WAT  HW2  17143   1.037   0.052   4.104
 4286WAT  MW   17144   1.074   0.109   4.159
 4287WAT  OW   17145   2.870   6.370   0.013
 4287WAT  HW1  17146   2.900   6.279   0.023
 4287WAT  HW2  17147   2.826   6.371  -0.072
 4287WAT  MW   17148   2.868   6.358   0.003
 4288WAT  OW   17149   2.167   4.726   3.144
 4288WAT  HW1  17150   2.230   4.707   3.214
 4288WAT  HW2  17151   2.221   4.755   3.070
 4288WAT  MW   17152   2.183   4.727   3.143
 4289WAT  OW   17153   0.960   3.110   2.113
 4289WAT  HW1  17154   0.982   3.168   2.040
 4289WAT  HW2  17155   0.904   3.162   2.169
 4289WAT  MW   17156   0.956   3.124   2.110
 4290WAT  OW   17157   3.211   3.405   2.795
 4290WAT  HW1  17158   3.282   3.414   2.860
 4290WAT  HW2  17159   3.249   3.351   2.726
 4290WAT  MW   17160   3.226   3.399   2.795
 4291WAT  OW   17161   2.740   0.235   4.577
 4291WAT  HW1  17162   2.725   0.141   4.571
 4291WAT  HW2  17163   2.794   0.256   4.501
 4291WAT  MW   17164   2.745   0.225   4.566
 4292WAT  OW   17165   0.512   0.470   1.791
 4292WAT  HW1  17166   0.527   0.518   1.872
 4292WAT  HW2  17167   0.442   0.518   1.748
 4292WAT  MW   17168   0.504   0.482   1.796
 4293WAT  OW   17169   6.352   5.091   1.324
 4293WAT  HW1  17170   6.379   5.177   1.354
 4293WAT  HW2  17171   6.425   5.061   1.269
 4293WAT  MW   17172   6.365   5.098   1.321
 4294WAT  OW   17173   0.697   5.709   4.091
 4294WAT  HW1  17174   0.636   5.688   4.161
 4294WAT  HW2  17175   0.763   5.764   4.132
 4294WAT  MW   17176   0.697   5.713   4.105
 4295WAT  OW   17177   4.665   0.259   1.096
 4295WAT  HW1  17178   4.654   0.323   1.167
 4295WAT  HW2  17179   4.719   0.190   1.134
 4295WAT  MW   17180   4.671   0.258   1.110
 4296WAT  OW   17181   4.730   1.799   1.384
 4296WAT  HW1  17182   4.712   1.739   1.456
 4296WAT  HW2  17183   4.791   1.752   1.327
 4296WAT  MW   17184   4.736   1.785   1.386
 4297WAT  OW   17185   3.818   0.341   2.627
 4297WAT  HW1  17186   3.851   0.370   2.712
 4297WAT  HW2  17187   3.782   0.420   2.587
 4297WAT  MW   17188   3.818   0.355   2.633
 4298WAT  OW   17189   4.774   0.357   5.288
 4298WAT  HW1  17190   4.823   0.324   5.212
 4298WAT  HW2  17191   4.832   0.423   5.327
 4298WAT  MW   17192   4.788   0.362   5.283
 4299WAT  OW   17193   4.394   1.656   6.404
 4299WAT  HW1  17194   4.310   1.702   6.405
 4299WAT  HW2  17195   4.385   1.592   6.334
 4299WAT  MW   17196   4.382   1.653   6.395
 4300WAT  OW   17197   6.027   3.256   5.458
 4300WAT  HW1  17198   6.083   3.179   5.473
 4300WAT  HW2  17199   5.941   3.219   5.438
 4300WAT  MW   17200   6.023   3.241   5.457
 4301WAT  OW   17201   5.868   0.904   2.189
 4301WAT  HW1  17202   5.773   0.907   2.196
 4301WAT  HW2  17203   5.890   0.982   2.137
 4301WAT  MW   17204   5.858   0.915   2.183
 4302WAT  OW   17205   1.505   4.132   0.383
 4302WAT  HW1  17206   1.586   4.169   0.419
 4302WAT  HW2  17207   1.504   4.160   0.292
 4302WAT  MW   17208   1.516   4.140   0.376
 4303WAT  OW   17209   2.701   6.047   6.605
 4303WAT  HW1  17210   2.631   6.012   6.660
 4303WAT  HW2  17211   2.781   6.028   6.653
 4303WAT  MW   17212   2.702   6.040   6.618
 4304WAT  OW   17213   1.560   2.509   6.568
 4304WAT  HW1  17214   1.585   2.416   6.567
 4304WAT  HW2  17215   1.642   2.555   6.547
 4304WAT  MW   17216   1.574   2.503   6.565
 4305WAT  OW   17217   2.677   0.224   6.472
 4305WAT  HW1  17218   2.735   0.148   6.473
 4305WAT  HW2  17219   2.726   0.292   6.518
 4305WAT  MW   17220   2.691   0.223   6.479
 4306WAT  OW   17221   5.566   6.370   5.812
 4306WAT  HW1  17222   5.521   6.308   5.869
 4306WAT  HW2  17223   5.525   6.454   5.832
 4306WAT  MW   17224   5.555   6.373   5.822
 4307WAT  OW   17225   3.287   1.484   5.533
 4307WAT  HW1  17226   3.224   1.553   5.509
 4307WAT  HW2  17227   3.309   1.442   5.451
 4307WAT  MW   17228   3.282   1.488   5.519
 4308WAT  OW   17229   0.173   5.616   2.722
 4308WAT  HW1  17230   0.135   5.545   2.669
 4308WAT  HW2  17231   0.132   5.695   2.688
 4308WAT  MW   17232   0.162   5.617   2.711
 4309WAT  OW   17233   1.463   1.404   3.774
 4309WAT  HW1  17234   1.414   1.479   3.741
 4309WAT  HW2  17235   1.396   1.343   3.804
 4309WAT  MW   17236   1.448   1.406   3.773
 4310WAT  OW   17237   5.863   0.641   2.138
 4310WAT  HW1  17238   5.891   0.732   2.125
 4310WAT  HW2  17239   5.884   0.597   2.055
 4310WAT  MW   17240   5.870   0.647   2.125
 4311WAT  OW   17241   2.706   6.357   5.522
 4311WAT  HW1  17242   2.782   6.347   5.579
 4311WAT  HW2  17243   2.693   6.271   5.483
 4311WAT  MW   17244   2.714   6.345   5.524
 4312WAT  OW   17245   6.624   4.807   5.794
 4312WAT  HW1  17246   6.567   4.735   5.766
 4312WAT  HW2  17247   6.634   4.795   5.888
 4312WAT  MW   17248   6.618   4.796   5.802
 4313WAT  OW   17249   3.719   0.771   5.644
 4313WAT  HW1  17250   3.754   0.796   5.559
 4313WAT  HW2  17251   3.768   0.822   5.708
 4313WAT  MW   17252   3.730   0.781   5.642
 4314WAT  OW   17253   1.373   5.748   3.073
 4314WAT  HW1  17254   1.434   5.689   3.118
 4314WAT  HW2  17255   1.328   5.691   3.010
 4314WAT  MW   17256   1.375   5.733   3.071
 4315WAT  OW   17257   5.355   1.918   3.840
 4315WAT  HW1  17258   5.405   1.962   3.771
 4315WAT  HW2  17259   5.334   1.987   3.903
 4315WAT  MW   17260   5.359   1.933   3.839
 4316WAT  OW   17261   4.238   2.201   6.572
 4316WAT  HW1  17262   4.248   2.106   6.574
 4316WAT  HW2  17263   4.287   2.231   6.648
 4316WAT  MW   17264   4.246   2.192   6.582
 4317WAT  OW   17265   2.198   0.335   5.945
 4317WAT  HW1  17266   2.291   0.325   5.967
 4317WAT  HW2  17267   2.153   0.274   6.003
 4317WAT  MW   17268   2.205   0.326   5.956
 4318WAT  OW   17269   0.905   3.004   1.685
 4318WAT  HW1  17270   0.825   3.030   1.639
 4318WAT  HW2  17271   0.873   2.972   1.770
 4318WAT  MW   17272   0.890   3.003   1.691
 4319WAT  OW   17273   1.446   4.095   0.092
 4319WAT  HW1  17274   1.430   4.071   0.001
 4319WAT  HW2  17275   1.527   4.050   0.115
 4319WAT  MW   17276   1.454   4.086   0.083
 4320WAT  OW   17277   1.441   4.202   2.304
 4320WAT  HW1  17278   1.437   4.177   2.212
 4320WAT  HW2  17279   1.441   4.119   2.352
 4320WAT  MW   17280   1.440   4.187   2.298
 4321WAT  OW   17281   2.870   3.428   5.937
 4321WAT  HW1  17282   2.879   3.518   5.906
 4321WAT  HW2  17283   2.814   3.386   5.872
 4321WAT  MW   17284   2.864   3.434   5.925
 4322WAT  OW   17285   0.035   0.667   4.706
 4322WAT  HW1  17286   0.004   0.618   4.782
 4322WAT  HW2  17287   0.127   0.684   4.724
 4322WAT  MW   17288   0.043   0.663   4.718
 4323WAT  OW   17289   3.055   0.671   5.499
 4323WAT  HW1  17290   3.136   0.621   5.485
 4323WAT  HW2  17291   3.074   0.758   5.464
 4323WAT  MW   17292   3.069   0.676   5.493
 4324WAT  OW   17293   0.418   2.522   0.732
 4324WAT  HW1  17294   0.428   2.598   0.675
 4324WAT  HW2  17295   0.505   2.481   0.733
 4324WAT  MW   17296   0.431   2.526   0.724
 4325WAT  OW   17297   0.737   5.459   0.748
 4325WAT  HW1  17298   0.763   5.505   0.668
 4325WAT  HW2  17299   0.813   5.405   0.770
 4325WAT  MW   17300   0.750   5.458   0.740
 4326WAT  OW   17301   3.360   6.267   0.376
 4326WAT  HW1  17302   3.424   6.278   0.446
 4326WAT  HW2  17303   3.389   6.188   0.330
 4326WAT  MW   17304   3.373   6.258   0.379
 4327WAT  OW   17305   3.871   0.715   1.686
 4327WAT  HW1  17306   3.800   0.651   1.697
 4327WAT  HW2  17307   3.826   0.797   1.666
 4327WAT  MW   17308   3.855   0.717   1.685
 4328WAT  OW   17309   6.103   4.642   2.514
 4328WAT  HW1  17310   6.126   4.602   2.598
 4328WAT  HW2  17311   6.089   4.568   2.455
 4328WAT  MW   17312   6.104   4.627   2.518
 4329WAT  OW   17313   5.933   6.193   1.977
 4329WAT  HW1  17314   5.943   6.124   1.912
 4329WAT  HW2  17315   5.859   6.245   1.946
 4329WAT  MW   17316   5.925   6.191   1.964
 4330WAT  OW   17317   1.683   6.157   1.372
 4330WAT  HW1  17318   1.658   6.207   1.450
 4330WAT  HW2  17319   1.713   6.224   1.310
 4330WAT  MW   17320   1.684   6.173   1.374
 4331WAT  OW   17321   5.736   5.666   4.668
 4331WAT  HW1  17322   5.828   5.653   4.644
 4331WAT  HW2  17323   5.727   5.760   4.678
 4331WAT  MW   17324   5.747   5.676   4.666
 4332WAT  OW   17325   3.407   4.380   2.841
 4332WAT  HW1  17326   3.411   4.284   2.849
 4332WAT  HW2  17327   3.397   4.395   2.747
 4332WAT  MW   17328   3.407   4.369   2.829
 4333WAT  OW   17329   2.778   6.581   4.386
 4333WAT  HW1  17330   2.773   6.505   4.444
 4333WAT  HW2  17331   2.872   6.600   4.378
 4333WAT  MW   17332   2.790   6.573   4.393
 4334WAT  OW   17333   1.472   1.880   4.463
 4334WAT  HW1  17334   1.378   1.879   4.480
 4334WAT  HW2  17335   1.479   1.893   4.369
 4334WAT  MW   17336   1.461   1.882   4.453
 4335WAT  OW   17337   2.391   0.778   0.779
 4335WAT  HW1  17338   2.312   0.736   0.814
 4335WAT  HW2  17339   2.365   0.813   0.694
 4335WAT  MW   17340   2.377   0.777   0.772
 4336WAT  OW   17341   6.219   5.962   6.488
 4336WAT  HW1  17342   6.145   5.907   6.462
 4336WAT  HW2  17343   6.289   5.900   6.509
 4336WAT  MW   17344   6.219   5.946   6.487
 4337WAT  OW   17345   2.671   5.382   4.898
 4337WAT  HW1  17346   2.696   5.345   4.982
 4337WAT  HW2  17347   2.576   5.372   4.895
 4337WAT  MW   17348   2.662   5.376   4.909
 4338WAT  OW   17349   4.071   1.952   1.417
 4338WAT  HW1  17350   4.114   1.882   1.367
 4338WAT  HW2  17351   4.138   2.019   1.426
 4338WAT  MW   17352   4.086   1.952   1.411
 4339WAT  OW   17353   4.116   6.237   1.821
 4339WAT  HW1  17354   4.126   6.316   1.767
 4339WAT  HW2  17355   4.201   6.225   1.862
 4339WAT  MW   17356   4.128   6.246   1.819
 4340WAT  OW   17357   0.954   0.739   1.373
 4340WAT  HW1  17358   0.928   0.683   1.301
 4340WAT  HW2  17359   0.897   0.816   1.365
 4340WAT  MW   17360   0.943   0.742   1.363
 4341WAT  OW   17361   3.229   1.660   2.546
 4341WAT  HW1  17362   3.281   1.736   2.573
 4341WAT  HW2  17363   3.138   1.686   2.564
 4341WAT  MW   17364   3.224   1.674   2.552
 4342WAT  OW   17365   3.927   1.747   4.259
 4342WAT  HW1  17366   3.984   1.676   4.228
 4342WAT  HW2  17367   3.842   1.729   4.218
 4342WAT  MW   17368   3.923   1.735   4.249
 4343WAT  OW   17369   3.314   1.398   4.307
 4343WAT  HW1  17370   3.272   1.463   4.363
 4343WAT  HW2  17371   3.316   1.318   4.360
 4343WAT  MW   17372   3.309   1.396   4.322
 4344WAT  OW   17373   5.422   3.890   5.067
 4344WAT  HW1  17374   5.332   3.913   5.092
 4344WAT  HW2  17375   5.459   3.972   5.034
 4344WAT  MW   17376   5.415   3.904   5.066
 4345WAT  OW   17377   4.462   0.856   5.361
 4345WAT  HW1  17378   4.418   0.778   5.394
 4345WAT  HW2  17379   4.548   0.855   5.403
 4345WAT  MW   17380   4.468   0.846   5.371
 4346WAT  OW   17381   1.579   2.927   2.795
 4346WAT  HW1  17382   1.516   2.856   2.809
 4346WAT  HW2  17383   1.527   3.007   2.805
 4346WAT  MW   17384   1.564   2.928   2.798
 4347WAT  OW   17385   1.478   5.102   0.199
 4347WAT  HW1  17386   1.447   5.014   0.178
 4347WAT  HW2  17387   1.421   5.160   0.148
 4347WAT  MW   17388   1.466   5.098   0.189
 4348WAT  OW   17389   5.868   0.995   3.876
 4348WAT  HW1  17390   5.963   0.998   3.883
 4348WAT  HW2  17391   5.844   0.910   3.912
 4348WAT  MW   17392   5.877   0.984   3.881
 4349WAT  OW   17393   3.043   2.188   3.147
 4349WAT  HW1  17394   2.955   2.222   3.132
 4349WAT  HW2  17395   3.044   2.164   3.239
 4349WAT  MW   17396   3.032   2.190   3.157
 4350WAT  OW   17397   6.046   0.977   2.389
 4350WAT  HW1  17398   5.959   0.960   2.353
 4350WAT  HW2  17399   6.060   0.906   2.452
 4350WAT  MW   17400   6.037   0.965   2.393
 4351WAT  OW   17401   0.566   2.930   3.172
 4351WAT  HW1  17402   0.506   2.987   3.221
 4351WAT  HW2  17403   0.549   2.842   3.206
 4351WAT  MW   17404   0.556   2.926   3.183
 4352WAT  OW   17405   1.157   4.540   3.746
 4352WAT  HW1  17406   1.248   4.562   3.767
 4352WAT  HW2  17407   1.105   4.590   3.809
 4352WAT  MW   17408   1.162   4.550   3.757
 4353WAT  OW   17409   2.345   5.415   4.539
 4353WAT  HW1  17410   2.321   5.323   4.544
 4353WAT  HW2  17411   2.362   5.431   4.446
 4353WAT  MW   17412   2.344   5.405   4.527
 4354WAT  OW   17413   4.339   1.314   3.873
 4354WAT  HW1  17414   4.387   1.340   3.794
 4354WAT  HW2  17415   4.352   1.220   3.880
 4354WAT  MW   17416   4.347   1.305   3.863
 4355WAT  OW   17417   3.081   1.829   1.662
 4355WAT  HW1  17418   3.112   1.752   1.711
 4355WAT  HW2  17419   3.159   1.883   1.650
 4355WAT  MW   17420   3.096   1.826   1.667
 4356WAT  OW   17421   0.254   3.834   1.579
 4356WAT  HW1  17422   0.184   3.768   1.582
 4356WAT  HW2  17423   0.214   3.912   1.618
 4356WAT  MW   17424   0.240   3.835   1.585
 4357WAT  OW   17425   5.662   3.018   4.911
 4357WAT  HW1  17426   5.655   3.072   4.833
 4357WAT  HW2  17427   5.694   3.077   4.979
 4357WAT  MW   17428   5.665   3.033   4.910
 4358WAT  OW   17429   6.113   4.963   4.290
 4358WAT  HW1  17430   6.051   4.974   4.218
 4358WAT  HW2  17431   6.178   5.032   4.276
 4358WAT  MW   17432   6.113   4.974   4.278
 4359WAT  OW   17433   4.567   1.253   5.883
 4359WAT  HW1  17434   4.503   1.195   5.924
 4359WAT  HW2  17435   4.652   1.224   5.917
 4359WAT  MW   17436   4.570   1.242   5.893
 4360WAT  OW   17437   2.568   3.437   5.365
 4360WAT  HW1  17438   2.618   3.457   5.286
 4360WAT  HW2  17439   2.599   3.500   5.429
 4360WAT  MW   17440   2.579   3.448   5.363
 4361WAT  OW   17441   0.930   0.408   5.903
 4361WAT  HW1  17442   0.865   0.420   5.833
 4361WAT  HW2  17443   1.014   0.417   5.858
 4361WAT  MW   17444   0.933   0.410   5.888
 4362WAT  OW   17445   6.043   0.272   1.985
 4362WAT  HW1  17446   6.003   0.272   2.072
 4362WAT  HW2  17447   6.077   0.360   1.975
 4362WAT  MW   17448   6.042   0.283   1.995
 4363WAT  OW   17449   6.496   0.648   4.892
 4363WAT  HW1  17450   6.466   0.736   4.871
 4363WAT  HW2  17451   6.417   0.603   4.923
 4363WAT  MW   17452   6.481   0.654   4.893
 4364WAT  OW   17453   1.819   5.041   2.595
 4364WAT  HW1  17454   1.906   5.032   2.633
 4364WAT  HW2  17455   1.761   5.047   2.671
 4364WAT  MW   17456   1.823   5.040   2.610
 4365WAT  OW   17457   0.964   6.689   3.923
 4365WAT  HW1  17458   1.007   6.604   3.908
 4365WAT  HW2  17459   1.001   6.746   3.856
 4365WAT  MW   17460   0.975   6.685   3.912
 4366WAT  OW   17461   1.359   1.395   1.464
 4366WAT  HW1  17462   1.417   1.403   1.388
 4366WAT  HW2  17463   1.418   1.390   1.539
 4366WAT  MW   17464   1.374   1.395   1.464
 4367WAT  OW   17465   3.081   5.937   1.464
 4367WAT  HW1  17466   3.071   5.850   1.426
 4367WAT  HW2  17467   3.069   5.925   1.558
 4367WAT  MW   17468   3.078   5.924   1.471
 4368WAT  OW   17469   2.553   1.175   3.770
 4368WAT  HW1  17470   2.505   1.222   3.703
 4368WAT  HW2  17471   2.637   1.154   3.729
 4368WAT  MW   17472   2.558   1.179   3.756
 4369WAT  OW   17473   1.381   4.866   4.822
 4369WAT  HW1  17474   1.444   4.886   4.892
 4369WAT  HW2  17475   1.336   4.949   4.807
 4369WAT  MW   17476   1.384   4.880   4.829
 4370WAT  OW   17477   1.681   3.996   5.668
 4370WAT  HW1  17478   1.769   3.987   5.704
 4370WAT  HW2  17479   1.672   3.922   5.607
 4370WAT  MW   17480   1.691   3.985   5.665
 4371WAT  OW   17481   0.253   1.423   4.580
 4371WAT  HW1  17482   0.287   1.432   4.491
 4371WAT  HW2  17483   0.160   1.403   4.568
 4371WAT  MW   17484   0.245   1.422   4.567
 4372WAT  OW   17485   3.901   6.673   2.028
 4372WAT  HW1  17486   3.964   6.710   1.967
 4372WAT  HW2  17487   3.820   6.721   2.012
 4372WAT  MW   17488   3.899   6.684   2.018
 4373WAT  OW   17489   3.733   0.918   4.991
 4373WAT  HW1  17490   3.741   0.857   4.918
 4373WAT  HW2  17491   3.775   0.874   5.065
 4373WAT  MW   17492   3.739   0.904   4.991
 4374WAT  OW   17493   3.329   2.479   6.667
 4374WAT  HW1  17494   3.264   2.429   6.716
 4374WAT  HW2  17495   3.412   2.460   6.711
 4374WAT  MW   17496   3.331   2.470   6.680
 4375WAT  OW   17497   3.545   6.135   4.879
 4375WAT  HW1  17498   3.616   6.080   4.912
 4375WAT  HW2  17499   3.466   6.080   4.888
 4375WAT  MW   17500   3.544   6.120   4.885
 4376WAT  OW   17501   3.474   3.260   4.512
 4376WAT  HW1  17502   3.514   3.195   4.569
 4376WAT  HW2  17503   3.548   3.302   4.468
 4376WAT  MW   17504   3.489   3.257   4.514
 4377WAT  OW   17505   4.038   5.717   0.505
 4377WAT  HW1  17506   4.116   5.771   0.495
 4377WAT  HW2  17507   4.060   5.655   0.575
 4377WAT  MW   17508   4.051   5.716   0.513
 4378WAT  OW   17509   3.498   5.545   6.301
 4378WAT  HW1  17510   3.560   5.548   6.375
 4378WAT  HW2  17511   3.438   5.474   6.324
 4378WAT  MW   17512   3.498   5.536   6.314
 4379WAT  OW   17513   3.770   4.753   2.106
 4379WAT  HW1  17514   3.732   4.667   2.091
 4379WAT  HW2  17515   3.703   4.815   2.075
 4379WAT  MW   17516   3.756   4.750   2.100
 4380WAT  OW   17517   4.730   4.757   2.683
 4380WAT  HW1  17518   4.772   4.839   2.655
 4380WAT  HW2  17519   4.652   4.786   2.730
 4380WAT  MW   17520   4.725   4.772   2.685
 4381WAT  OW   17521   0.221   6.495   2.384
 4381WAT  HW1  17522   0.235   6.511   2.478
 4381WAT  HW2  17523   0.208   6.582   2.346
 4381WAT  MW   17524   0.221   6.509   2.392
 4382WAT  OW   17525   4.530   6.294   5.090
 4382WAT  HW1  17526   4.590   6.254   5.152
 4382WAT  HW2  17527   4.504   6.223   5.032
 4382WAT  MW   17528   4.534   6.280   5.090
 4383WAT  OW   17529   4.874   5.437   3.286
 4383WAT  HW1  17530   4.928   5.477   3.218
 4383WAT  HW2  17531   4.930   5.435   3.363
 4383WAT  MW   17532   4.889   5.442   3.287
 4384WAT  OW   17533   3.770   3.548   2.602
 4384WAT  HW1  17534   3.847   3.514   2.647
 4384WAT  HW2  17535   3.702   3.482   2.617
 4384WAT  MW   17536   3.771   3.535   2.610
 4385WAT  OW   17537   3.885   3.718   2.216
 4385WAT  HW1  17538   3.868   3.625   2.227
 4385WAT  HW2  17539   3.811   3.750   2.164
 4385WAT  MW   17540   3.873   3.710   2.210
 4386WAT  OW   17541   3.230   3.746   3.681
 4386WAT  HW1  17542   3.247   3.656   3.656
 4386WAT  HW2  17543   3.304   3.771   3.737
 4386WAT  MW   17544   3.242   3.738   3.685
 4387WAT  OW   17545   5.976   4.166   6.580
 4387WAT  HW1  17546   5.948   4.114   6.505
 4387WAT  HW2  17547   6.069   4.180   6.566
 4387WAT  MW   17548   5.984   4.161   6.568
 4388WAT  OW   17549   5.587   5.766   2.019
 4388WAT  HW1  17550   5.590   5.739   2.111
 4388WAT  HW2  17551   5.596   5.861   2.022
 4388WAT  MW   17552   5.589   5.775   2.032
 4389WAT  OW   17553   5.443   3.501   2.872
 4389WAT  HW1  17554   5.476   3.412   2.890
 4389WAT  HW2  17555   5.382   3.519   2.943
 4389WAT  MW   17556   5.439   3.491   2.883
 4390WAT  OW   17557   1.151   5.174   1.494
 4390WAT  HW1  17558   1.225   5.228   1.466
 4390WAT  HW2  17559   1.184   5.085   1.489
 4390WAT  MW   17560   1.165   5.170   1.489
 4391WAT  OW   17561   3.866   0.640   0.509
 4391WAT  HW1  17562   3.784   0.601   0.477
 4391WAT  HW2  17563   3.854   0.645   0.603
 4391WAT  MW   17564   3.854   0.635   0.517
 4392WAT  OW   17565   1.030   3.660   1.535
 4392WAT  HW1  17566   1.088   3.662   1.611
 4392WAT  HW2  17567   0.973   3.584   1.549
 4392WAT  MW   17568   1.030   3.651   1.547
 4393WAT  OW   17569   4.295   2.083   4.556
 4393WAT  HW1  17570   4.260   2.015   4.499
 4393WAT  HW2  17571   4.387   2.089   4.533
 4393WAT  MW   17572   4.302   2.075   4.546
 4394WAT  OW   17573   3.309   6.274   4.066
 4394WAT  HW1  17574   3.349   6.265   3.980
 4394WAT  HW2  17575   3.219   6.243   4.054
 4394WAT  MW   17576   3.302   6.268   4.053
 4395WAT  OW   17577   6.381   1.715   5.324
 4395WAT  HW1  17578   6.448   1.685   5.386
 4395WAT  HW2  17579   6.431   1.761   5.255
 4395WAT  MW   17580   6.397   1.717   5.323
 4396WAT  OW   17581   1.581   3.816   6.657
 4396WAT  HW1  17582   1.648   3.884   6.666
 4396WAT  HW2  17583   1.586   3.790   6.566
 4396WAT  MW   17584   1.590   3.822   6.646
 4397WAT  OW   17585   2.411   1.514   6.508
 4397WAT  HW1  17586   2.394   1.604   6.536
 4397WAT  HW2  17587   2.500   1.517   6.473
 4397WAT  MW   17588   2.420   1.526   6.507
 4398WAT  OW   17589   3.605   4.655   6.233
 4398WAT  HW1  17590   3.644   4.605   6.162
 4398WAT  HW2  17591   3.571   4.589   6.293
 4398WAT  MW   17592   3.606   4.640   6.232
 4399WAT  OW   17593   1.403   1.477   1.025
 4399WAT  HW1  17594   1.409   1.445   0.935
 4399WAT  HW2  17595   1.310   1.495   1.038
 4399WAT  MW   17596   1.392   1.475   1.015
 4400WAT  OW   17597   0.818   4.866   2.183
 4400WAT  HW1  17598   0.822   4.775   2.153
 4400WAT  HW2  17599   0.819   4.860   2.279
 4400WAT  MW   17600   0.819   4.853   2.192
 4401WAT  OW   17601   6.414   0.251   3.055
 4401WAT  HW1  17602   6.488   0.311   3.042
 4401WAT  HW2  17603   6.359   0.265   2.978
 4401WAT  MW   17604   6.417   0.261   3.043
 4402WAT  OW   17605   5.818   3.029   5.221
 4402WAT  HW1  17606   5.748   2.968   5.245
 4402WAT  HW2  17607   5.803   3.105   5.277
 4402WAT  MW   17608   5.807   3.031   5.232
 4403WAT  OW   17609   2.673   1.794   6.207
 4403WAT  HW1  17610   2.726   1.720   6.236
 4403WAT  HW2  17611   2.582   1.767   6.221
 4403WAT  MW   17612   2.668   1.781   6.213
 4404WAT  OW   17613   1.419   4.245   5.878
 4404WAT  HW1  17614   1.453   4.230   5.966
 4404WAT  HW2  17615   1.415   4.340   5.869
 4404WAT  MW   17616   1.423   4.255   5.888
 4405WAT  OW   17617   1.332   4.651   2.342
 4405WAT  HW1  17618   1.251   4.606   2.365
 4405WAT  HW2  17619   1.305   4.742   2.325
 4405WAT  MW   17620   1.317   4.657   2.343
 4406WAT  OW   17621   4.674   3.333   2.483
 4406WAT  HW1  17622   4.731   3.260   2.504
 4406WAT  HW2  17623   4.590   3.310   2.522
 4406WAT  MW   17624   4.670   3.321   2.491
 4407WAT  OW   17625   2.362   4.515   1.814
 4407WAT  HW1  17626   2.435   4.455   1.800
 4407WAT  HW2  17627   2.345   4.553   1.727
 4407WAT  MW   17628   2.369   4.512   1.800
 4408WAT  OW   17629   1.192   0.394   5.814
 4408WAT  HW1  17630   1.175   0.430   5.727
 4408WAT  HW2  17631   1.263   0.447   5.849
 4408WAT  MW   17632   1.199   0.406   5.807
 4409WAT  OW   17633   2.084   3.303   4.752
 4409WAT  HW1  17634   2.113   3.350   4.830
 4409WAT  HW2  17635   1.989   3.299   4.761
 4409WAT  MW   17636   2.075   3.309   4.763
 4410WAT  OW   17637   3.569   4.031   1.967
 4410WAT  HW1  17638   3.616   4.085   1.904
 4410WAT  HW2  17639   3.629   3.959   1.986
 4410WAT  MW   17640   3.583   4.028   1.961
 4411WAT  OW   17641   5.077   6.412   0.422
 4411WAT  HW1  17642   5.056   6.450   0.336
 4411WAT  HW2  17643   5.004   6.439   0.478
 4411WAT  MW   17644   5.064   6.420   0.418
 4412WAT  OW   17645   4.231   1.969   5.195
 4412WAT  HW1  17646   4.323   1.948   5.176
 4412WAT  HW2  17647   4.229   2.064   5.201
 4412WAT  MW   17648   4.243   1.978   5.194
 4413WAT  OW   17649   1.381   5.156   6.538
 4413WAT  HW1  17650   1.345   5.245   6.544
 4413WAT  HW2  17651   1.475   5.170   6.530
 4413WAT  MW   17652   1.389   5.170   6.537
 4414WAT  OW   17653   4.851   3.128   3.757
 4414WAT  HW1  17654   4.908   3.052   3.768
 4414WAT  HW2  17655   4.900   3.187   3.699
 4414WAT  MW   17656   4.865   3.126   3.751
 4415WAT  OW   17657   3.404   2.686   0.878
 4415WAT  HW1  17658   3.322   2.724   0.846
 4415WAT  HW2  17659   3.449   2.759   0.920
 4415WAT  MW   17660   3.399   2.700   0.879
 4416WAT  OW   17661   1.304   0.380   5.250
 4416WAT  HW1  17662   1.366   0.446   5.280
 4416WAT  HW2  17663   1.235   0.429   5.206
 4416WAT  MW   17664   1.303   0.395   5.248
 4417WAT  OW   17665   2.283   0.905   4.945
 4417WAT  HW1  17666   2.268   0.979   5.004
 4417WAT  HW2  17667   2.378   0.905   4.931
 4417WAT  MW   17668   2.294   0.915   4.951
 4418WAT  OW   17669   6.316   3.591   0.745
 4418WAT  HW1  17670   6.263   3.652   0.693
 4418WAT  HW2  17671   6.253   3.525   0.774
 4418WAT  MW   17672   6.301   3.591   0.742
 4419WAT  OW   17673   1.085   4.421   5.512
 4419WAT  HW1  17674   1.060   4.507   5.477
 4419WAT  HW2  17675   1.050   4.421   5.602
 4419WAT  MW   17676   1.077   4.432   5.519
 4420WAT  OW   17677   6.546   2.702   3.166
 4420WAT  HW1  17678   6.451   2.712   3.174
 4420WAT  HW2  17679   6.561   2.608   3.178
 4420WAT  MW   17680   6.535   2.691   3.169
 4421WAT  OW   17681   4.252   4.267   5.991
 4421WAT  HW1  17682   4.313   4.256   5.918
 4421WAT  HW2  17683   4.187   4.329   5.959
 4421WAT  MW   17684   4.252   4.273   5.977
 4422WAT  OW   17685   5.875   5.957   5.045
 4422WAT  HW1  17686   5.880   5.931   5.137
 4422WAT  HW2  17687   5.799   5.912   5.011
 4422WAT  MW   17688   5.866   5.948   5.052
 4423WAT  OW   17689   3.619   4.998   0.231
 4423WAT  HW1  17690   3.592   5.089   0.220
 4423WAT  HW2  17691   3.679   5.000   0.306
 4423WAT  MW   17692   3.624   5.010   0.240
 4424WAT  OW   17693   3.228   4.922   4.361
 4424WAT  HW1  17694   3.322   4.938   4.367
 4424WAT  HW2  17695   3.187   4.997   4.405
 4424WAT  MW   17696   3.235   4.934   4.368
 4425WAT  OW   17697   5.290   5.158   5.800
 4425WAT  HW1  17698   5.255   5.094   5.738
 4425WAT  HW2  17699   5.232   5.234   5.792
 4425WAT  MW   17700   5.278   5.159   5.791
 4426WAT  OW   17701   6.440   5.374   0.510
 4426WAT  HW1  17702   6.423   5.412   0.424
 4426WAT  HW2  17703   6.434   5.447   0.571
 4426WAT  MW   17704   6.437   5.388   0.507
 4427WAT  OW   17705   4.260   0.376   5.096
 4427WAT  HW1  17706   4.334   0.344   5.146
 4427WAT  HW2  17707   4.201   0.415   5.161
 4427WAT  MW   17708   4.262   0.377   5.111
 4428WAT  OW   17709   5.034   6.431   1.163
 4428WAT  HW1  17710   5.077   6.351   1.131
 4428WAT  HW2  17711   5.071   6.501   1.109
 4428WAT  MW   17712   5.045   6.430   1.152
 4429WAT  OW   17713   3.897   6.045   1.661
 4429WAT  HW1  17714   3.906   6.085   1.747
 4429WAT  HW2  17715   3.986   6.037   1.628
 4429WAT  MW   17716   3.910   6.049   1.668
 4430WAT  OW   17717   0.367   3.445   2.533
 4430WAT  HW1  17718   0.293   3.506   2.530
 4430WAT  HW2  17719   0.384   3.422   2.442
 4430WAT  MW   17720   0.360   3.450   2.521
 4431WAT  OW   17721   3.187   2.837   0.783
 4431WAT  HW1  17722   3.220   2.921   0.816
 4431WAT  HW2  17723   3.112   2.818   0.839
 4431WAT  MW   17724   3.182   2.846   0.795
 4432WAT  OW   17725   6.664   1.496   4.552
 4432WAT  HW1  17726   6.663   1.545   4.634
 4432WAT  HW2  17727   6.635   1.559   4.486
 4432WAT  MW   17728   6.660   1.511   4.554
 4433WAT  OW   17729   5.407   0.223   4.534
 4433WAT  HW1  17730   5.318   0.231   4.567
 4433WAT  HW2  17731   5.397   0.206   4.441
 4433WAT  MW   17732   5.394   0.222   4.526
 4434WAT  OW   17733   3.181   1.296   5.679
 4434WAT  HW1  17734   3.117   1.272   5.611
 4434WAT  HW2  17735   3.241   1.357   5.635
 4434WAT  MW   17736   3.180   1.301   5.664
 4435WAT  OW   17737   6.680   3.159   4.201
 4435WAT  HW1  17738   6.660   3.139   4.293
 4435WAT  HW2  17739   6.692   3.254   4.199
 4435WAT  MW   17740   6.679   3.169   4.213
 4436WAT  OW   17741   0.875   6.607   2.787
 4436WAT  HW1  17742   0.849   6.558   2.865
 4436WAT  HW2  17743   0.879   6.540   2.718
 4436WAT  MW   17744   0.872   6.592   2.788
 4437WAT  OW   17745   2.343   2.606   2.170
 4437WAT  HW1  17746   2.386   2.673   2.117
 4437WAT  HW2  17747   2.384   2.524   2.144
 4437WAT  MW   17748   2.354   2.604   2.160
 4438WAT  OW   17749   1.275   6.431   6.204
 4438WAT  HW1  17750   1.239   6.399   6.287
 4438WAT  HW2  17751   1.321   6.355   6.167
 4438WAT  MW   17752   1.277   6.417   6.210
 4439WAT  OW   17753   2.458   2.138   2.253
 4439WAT  HW1  17754   2.486   2.049   2.275
 4439WAT  HW2  17755   2.371   2.145   2.291
 4439WAT  MW   17756   2.450   2.127   2.261
 4440WAT  OW   17757   6.410   5.641   5.593
 4440WAT  HW1  17758   6.426   5.591   5.673
 4440WAT  HW2  17759   6.378   5.577   5.530
 4440WAT  MW   17760   6.408   5.626   5.596
 4441WAT  OW   17761   3.742   5.676   0.651
 4441WAT  HW1  17762   3.794   5.716   0.721
 4441WAT  HW2  17763   3.691   5.748   0.615
 4441WAT  MW   17764   3.742   5.691   0.655
 4442WAT  OW   17765   1.266   0.833   2.138
 4442WAT  HW1  17766   1.339   0.854   2.080
 4442WAT  HW2  17767   1.244   0.917   2.180
 4442WAT  MW   17768   1.272   0.847   2.136
 4443WAT  OW   17769   0.220   0.986   0.699
 4443WAT  HW1  17770   0.220   0.954   0.789
 4443WAT  HW2  17771   0.133   1.023   0.687
 4443WAT  MW   17772   0.208   0.987   0.709
 4444WAT  OW   17773   2.468   6.624   0.017
 4444WAT  HW1  17774   2.374   6.609   0.016
 4444WAT  HW2  17775   2.487   6.660   0.104
 4444WAT  MW   17776   2.458   6.627   0.028
 4445WAT  OW   17777   0.364   2.194   6.398
 4445WAT  HW1  17778   0.378   2.134   6.325
 4445WAT  HW2  17779   0.310   2.145   6.460
 4445WAT  MW   17780   0.359   2.179   6.397
 4446WAT  OW   17781   5.221   6.158   0.482
 4446WAT  HW1  17782   5.249   6.217   0.551
 4446WAT  HW2  17783   5.175   6.214   0.419
 4446WAT  MW   17784   5.218   6.173   0.482
 4447WAT  OW   17785   3.679   6.109   2.265
 4447WAT  HW1  17786   3.618   6.124   2.337
 4447WAT  HW2  17787   3.762   6.147   2.296
 4447WAT  MW   17788   3.682   6.116   2.278
 4448WAT  OW   17789   5.947   0.748   0.864
 4448WAT  HW1  17790   5.926   0.782   0.777
 4448WAT  HW2  17791   5.863   0.743   0.909
 4448WAT  MW   17792   5.933   0.752   0.859
 4449WAT  OW   17793   5.532   1.690   3.919
 4449WAT  HW1  17794   5.534   1.676   3.824
 4449WAT  HW2  17795   5.475   1.766   3.931
 4449WAT  MW   17796   5.525   1.698   3.908
 4450WAT  OW   17797   1.416   0.935   2.786
 4450WAT  HW1  17798   1.402   0.970   2.874
 4450WAT  HW2  17799   1.328   0.934   2.747
 4450WAT  MW   17800   1.402   0.939   2.793
 4451WAT  OW   17801   2.459   4.826   1.418
 4451WAT  HW1  17802   2.510   4.899   1.450
 4451WAT  HW2  17803   2.487   4.751   1.470
 4451WAT  MW   17804   2.469   4.826   1.429
 4452WAT  OW   17805   0.364   2.675   3.814
 4452WAT  HW1  17806   0.401   2.588   3.822
 4452WAT  HW2  17807   0.283   2.671   3.866
 4452WAT  MW   17808   0.358   2.663   3.822
 4453WAT  OW   17809   4.900   6.249   4.298
 4453WAT  HW1  17810   4.939   6.235   4.384
 4453WAT  HW2  17811   4.975   6.253   4.238
 4453WAT  MW   17812   4.915   6.247   4.301
 4454WAT  OW   17813   1.274   3.148   5.677
 4454WAT  HW1  17814   1.186   3.181   5.692
 4454WAT  HW2  17815   1.295   3.175   5.587
 4454WAT  MW   17816   1.265   3.156   5.667
 4455WAT  OW   17817   2.294   1.651   1.995
 4455WAT  HW1  17818   2.348   1.660   1.916
 4455WAT  HW2  17819   2.217   1.704   1.977
 4455WAT  MW   17820   2.291   1.659   1.982
 4456WAT  OW   17821   5.345   3.717   2.720
 4456WAT  HW1  17822   5.413   3.784   2.719
 4456WAT  HW2  17823   5.374   3.653   2.785
 4456WAT  MW   17824   5.358   3.718   2.728
 4457WAT  OW   17825   4.521   5.374   0.137
 4457WAT  HW1  17826   4.561   5.453   0.100
 4457WAT  HW2  17827   4.578   5.303   0.110
 4457WAT  MW   17828   4.534   5.375   0.128
 4458WAT  OW   17829   2.064   2.164   5.915
 4458WAT  HW1  17830   2.023   2.244   5.882
 4458WAT  HW2  17831   2.018   2.094   5.870
 4458WAT  MW   17832   2.053   2.165   5.904
 4459WAT  OW   17833   5.197   6.592   5.021
 4459WAT  HW1  17834   5.102   6.584   5.027
 4459WAT  HW2  17835   5.226   6.512   4.978
 4459WAT  MW   17836   5.189   6.580   5.016
 4460WAT  OW   17837   4.345   0.054   0.054
 4460WAT  HW1  17838   4.265   0.101   0.029
 4460WAT  HW2  17839   4.415   0.119   0.042
 4460WAT  MW   17840   4.344   0.069   0.049
 4461WAT  OW   17841   0.067   1.654   4.810
 4461WAT  HW1  17842   0.128   1.705   4.757
 4461WAT  HW2  17843   0.113   1.573   4.829
 4461WAT  MW   17844   0.081   1.650   4.806
 4462WAT  OW   17845   5.729   0.640   1.286
 4462WAT  HW1  17846   5.708   0.638   1.379
 4462WAT  HW2  17847   5.823   0.624   1.282
 4462WAT  MW   17848   5.738   0.638   1.298
 4463WAT  OW   17849   5.858   0.081   4.311
 4463WAT  HW1  17850   5.819   0.119   4.389
 4463WAT  HW2  17851   5.856  -0.014   4.326
 4463WAT  MW   17852   5.853   0.073   4.323
 4464WAT  OW   17853   2.833   4.637   1.445
 4464WAT  HW1  17854   2.864   4.548   1.463
 4464WAT  HW2  17855   2.842   4.647   1.350
 4464WAT  MW   17856   2.838   4.627   1.435
 4465WAT  OW   17857   0.832   0.079   3.652
 4465WAT  HW1  17858   0.775   0.154   3.671
 4465WAT  HW2  17859   0.804   0.012   3.715
 4465WAT  MW   17860   0.820   0.080   3.663
 4466WAT  OW   17861   4.095   6.476   6.257
 4466WAT  HW1  17862   4.159   6.407   6.274
 4466WAT  HW2  17863   4.110   6.502   6.167
 4466WAT  MW   17864   4.105   6.471   6.247
 4467WAT  OW   17865   4.727   4.191   4.363
 4467WAT  HW1  17866   4.666   4.121   4.341
 4467WAT  HW2  17867   4.671   4.267   4.380
 4467WAT  MW   17868   4.712   4.192   4.362
 4468WAT  OW   17869   3.921   6.400   6.470
 4468WAT  HW1  17870   3.968   6.371   6.548
 4468WAT  HW2  17871   3.990   6.436   6.413
 4468WAT  MW   17872   3.937   6.401   6.473
 4469WAT  OW   17873   2.875   6.296   5.727
 4469WAT  HW1  17874   2.793   6.297   5.777
 4469WAT  HW2  17875   2.904   6.204   5.730
 4469WAT  MW   17876   2.868   6.284   5.734
 4470WAT  OW   17877   1.998   0.074   1.035
 4470WAT  HW1  17878   2.054   0.141   0.996
 4470WAT  HW2  17879   2.040  -0.008   1.011
 4470WAT  MW   17880   2.011   0.072   1.027
 4471WAT  OW   17881   3.528   4.118   5.276
 4471WAT  HW1  17882   3.449   4.073   5.246
 4471WAT  HW2  17883   3.549   4.179   5.206
 4471WAT  MW   17884   3.520   4.120   5.263
 4472WAT  OW   17885   1.810   3.707   2.051
 4472WAT  HW1  17886   1.887   3.737   2.100
 4472WAT  HW2  17887   1.788   3.623   2.092
 4472WAT  MW   17888   1.817   3.700   2.063
 4473WAT  OW   17889   4.019   5.459   2.868
 4473WAT  HW1  17890   3.972   5.539   2.842
 4473WAT  HW2  17891   3.952   5.402   2.904
 4473WAT  MW   17892   4.004   5.462   2.869
 4474WAT  OW   17893   1.235   4.149   1.578
 4474WAT  HW1  17894   1.170   4.174   1.512
 4474WAT  HW2  17895   1.309   4.116   1.528
 4474WAT  MW   17896   1.236   4.148   1.563
 4475WAT  OW   17897   4.626   0.878   0.849
 4475WAT  HW1  17898   4.647   0.927   0.928
 4475WAT  HW2  17899   4.577   0.802   0.880
 4475WAT  MW   17900   4.622   0.874   0.864
 4476WAT  OW   17901   5.737   5.786   1.775
 4476WAT  HW1  17902   5.796   5.855   1.805
 4476WAT  HW2  17903   5.708   5.743   1.855
 4476WAT  MW   17904   5.741   5.789   1.790
 4477WAT  OW   17905   1.095   5.312   5.898
 4477WAT  HW1  17906   1.019   5.369   5.913
 4477WAT  HW2  17907   1.057   5.232   5.861
 4477WAT  MW   17908   1.080   5.309   5.895
 4478WAT  OW   17909   0.275   1.325   3.981
 4478WAT  HW1  17910   0.326   1.390   3.933
 4478WAT  HW2  17911   0.292   1.242   3.936
 4478WAT  MW   17912   0.284   1.323   3.969
 4479WAT  OW   17913   3.008   1.245   5.462
 4479WAT  HW1  17914   2.939   1.309   5.480
 4479WAT  HW2  17915   2.996   1.220   5.370
 4479WAT  MW   17916   2.997   1.250   5.452
 4480WAT  OW   17917   2.995   5.146   4.131
 4480WAT  HW1  17918   2.911   5.154   4.087
 4480WAT  HW2  17919   3.027   5.059   4.106
 4480WAT  MW   17920   2.988   5.136   4.122
 4481WAT  OW   17921   6.337   3.670   1.494
 4481WAT  HW1  17922   6.261   3.700   1.543
 4481WAT  HW2  17923   6.328   3.710   1.408
 4481WAT  MW   17924   6.326   3.679   1.489
 4482WAT  OW   17925   2.651   3.123   5.947
 4482WAT  HW1  17926   2.669   3.181   5.873
 4482WAT  HW2  17927   2.562   3.146   5.974
 4482WAT  MW   17928   2.641   3.134   5.941
 4483WAT  OW   17929   1.626   2.948   1.535
 4483WAT  HW1  17930   1.556   2.926   1.474
 4483WAT  HW2  17931   1.693   2.989   1.481
 4483WAT  MW   17932   1.625   2.951   1.520
 4484WAT  OW   17933   5.930   5.561   0.156
 4484WAT  HW1  17934   5.951   5.505   0.231
 4484WAT  HW2  17935   5.888   5.638   0.195
 4484WAT  MW   17936   5.927   5.564   0.171
 4485WAT  OW   17937   3.363   0.874   5.469
 4485WAT  HW1  17938   3.360   0.799   5.527
 4485WAT  HW2  17939   3.351   0.950   5.526
 4485WAT  MW   17940   3.361   0.874   5.484
 4486WAT  OW   17941   2.164   3.673   4.609
 4486WAT  HW1  17942   2.126   3.672   4.697
 4486WAT  HW2  17943   2.258   3.678   4.624
 4486WAT  MW   17944   2.171   3.674   4.623
 4487WAT  OW   17945   6.628   0.045   4.229
 4487WAT  HW1  17946   6.699   0.089   4.183
 4487WAT  HW2  17947   6.598   0.108   4.294
 4487WAT  MW   17948   6.633   0.059   4.232
 4488WAT  OW   17949   3.099   5.516   3.191
 4488WAT  HW1  17950   3.060   5.431   3.211
 4488WAT  HW2  17951   3.043   5.553   3.123
 4488WAT  MW   17952   3.087   5.510   3.184
 4489WAT  OW   17953   6.289   1.865   2.161
 4489WAT  HW1  17954   6.219   1.872   2.096
 4489WAT  HW2  17955   6.249   1.818   2.235
 4489WAT  MW   17956   6.275   1.859   2.162
 4490WAT  OW   17957   1.193   0.945   6.198
 4490WAT  HW1  17958   1.151   0.978   6.277
 4490WAT  HW2  17959   1.191   1.019   6.137
 4490WAT  MW   17960   1.188   0.959   6.200
 4491WAT  OW   17961   4.956   3.963   0.686
 4491WAT  HW1  17962   4.922   3.953   0.597
 4491WAT  HW2  17963   5.038   3.915   0.687
 4491WAT  MW   17964   4.962   3.956   0.674
 4492WAT  OW   17965   4.515   2.857   2.102
 4492WAT  HW1  17966   4.587   2.817   2.150
 4492WAT  HW2  17967   4.553   2.880   2.017
 4492WAT  MW   17968   4.529   2.855   2.097
 4493WAT  OW   17969   0.389   0.356   4.607
 4493WAT  HW1  17970   0.358   0.438   4.570
 4493WAT  HW2  17971   0.459   0.382   4.667
 4493WAT  MW   17972   0.394   0.370   4.610
 4494WAT  OW   17973   6.312   0.137   5.108
 4494WAT  HW1  17974   6.242   0.179   5.158
 4494WAT  HW2  17975   6.370   0.101   5.175
 4494WAT  MW   17976   6.310   0.138   5.123
 4495WAT  OW   17977   3.133   1.886   4.900
 4495WAT  HW1  17978   3.144   1.940   4.822
 4495WAT  HW2  17979   3.049   1.842   4.887
 4495WAT  MW   17980   3.123   1.887   4.888
 4496WAT  OW   17981   1.549   0.334   3.142
 4496WAT  HW1  17982   1.493   0.411   3.135
 4496WAT  HW2  17983   1.505   0.267   3.090
 4496WAT  MW   17984   1.536   0.336   3.134
 4497WAT  OW   17985   6.354   6.679   1.471
 4497WAT  HW1  17986   6.431   6.650   1.520
 4497WAT  HW2  17987   6.341   6.769   1.498
 4497WAT  MW   17988   6.362   6.687   1.481
 4498WAT  OW   17989   5.066   4.676   1.726
 4498WAT  HW1  17990   5.075   4.753   1.670
 4498WAT  HW2  17991   5.069   4.711   1.815
 4498WAT  MW   17992   5.067   4.690   1.730
 4499WAT  OW   17993   2.078   6.464   3.515
 4499WAT  HW1  17994   2.031   6.519   3.453
 4499WAT  HW2  17995   2.169   6.494   3.509
 4499WAT  MW   17996   2.084   6.475   3.506
 4500WAT  OW   17997   4.408   4.884   2.250
 4500WAT  HW1  17998   4.461   4.809   2.224
 4500WAT  HW2  17999   4.466   4.959   2.239
 4500WAT  MW   18000   4.423   4.884   2.245
 4501WAT  OW   18001   1.649   4.650   3.964
 4501WAT  HW1  18002   1.722   4.638   3.904
 4501WAT  HW2  18003   1.690   4.675   4.047
 4501WAT  MW   18004   1.664   4.652   3.967
 4502WAT  OW   18005   3.522   1.071   1.621
 4502WAT  HW1  18006   3.473   0.998   1.582
 4502WAT  HW2  18007   3.533   1.134   1.549
 4502WAT  MW   18008   3.517   1.070   1.606
 4503WAT  OW   18009   0.603   1.028   1.476
 4503WAT  HW1  18010   0.636   0.972   1.547
 4503WAT  HW2  18011   0.536   1.082   1.518
 4503WAT  MW   18012   0.598   1.027   1.491
 4504WAT  OW   18013   2.072   0.752   6.408
 4504WAT  HW1  18014   2.100   0.833   6.451
 4504WAT  HW2  18015   2.102   0.682   6.466
 4504WAT  MW   18016   2.079   0.753   6.422
 4505WAT  OW   18017   2.540   2.338   6.066
 4505WAT  HW1  18018   2.586   2.404   6.014
 4505WAT  HW2  18019   2.448   2.348   6.042
 4505WAT  MW   18020   2.534   2.348   6.056
 4506WAT  OW   18021   4.979   3.315   1.885
 4506WAT  HW1  18022   4.887   3.336   1.871
 4506WAT  HW2  18023   4.993   3.334   1.978
 4506WAT  MW   18024   4.969   3.321   1.896
 4507WAT  OW   18025   1.949   3.891   0.572
 4507WAT  HW1  18026   1.878   3.834   0.603
 4507WAT  HW2  18027   2.024   3.833   0.563
 4507WAT  MW   18028   1.949   3.876   0.575
 4508WAT  OW   18029   4.292   5.784   4.321
 4508WAT  HW1  18030   4.327   5.803   4.234
 4508WAT  HW2  18031   4.355   5.824   4.381
 4508WAT  MW   18032   4.305   5.792   4.317
 4509WAT  OW   18033   0.191   6.572   5.569
 4509WAT  HW1  18034   0.149   6.486   5.564
 4509WAT  HW2  18035   0.272   6.555   5.617
 4509WAT  MW   18036   0.196   6.558   5.575
 4510WAT  OW   18037   4.912   4.033   4.128
 4510WAT  HW1  18038   4.945   4.100   4.187
 4510WAT  HW2  18039   4.843   4.076   4.078
 4510WAT  MW   18040   4.907   4.048   4.129
 4511WAT  OW   18041   4.104   3.331   0.169
 4511WAT  HW1  18042   4.022   3.367   0.204
 4511WAT  HW2  18043   4.165   3.404   0.169
 4511WAT  MW   18044   4.101   3.345   0.174
 4512WAT  OW   18045   3.317   6.272   2.191
 4512WAT  HW1  18046   3.269   6.231   2.120
 4512WAT  HW2  18047   3.289   6.225   2.270
 4512WAT  MW   18048   3.307   6.261   2.192
 4513WAT  OW   18049   5.177   4.327   2.335
 4513WAT  HW1  18050   5.198   4.319   2.243
 4513WAT  HW2  18051   5.248   4.380   2.372
 4513WAT  MW   18052   5.189   4.333   2.328
 4514WAT  OW   18053   6.401   5.463   6.496
 4514WAT  HW1  18054   6.336   5.456   6.426
 4514WAT  HW2  18055   6.353   5.500   6.570
 4514WAT  MW   18056   6.386   5.467   6.496
 4515WAT  OW   18057   5.796   1.281   2.348
 4515WAT  HW1  18058   5.826   1.277   2.257
 4515WAT  HW2  18059   5.772   1.373   2.362
 4515WAT  MW   18060   5.797   1.293   2.338
 4516WAT  OW   18061   5.027   4.826   6.635
 4516WAT  HW1  18062   5.086   4.797   6.566
 4516WAT  HW2  18063   5.083   4.843   6.710
 4516WAT  MW   18064   5.042   4.824   6.636
 4517WAT  OW   18065   3.315   5.883   5.637
 4517WAT  HW1  18066   3.394   5.855   5.590
 4517WAT  HW2  18067   3.249   5.891   5.569
 4517WAT  MW   18068   3.317   5.881   5.622
 4518WAT  OW   18069   5.667   1.910   0.861
 4518WAT  HW1  18070   5.734   1.856   0.903
 4518WAT  HW2  18071   5.630   1.962   0.932
 4518WAT  MW   18072   5.671   1.910   0.876
 4519WAT  OW   18073   0.849   3.843   5.991
 4519WAT  HW1  18074   0.783   3.907   5.965
 4519WAT  HW2  18075   0.889   3.815   5.909
 4519WAT  MW   18076   0.846   3.848   5.977
 4520WAT  OW   18077   5.084   4.758   4.128
 4520WAT  HW1  18078   5.159   4.699   4.127
 4520WAT  HW2  18079   5.070   4.779   4.036
 4520WAT  MW   18080   5.092   4.753   4.116
 4521WAT  OW   18081   5.594   6.599   3.473
 4521WAT  HW1  18082   5.575   6.653   3.550
 4521WAT  HW2  18083   5.549   6.516   3.491
 4521WAT  MW   18084   5.585   6.595   3.486
 4522WAT  OW   18085   4.015   6.085   4.302
 4522WAT  HW1  18086   4.001   6.170   4.262
 4522WAT  HW2  18087   3.953   6.082   4.375
 4522WAT  MW   18088   4.005   6.096   4.306
 4523WAT  OW   18089   2.484   1.430   5.901
 4523WAT  HW1  18090   2.475   1.436   5.806
 4523WAT  HW2  18091   2.394   1.418   5.932
 4523WAT  MW   18092   2.471   1.429   5.892
 4524WAT  OW   18093   1.400   3.358   4.974
 4524WAT  HW1  18094   1.459   3.338   5.047
 4524WAT  HW2  18095   1.350   3.278   4.961
 4524WAT  MW   18096   1.401   3.345   4.982
 4525WAT  OW   18097   6.513   0.854   0.634
 4525WAT  HW1  18098   6.560   0.936   0.646
 4525WAT  HW2  18099   6.512   0.814   0.721
 4525WAT  MW   18100   6.519   0.859   0.647
 4526WAT  OW   18101   5.024   6.455   6.259
 4526WAT  HW1  18102   5.106   6.407   6.271
 4526WAT  HW2  18103   4.956   6.387   6.258
 4526WAT  MW   18104   5.026   6.440   6.261
 4527WAT  OW   18105   5.993   5.436   1.304
 4527WAT  HW1  18106   6.029   5.447   1.392
 4527WAT  HW2  18107   5.966   5.525   1.278
 4527WAT  MW   18108   5.994   5.450   1.312
 4528WAT  OW   18109   2.857   1.494   5.539
 4528WAT  HW1  18110   2.933   1.552   5.531
 4528WAT  HW2  18111   2.790   1.547   5.583
 4528WAT  MW   18112   2.858   1.509   5.544
 4529WAT  OW   18113   3.630   0.650   2.988
 4529WAT  HW1  18114   3.724   0.661   3.002
 4529WAT  HW2  18115   3.599   0.738   2.968
 4529WAT  MW   18116   3.638   0.663   2.987
 4530WAT  OW   18117   0.990   3.952   3.692
 4530WAT  HW1  18118   0.897   3.971   3.683
 4530WAT  HW2  18119   1.002   3.940   3.786
 4530WAT  MW   18120   0.979   3.953   3.703
 4531WAT  OW   18121   3.610   3.034   5.252
 4531WAT  HW1  18122   3.530   3.038   5.305
 4531WAT  HW2  18123   3.679   3.061   5.312
 4531WAT  MW   18124   3.608   3.038   5.267
 4532WAT  OW   18125   1.623   1.137   1.619
 4532WAT  HW1  18126   1.575   1.218   1.638
 4532WAT  HW2  18127   1.671   1.156   1.539
 4532WAT  MW   18128   1.623   1.150   1.611
 4533WAT  OW   18129   5.941   6.297   3.383
 4533WAT  HW1  18130   5.867   6.281   3.323
 4533WAT  HW2  18131   6.002   6.349   3.331
 4533WAT  MW   18132   5.939   6.302   3.368
 4534WAT  OW   18133   1.692   2.503   3.292
 4534WAT  HW1  18134   1.742   2.487   3.372
 4534WAT  HW2  18135   1.619   2.558   3.321
 4534WAT  MW   18136   1.689   2.508   3.307
 4535WAT  OW   18137   6.076   3.247   5.775
 4535WAT  HW1  18138   6.142   3.179   5.790
 4535WAT  HW2  18139   6.070   3.253   5.680
 4535WAT  MW   18140   6.084   3.239   5.764
 4536WAT  OW   18141   5.686   4.999   2.483
 4536WAT  HW1  18142   5.614   5.005   2.420
 4536WAT  HW2  18143   5.645   5.014   2.568
 4536WAT  MW   18144   5.671   5.001   2.486
 4537WAT  OW   18145   0.386   2.289   4.335
 4537WAT  HW1  18146   0.440   2.243   4.399
 4537WAT  HW2  18147   0.298   2.286   4.372
 4537WAT  MW   18148   0.381   2.282   4.348
 4538WAT  OW   18149   3.822   1.647   3.410
 4538WAT  HW1  18150   3.876   1.572   3.385
 4538WAT  HW2  18151   3.733   1.612   3.416
 4538WAT  MW   18152   3.817   1.632   3.407
 4539WAT  OW   18153   3.433   5.275   3.393
 4539WAT  HW1  18154   3.439   5.338   3.465
 4539WAT  HW2  18155   3.520   5.275   3.354
 4539WAT  MW   18156   3.445   5.283   3.397
 4540WAT  OW   18157   1.617   3.663   3.919
 4540WAT  HW1  18158   1.679   3.729   3.950
 4540WAT  HW2  18159   1.625   3.665   3.824
 4540WAT  MW   18160   1.626   3.672   3.911
 4541WAT  OW   18161   5.024   2.683   3.084
 4541WAT  HW1  18162   4.968   2.758   3.107
 4541WAT  HW2  18163   5.018   2.624   3.159
 4541WAT  MW   18164   5.016   2.685   3.097
 4542WAT  OW   18165   0.802   5.009   4.489
 4542WAT  HW1  18166   0.762   4.928   4.520
 4542WAT  HW2  18167   0.896   4.992   4.491
 4542WAT  MW   18168   0.809   4.996   4.493
 4543WAT  OW   18169   6.390   2.099   2.010
 4543WAT  HW1  18170   6.334   2.046   1.953
 4543WAT  HW2  18171   6.467   2.044   2.026
 4543WAT  MW   18172   6.393   2.085   2.005
 4544WAT  OW   18173   5.419   3.127   3.616
 4544WAT  HW1  18174   5.392   3.068   3.545
 4544WAT  HW2  18175   5.355   3.110   3.686
 4544WAT  MW   18176   5.407   3.117   3.616
 4545WAT  OW   18177   2.875   1.176   3.307
 4545WAT  HW1  18178   2.877   1.210   3.397
 4545WAT  HW2  18179   2.949   1.219   3.264
 4545WAT  MW   18180   2.885   1.186   3.313
 4546WAT  OW   18181   0.166   6.652   5.978
 4546WAT  HW1  18182   0.180   6.723   5.916
 4546WAT  HW2  18183   0.245   6.652   6.032
 4546WAT  MW   18184   0.178   6.661   5.977
 4547WAT  OW   18185   2.455   1.976   5.099
 4547WAT  HW1  18186   2.402   1.965   5.177
 4547WAT  HW2  18187   2.528   1.915   5.111
 4547WAT  MW   18188   2.458   1.967   5.111
 4548WAT  OW   18189   3.006   3.066   0.887
 4548WAT  HW1  18190   2.951   3.103   0.957
 4548WAT  HW2  18191   2.956   2.991   0.855
 4548WAT  MW   18192   2.992   3.061   0.892
 4549WAT  OW   18193   0.060   0.677   6.337
 4549WAT  HW1  18194   0.060   0.679   6.433
 4549WAT  HW2  18195   0.152   0.663   6.313
 4549WAT  MW   18196   0.073   0.675   6.347
 4550WAT  OW   18197   2.585   5.872   1.340
 4550WAT  HW1  18198   2.511   5.816   1.364
 4550WAT  HW2  18199   2.661   5.813   1.341
 4550WAT  MW   18200   2.586   5.857   1.344
 4551WAT  OW   18201   0.441   6.465   4.042
 4551WAT  HW1  18202   0.525   6.420   4.057
 4551WAT  HW2  18203   0.429   6.519   4.119
 4551WAT  MW   18204   0.451   6.466   4.054
 4552WAT  OW   18205   4.144   5.532   3.165
 4552WAT  HW1  18206   4.122   5.521   3.072
 4552WAT  HW2  18207   4.166   5.444   3.195
 4552WAT  MW   18208   4.144   5.519   3.156
 4553WAT  OW   18209   3.170   6.527   2.095
 4553WAT  HW1  18210   3.244   6.473   2.122
 4553WAT  HW2  18211   3.108   6.465   2.056
 4553WAT  MW   18212   3.172   6.512   2.094
 4554WAT  OW   18213   4.702   5.209   4.276
 4554WAT  HW1  18214   4.737   5.239   4.360
 4554WAT  HW2  18215   4.623   5.260   4.262
 4554WAT  MW   18216   4.696   5.219   4.285
 4555WAT  OW   18217   6.240   0.698   3.310
 4555WAT  HW1  18218   6.150   0.679   3.337
 4555WAT  HW2  18219   6.289   0.703   3.393
 4555WAT  MW   18220   6.235   0.696   3.325
 4556WAT  OW   18221   1.591   2.868   5.708
 4556WAT  HW1  18222   1.650   2.863   5.783
 4556WAT  HW2  18223   1.616   2.949   5.663
 4556WAT  MW   18224   1.602   2.878   5.712
 4557WAT  OW   18225   3.129   0.529   1.591
 4557WAT  HW1  18226   3.091   0.556   1.507
 4557WAT  HW2  18227   3.223   0.534   1.577
 4557WAT  MW   18228   3.136   0.533   1.578
 4558WAT  OW   18229   0.972   6.233   6.240
 4558WAT  HW1  18230   0.900   6.187   6.283
 4558WAT  HW2  18231   1.048   6.177   6.255
 4558WAT  MW   18232   0.972   6.219   6.247
 4559WAT  OW   18233   2.457   3.045   0.904
 4559WAT  HW1  18234   2.451   3.102   0.981
 4559WAT  HW2  18235   2.474   3.105   0.831
 4559WAT  MW   18236   2.459   3.061   0.904
 4560WAT  OW   18237   5.830   0.967   1.866
 4560WAT  HW1  18238   5.862   0.977   1.776
 4560WAT  HW2  18239   5.908   0.972   1.921
 4560WAT  MW   18240   5.844   0.969   1.861
 4561WAT  OW   18241   3.592   3.710   5.275
 4561WAT  HW1  18242   3.552   3.749   5.197
 4561WAT  HW2  18243   3.590   3.780   5.340
 4561WAT  MW   18244   3.587   3.724   5.273
 4562WAT  OW   18245   5.422   2.975   5.078
 4562WAT  HW1  18246   5.456   2.961   5.166
 4562WAT  HW2  18247   5.497   3.012   5.030
 4562WAT  MW   18248   5.437   2.978   5.083
 4563WAT  OW   18249   3.864   3.390   1.786
 4563WAT  HW1  18250   3.949   3.435   1.789
 4563WAT  HW2  18251   3.853   3.366   1.695
 4563WAT  MW   18252   3.874   3.393   1.775
 4564WAT  OW   18253   1.852   3.798   6.368
 4564WAT  HW1  18254   1.840   3.807   6.463
 4564WAT  HW2  18255   1.818   3.879   6.331
 4564WAT  MW   18256   1.846   3.810   6.376
 4565WAT  OW   18257   1.507   5.425   3.854
 4565WAT  HW1  18258   1.538   5.363   3.789
 4565WAT  HW2  18259   1.556   5.505   3.837
 4565WAT  MW   18260   1.517   5.427   3.843
 4566WAT  OW   18261   6.419   0.671   0.068
 4566WAT  HW1  18262   6.329   0.665   0.100
 4566WAT  HW2  18263   6.434   0.765   0.057
 4566WAT  MW   18264   6.409   0.683   0.070
 4567WAT  OW   18265   2.817   0.889   1.353
 4567WAT  HW1  18266   2.820   0.883   1.258
 4567WAT  HW2  18267   2.740   0.836   1.378
 4567WAT  MW   18268   2.807   0.881   1.344
 4568WAT  OW   18269   0.108   4.594   0.195
 4568WAT  HW1  18270   0.016   4.578   0.214
 4568WAT  HW2  18271   0.150   4.599   0.281
 4568WAT  MW   18272   0.101   4.593   0.209
 4569WAT  OW   18273   1.175   2.755   5.653
 4569WAT  HW1  18274   1.223   2.718   5.579
 4569WAT  HW2  18275   1.239   2.807   5.701
 4569WAT  MW   18276   1.189   2.757   5.650
 4570WAT  OW   18277   5.490   3.395   1.270
 4570WAT  HW1  18278   5.533   3.310   1.278
 4570WAT  HW2  18279   5.497   3.434   1.357
 4570WAT  MW   18280   5.497   3.389   1.283
 4571WAT  OW   18281   2.704   5.275   5.152
 4571WAT  HW1  18282   2.623   5.226   5.167
 4571WAT  HW2  18283   2.681   5.366   5.172
 4571WAT  MW   18284   2.690   5.280   5.157
 4572WAT  OW   18285   0.671   4.974   3.669
 4572WAT  HW1  18286   0.602   4.969   3.735
 4572WAT  HW2  18287   0.625   4.978   3.585
 4572WAT  MW   18288   0.656   4.974   3.666
 4573WAT  OW   18289   4.402   6.148   3.169
 4573WAT  HW1  18290   4.345   6.196   3.229
 4573WAT  HW2  18291   4.342   6.112   3.103
 4573WAT  MW   18292   4.386   6.149   3.168
 4574WAT  OW   18293   1.168   0.183   0.903
 4574WAT  HW1  18294   1.146   0.233   0.982
 4574WAT  HW2  18295   1.088   0.186   0.850
 4574WAT  MW   18296   1.154   0.190   0.907
 4575WAT  OW   18297   4.661   3.979   1.669
 4575WAT  HW1  18298   4.755   3.965   1.681
 4575WAT  HW2  18299   4.654   4.034   1.591
 4575WAT  MW   18300   4.672   3.984   1.660
 4576WAT  OW   18301   5.867   1.281   6.012
 4576WAT  HW1  18302   5.881   1.299   5.919
 4576WAT  HW2  18303   5.906   1.356   6.057
 4576WAT  MW   18304   5.874   1.293   6.006
 4577WAT  OW   18305   3.844   6.474   5.903
 4577WAT  HW1  18306   3.837   6.396   5.959
 4577WAT  HW2  18307   3.808   6.545   5.957
 4577WAT  MW   18308   3.838   6.473   5.918
 4578WAT  OW   18309   5.519   6.116   5.434
 4578WAT  HW1  18310   5.549   6.111   5.343
 4578WAT  HW2  18311   5.566   6.191   5.471
 4578WAT  MW   18312   5.529   6.125   5.427
 4579WAT  OW   18313   2.859   4.236   4.483
 4579WAT  HW1  18314   2.875   4.164   4.545
 4579WAT  HW2  18315   2.946   4.258   4.449
 4579WAT  MW   18316   2.873   4.229   4.487
 4580WAT  OW   18317   4.576   0.080   2.606
 4580WAT  HW1  18318   4.635   0.142   2.649
 4580WAT  HW2  18319   4.535   0.032   2.677
 4580WAT  MW   18320   4.579   0.082   2.621
 4581WAT  OW   18321   0.016   1.370   3.101
 4581WAT  HW1  18322  -0.002   1.361   3.194
 4581WAT  HW2  18323   0.010   1.463   3.083
 4581WAT  MW   18324   0.013   1.381   3.111
 4582WAT  OW   18325   0.682   5.669   5.662
 4582WAT  HW1  18326   0.592   5.695   5.640
 4582WAT  HW2  18327   0.733   5.749   5.652
 4582WAT  MW   18328   0.676   5.683   5.658
 4583WAT  OW   18329   6.509   1.264   1.016
 4583WAT  HW1  18330   6.546   1.340   0.971
 4583WAT  HW2  18331   6.585   1.213   1.044
 4583WAT  MW   18332   6.524   1.268   1.013
 4584WAT  OW   18333   6.038   6.409   2.612
 4584WAT  HW1  18334   6.011   6.366   2.531
 4584WAT  HW2  18335   6.008   6.351   2.682
 4584WAT  MW   18336   6.031   6.396   2.610
 4585WAT  OW   18337   3.526   5.933   1.821
 4585WAT  HW1  18338   3.472   6.010   1.799
 4585WAT  HW2  18339   3.589   5.966   1.885
 4585WAT  MW   18340   3.527   5.948   1.826
 4586WAT  OW   18341   4.684   2.543   0.422
 4586WAT  HW1  18342   4.643   2.460   0.399
 4586WAT  HW2  18343   4.649   2.605   0.358
 4586WAT  MW   18344   4.674   2.540   0.410
 4587WAT  OW   18345   0.769   4.882   1.797
 4587WAT  HW1  18346   0.712   4.938   1.746
 4587WAT  HW2  18347   0.718   4.802   1.812
 4587WAT  MW   18348   0.755   4.879   1.793
 4588WAT  OW   18349   5.528   5.225   0.121
 4588WAT  HW1  18350   5.553   5.288   0.053
 4588WAT  HW2  18351   5.529   5.276   0.202
 4588WAT  MW   18352   5.531   5.240   0.123
 4589WAT  OW   18353   2.012   6.071   3.883
 4589WAT  HW1  18354   2.093   6.119   3.865
 4589WAT  HW2  18355   2.005   6.007   3.812
 4589WAT  MW   18356   2.022   6.069   3.871
 4590WAT  OW   18357   6.496   1.121   3.657
 4590WAT  HW1  18358   6.418   1.081   3.617
 4590WAT  HW2  18359   6.526   1.057   3.721
 4590WAT  MW   18360   6.489   1.107   3.660
 4591WAT  OW   18361   4.073   4.357   4.154
 4591WAT  HW1  18362   4.143   4.293   4.145
 4591WAT  HW2  18363   4.006   4.328   4.092
 4591WAT  MW   18364   4.073   4.345   4.145
 4592WAT  OW   18365   4.552   4.350   3.766
 4592WAT  HW1  18366   4.566   4.360   3.860
 4592WAT  HW2  18367   4.511   4.432   3.739
 4592WAT  MW   18368   4.548   4.362   3.775
 4593WAT  OW   18369   4.178   5.128   3.529
 4593WAT  HW1  18370   4.176   5.052   3.471
 4593WAT  HW2  18371   4.190   5.090   3.617
 4593WAT  MW   18372   4.180   5.113   3.533
 4594WAT  OW   18373   4.015   2.624   0.867
 4594WAT  HW1  18374   4.028   2.548   0.810
 4594WAT  HW2  18375   4.104   2.652   0.890
 4594WAT  MW   18376   4.029   2.617   0.862
 4595WAT  OW   18377   5.668   6.572   0.124
 4595WAT  HW1  18378   5.643   6.655   0.084
 4595WAT  HW2  18379   5.586   6.525   0.135
 4595WAT  MW   18380   5.654   6.577   0.120
 4596WAT  OW   18381   0.368   1.463   5.114
 4596WAT  HW1  18382   0.388   1.369   5.112
 4596WAT  HW2  18383   0.277   1.469   5.086
 4596WAT  MW   18384   0.359   1.451   5.110
 4597WAT  OW   18385   3.841   1.693   1.134
 4597WAT  HW1  18386   3.911   1.627   1.138
 4597WAT  HW2  18387   3.803   1.693   1.221
 4597WAT  MW   18388   3.845   1.684   1.146
 4598WAT  OW   18389   2.391   2.919   3.593
 4598WAT  HW1  18390   2.467   2.937   3.537
 4598WAT  HW2  18391   2.385   2.994   3.652
 4598WAT  MW   18392   2.400   2.931   3.593
 4599WAT  OW   18393   3.919   0.355   3.736
 4599WAT  HW1  18394   3.921   0.367   3.831
 4599WAT  HW2  18395   4.010   0.362   3.709
 4599WAT  MW   18396   3.931   0.357   3.745
 4600WAT  OW   18397   2.927   3.528   5.579
 4600WAT  HW1  18398   3.000   3.470   5.603
 4600WAT  HW2  18399   2.890   3.555   5.663
 4600WAT  MW   18400   2.932   3.524   5.593
 4601WAT  OW   18401   5.626   0.607   5.076
 4601WAT  HW1  18402   5.578   0.563   5.006
 4601WAT  HW2  18403   5.558   0.634   5.139
 4601WAT  MW   18404   5.611   0.605   5.075
 4602WAT  OW   18405   1.172   4.402   1.172
 4602WAT  HW1  18406   1.133   4.388   1.086
 4602WAT  HW2  18407   1.136   4.332   1.227
 4602WAT  MW   18408   1.162   4.391   1.168
 4603WAT  OW   18409   6.203   0.187   3.616
 4603WAT  HW1  18410   6.192   0.126   3.689
 4603WAT  HW2  18411   6.208   0.131   3.539
 4603WAT  MW   18412   6.202   0.171   3.616
 4604WAT  OW   18413   1.356   3.002   1.419
 4604WAT  HW1  18414   1.317   2.917   1.400
 4604WAT  HW2  18415   1.402   3.026   1.338
 4604WAT  MW   18416   1.357   2.994   1.406
 4605WAT  OW   18417   4.720   4.405   0.335
 4605WAT  HW1  18418   4.697   4.317   0.364
 4605WAT  HW2  18419   4.670   4.464   0.392
 4605WAT  MW   18420   4.710   4.401   0.346
 4606WAT  OW   18421   4.663   3.183   0.145
 4606WAT  HW1  18422   4.737   3.174   0.205
 4606WAT  HW2  18423   4.680   3.265   0.098
 4606WAT  MW   18424   4.675   3.193   0.147
 4607WAT  OW   18425   5.353   4.621   0.363
 4607WAT  HW1  18426   5.272   4.634   0.412
 4607WAT  HW2  18427   5.417   4.676   0.407
 4607WAT  MW   18428   5.351   4.630   0.375
 4608WAT  OW   18429   0.057   1.446   5.660
 4608WAT  HW1  18430   0.021   1.368   5.618
 4608WAT  HW2  18431   0.041   1.433   5.753
 4608WAT  MW   18432   0.050   1.434   5.667
 4609WAT  OW   18433   4.858   0.243   3.530
 4609WAT  HW1  18434   4.804   0.201   3.596
 4609WAT  HW2  18435   4.918   0.175   3.500
 4609WAT  MW   18436   4.858   0.229   3.535
 4610WAT  OW   18437   1.916   5.064   2.162
 4610WAT  HW1  18438   1.879   5.104   2.084
 4610WAT  HW2  18439   1.846   5.010   2.198
 4610WAT  MW   18440   1.902   5.062   2.156
 4611WAT  OW   18441   4.510   3.607   4.279
 4611WAT  HW1  18442   4.587   3.656   4.251
 4611WAT  HW2  18443   4.451   3.609   4.203
 4611WAT  MW   18444   4.512   3.614   4.265
 4612WAT  OW   18445   6.356   6.358   1.932
 4612WAT  HW1  18446   6.390   6.374   2.020
 4612WAT  HW2  18447   6.273   6.404   1.930
 4612WAT  MW   18448   6.350   6.366   1.944
 4613WAT  OW   18449   2.061   2.509   1.144
 4613WAT  HW1  18450   2.022   2.574   1.203
 4613WAT  HW2  18451   2.037   2.539   1.057
 4613WAT  MW   18452   2.053   2.522   1.141
 4614WAT  OW   18453   1.770   5.151   1.949
 4614WAT  HW1  18454   1.773   5.131   1.855
 4614WAT  HW2  18455   1.767   5.247   1.953
 4614WAT  MW   18456   1.770   5.161   1.937
 4615WAT  OW   18457   4.508   2.795   4.786
 4615WAT  HW1  18458   4.532   2.729   4.720
 4615WAT  HW2  18459   4.516   2.749   4.870
 4615WAT  MW   18460   4.512   2.780   4.788
 4616WAT  OW   18461   6.628   6.585   6.293
 4616WAT  HW1  18462   6.573   6.506   6.285
 4616WAT  HW2  18463   6.664   6.598   6.206
 4616WAT  MW   18464   6.625   6.576   6.280
 4617WAT  OW   18465   6.248   5.790   3.694
 4617WAT  HW1  18466   6.280   5.874   3.660
 4617WAT  HW2  18467   6.231   5.806   3.786
 4617WAT  MW   18468   6.250   5.803   3.701
 4618WAT  OW   18469   1.746   4.430   0.080
 4618WAT  HW1  18470   1.767   4.343   0.114
 4618WAT  HW2  18471   1.821   4.452   0.024
 4618WAT  MW   18472   1.759   4.421   0.077
 4619WAT  OW   18473   3.168   1.228   1.090
 4619WAT  HW1  18474   3.205   1.231   1.178
 4619WAT  HW2  18475   3.177   1.317   1.057
 4619WAT  MW   18476   3.174   1.240   1.097
 4620WAT  OW   18477   3.291   5.946   2.184
 4620WAT  HW1  18478   3.375   5.901   2.186
 4620WAT  HW2  18479   3.284   5.982   2.096
 4620WAT  MW   18480   3.301   5.945   2.173
 4621WAT  OW   18481   0.404   3.021   1.674
 4621WAT  HW1  18482   0.380   3.057   1.589
 4621WAT  HW2  18483   0.428   2.930   1.655
 4621WAT  MW   18484   0.404   3.013   1.660
 4622WAT  OW   18485   2.130   4.331   1.911
 4622WAT  HW1  18486   2.111   4.332   2.005
 4622WAT  HW2  18487   2.223   4.351   1.904
 4622WAT  MW   18488   2.139   4.334   1.922
 4623WAT  OW   18489   2.078   2.333   4.954
 4623WAT  HW1  18490   2.159   2.285   4.938
 4623WAT  HW2  18491   2.089   2.416   4.907
 4623WAT  MW   18492   2.090   2.337   4.945
 4624WAT  OW   18493   6.305   1.159   1.525
 4624WAT  HW1  18494   6.281   1.067   1.534
 4624WAT  HW2  18495   6.289   1.179   1.432
 4624WAT  MW   18496   6.300   1.150   1.514
 4625WAT  OW   18497   6.649   3.319   2.215
 4625WAT  HW1  18498   6.705   3.249   2.246
 4625WAT  HW2  18499   6.564   3.300   2.254
 4625WAT  MW   18500   6.645   3.308   2.224
 4626WAT  OW   18501   3.714   3.444   4.938
 4626WAT  HW1  18502   3.723   3.396   4.855
 4626WAT  HW2  18503   3.797   3.428   4.984
 4626WAT  MW   18504   3.726   3.435   4.933
 4627WAT  OW   18505   4.146   0.894   5.394
 4627WAT  HW1  18506   4.130   0.988   5.399
 4627WAT  HW2  18507   4.165   0.878   5.302
 4627WAT  MW   18508   4.146   0.904   5.383
 4628WAT  OW   18509   3.334   2.445   4.138
 4628WAT  HW1  18510   3.365   2.370   4.088
 4628WAT  HW2  18511   3.413   2.499   4.152
 4628WAT  MW   18512   3.349   2.442   4.133
 4629WAT  OW   18513   5.917   6.350   0.728
 4629WAT  HW1  18514   5.939   6.317   0.641
 4629WAT  HW2  18515   5.868   6.431   0.711
 4629WAT  MW   18516   5.913   6.356   0.714
 4630WAT  OW   18517   4.511   2.436   5.827
 4630WAT  HW1  18518   4.591   2.389   5.802
 4630WAT  HW2  18519   4.538   2.527   5.837
 4630WAT  MW   18520   4.525   2.442   5.825
 4631WAT  OW   18521   4.944   1.013   2.501
 4631WAT  HW1  18522   4.882   0.973   2.562
 4631WAT  HW2  18523   4.992   0.939   2.463
 4631WAT  MW   18524   4.942   0.998   2.504
 4632WAT  OW   18525   2.553   0.964   0.303
 4632WAT  HW1  18526   2.621   0.924   0.248
 4632WAT  HW2  18527   2.549   1.055   0.273
 4632WAT  MW   18528   2.562   0.971   0.292
 4633WAT  OW   18529   2.008   2.837   6.127
 4633WAT  HW1  18530   2.057   2.843   6.045
 4633WAT  HW2  18531   1.931   2.892   6.113
 4633WAT  MW   18532   2.005   2.845   6.114
 4634WAT  OW   18533   5.513   2.614   1.283
 4634WAT  HW1  18534   5.490   2.697   1.243
 4634WAT  HW2  18535   5.493   2.548   1.216
 4634WAT  MW   18536   5.507   2.616   1.269
 4635WAT  OW   18537   1.368   0.494   0.013
 4635WAT  HW1  18538   1.287   0.443   0.023
 4635WAT  HW2  18539   1.388   0.488  -0.080
 4635WAT  MW   18540   1.360   0.487   0.002
 4636WAT  OW   18541   0.034   5.374   1.836
 4636WAT  HW1  18542  -0.054   5.412   1.834
 4636WAT  HW2  18543   0.074   5.411   1.915
 4636WAT  MW   18544   0.028   5.384   1.846
 4637WAT  OW   18545   0.254   3.329   6.534
 4637WAT  HW1  18546   0.167   3.289   6.534
 4637WAT  HW2  18547   0.291   3.307   6.619
 4637WAT  MW   18548   0.248   3.321   6.545
 4638WAT  OW   18549   5.969   5.109   4.512
 4638WAT  HW1  18550   6.019   5.055   4.450
 4638WAT  HW2  18551   6.026   5.184   4.528
 4638WAT  MW   18552   5.983   5.112   4.506
 4639WAT  OW   18553   0.691   5.046   2.029
 4639WAT  HW1  18554   0.713   5.003   2.112
 4639WAT  HW2  18555   0.690   4.975   1.965
 4639WAT  MW   18556   0.694   5.031   2.032
 4640WAT  OW   18557   5.828   1.718   1.470
 4640WAT  HW1  18558   5.778   1.749   1.395
 4640WAT  HW2  18559   5.852   1.797   1.518
 4640WAT  MW   18560   5.825   1.732   1.466
 4641WAT  OW   18561   2.914   2.131   2.457
 4641WAT  HW1  18562   2.938   2.172   2.374
 4641WAT  HW2  18563   2.878   2.046   2.433
 4641WAT  MW   18564   2.912   2.125   2.443
 4642WAT  OW   18565   3.129   2.514   2.414
 4642WAT  HW1  18566   3.163   2.427   2.395
 4642WAT  HW2  18567   3.188   2.574   2.368
 4642WAT  MW   18568   3.141   2.510   2.405
 4643WAT  OW   18569   2.438   1.555   4.145
 4643WAT  HW1  18570   2.511   1.610   4.117
 4643WAT  HW2  18571   2.429   1.490   4.075
 4643WAT  MW   18572   2.447   1.554   4.132
 4644WAT  OW   18573   2.695   1.658   1.042
 4644WAT  HW1  18574   2.641   1.582   1.019
 4644WAT  HW2  18575   2.742   1.630   1.121
 4644WAT  MW   18576   2.694   1.644   1.050
 4645WAT  OW   18577   4.520   6.417   2.935
 4645WAT  HW1  18578   4.512   6.508   2.905
 4645WAT  HW2  18579   4.486   6.418   3.024
 4645WAT  MW   18580   4.515   6.429   2.943
 4646WAT  OW   18581   6.507   0.922   0.035
 4646WAT  HW1  18582   6.500   0.972   0.116
 4646WAT  HW2  18583   6.591   0.947  -0.002
 4646WAT  MW   18584   6.517   0.932   0.041
 4647WAT  OW   18585   6.422   2.189   3.192
 4647WAT  HW1  18586   6.460   2.158   3.274
 4647WAT  HW2  18587   6.327   2.191   3.209
 4647WAT  MW   18588   6.414   2.185   3.205
 4648WAT  OW   18589   3.265   0.813   3.768
 4648WAT  HW1  18590   3.291   0.748   3.833
 4648WAT  HW2  18591   3.172   0.795   3.752
 4648WAT  MW   18592   3.256   0.802   3.775
 4649WAT  OW   18593   5.689   6.435   6.270
 4649WAT  HW1  18594   5.726   6.403   6.188
 4649WAT  HW2  18595   5.691   6.530   6.263
 4649WAT  MW   18596   5.694   6.443   6.258
 4650WAT  OW   18597   0.571   1.988   2.934
 4650WAT  HW1  18598   0.485   2.020   2.909
 4650WAT  HW2  18599   0.631   2.025   2.869
 4650WAT  MW   18600   0.568   1.997   2.922
 4651WAT  OW   18601   1.195   3.345   0.664
 4651WAT  HW1  18602   1.269   3.403   0.683
 4651WAT  HW2  18603   1.230   3.257   0.674
 4651WAT  MW   18604   1.209   3.341   0.668
 4652WAT  OW   18605   2.181   4.851   1.080
 4652WAT  HW1  18606   2.203   4.944   1.078
 4652WAT  HW2  18607   2.258   4.809   1.119
 4652WAT  MW   18608   2.194   4.857   1.085
 4653WAT  OW   18609   5.395   3.368   0.863
 4653WAT  HW1  18610   5.432   3.411   0.786
 4653WAT  HW2  18611   5.393   3.436   0.930
 4653WAT  MW   18612   5.399   3.383   0.862
 4654WAT  OW   18613   5.670   0.991   5.981
 4654WAT  HW1  18614   5.707   1.042   5.908
 4654WAT  HW2  18615   5.673   1.051   6.056
 4654WAT  MW   18616   5.675   1.006   5.981
 4655WAT  OW   18617   5.023   3.087   2.916
 4655WAT  HW1  18618   4.988   3.176   2.910
 4655WAT  HW2  18619   4.945   3.031   2.916
 4655WAT  MW   18620   5.008   3.091   2.915
 4656WAT  OW   18621   0.674   2.229   0.318
 4656WAT  HW1  18622   0.706   2.181   0.395
 4656WAT  HW2  18623   0.750   2.279   0.287
 4656WAT  MW   18624   0.688   2.230   0.324
 4657WAT  OW   18625   3.179   0.335   5.466
 4657WAT  HW1  18626   3.109   0.345   5.402
 4657WAT  HW2  18627   3.234   0.265   5.432
 4657WAT  MW   18628   3.177   0.327   5.453
 4658WAT  OW   18629   1.667   3.141   5.569
 4658WAT  HW1  18630   1.735   3.092   5.521
 4658WAT  HW2  18631   1.692   3.133   5.661
 4658WAT  MW   18632   1.680   3.133   5.574
 4659WAT  OW   18633   2.888   6.528   6.075
 4659WAT  HW1  18634   2.955   6.536   6.007
 4659WAT  HW2  18635   2.807   6.554   6.033
 4659WAT  MW   18636   2.886   6.532   6.061
 4660WAT  OW   18637   4.552   3.311   0.645
 4660WAT  HW1  18638   4.628   3.263   0.612
 4660WAT  HW2  18639   4.477   3.256   0.622
 4660WAT  MW   18640   4.552   3.297   0.638
 4661WAT  OW   18641   5.299   4.712   3.767
 4661WAT  HW1  18642   5.342   4.759   3.696
 4661WAT  HW2  18643   5.290   4.622   3.734
 4661WAT  MW   18644   5.303   4.706   3.753
 4662WAT  OW   18645   3.007   3.911   5.751
 4662WAT  HW1  18646   3.038   3.980   5.809
 4662WAT  HW2  18647   3.087   3.881   5.707
 4662WAT  MW   18648   3.022   3.916   5.753
 4663WAT  OW   18649   6.617   6.122   6.352
 4663WAT  HW1  18650   6.668   6.161   6.424
 4663WAT  HW2  18651   6.666   6.043   6.329
 4663WAT  MW   18652   6.631   6.116   6.359
 4664WAT  OW   18653   3.349   5.383   3.126
 4664WAT  HW1  18654   3.260   5.419   3.124
 4664WAT  HW2  18655   3.365   5.362   3.218
 4664WAT  MW   18656   3.340   5.385   3.138
 4665WAT  OW   18657   1.205   3.168   4.918
 4665WAT  HW1  18658   1.186   3.090   4.865
 4665WAT  HW2  18659   1.160   3.239   4.873
 4665WAT  MW   18660   1.196   3.167   4.905
 4666WAT  OW   18661   1.411   5.268   1.451
 4666WAT  HW1  18662   1.467   5.200   1.415
 4666WAT  HW2  18663   1.392   5.325   1.376
 4666WAT  MW   18664   1.416   5.267   1.436
 4667WAT  OW   18665   0.693   6.199   2.820
 4667WAT  HW1  18666   0.602   6.173   2.805
 4667WAT  HW2  18667   0.695   6.292   2.798
 4667WAT  MW   18668   0.681   6.208   2.815
 4668WAT  OW   18669   1.780   3.147   1.390
 4668WAT  HW1  18670   1.876   3.155   1.391
 4668WAT  HW2  18671   1.749   3.235   1.409
 4668WAT  MW   18672   1.789   3.160   1.392
 4669WAT  OW   18673   4.672   0.855   0.291
 4669WAT  HW1  18674   4.621   0.921   0.339
 4669WAT  HW2  18675   4.688   0.895   0.206
 4669WAT  MW   18676   4.667   0.869   0.286
 4670WAT  OW   18677   2.835   6.673   6.499
 4670WAT  HW1  18678   2.905   6.612   6.474
 4670WAT  HW2  18679   2.857   6.697   6.589
 4670WAT  MW   18680   2.847   6.668   6.507
 4671WAT  OW   18681   2.954   3.377   0.123
 4671WAT  HW1  18682   2.977   3.376   0.216
 4671WAT  HW2  18683   2.861   3.351   0.122
 4671WAT  MW   18684   2.945   3.373   0.135
 4672WAT  OW   18685   3.600   5.459   3.644
 4672WAT  HW1  18686   3.689   5.477   3.673
 4672WAT  HW2  18687   3.545   5.518   3.696
 4672WAT  MW   18688   3.604   5.469   3.655
 4673WAT  OW   18689   6.660   2.473   2.890
 4673WAT  HW1  18690   6.570   2.490   2.916
 4673WAT  HW2  18691   6.674   2.527   2.812
 4673WAT  MW   18692   6.650   2.482   2.883
 4674WAT  OW   18693   1.504   5.447   0.505
 4674WAT  HW1  18694   1.494   5.542   0.503
 4674WAT  HW2  18695   1.416   5.414   0.523
 4674WAT  MW   18696   1.491   5.455   0.507
 4675WAT  OW   18697   2.683   6.410   0.289
 4675WAT  HW1  18698   2.749   6.453   0.344
 4675WAT  HW2  18699   2.730   6.387   0.209
 4675WAT  MW   18700   2.698   6.413   0.286
 4676WAT  OW   18701   0.925   1.484   5.065
 4676WAT  HW1  18702   0.890   1.555   5.011
 4676WAT  HW2  18703   0.912   1.405   5.013
 4676WAT  MW   18704   0.918   1.483   5.051
 4677WAT  OW   18705   3.930   3.002   1.391
 4677WAT  HW1  18706   3.840   2.975   1.371
 4677WAT  HW2  18707   3.922   3.094   1.414
 4677WAT  MW   18708   3.917   3.010   1.391
 4678WAT  OW   18709   3.034   4.192   4.903
 4678WAT  HW1  18710   2.948   4.183   4.944
 4678WAT  HW2  18711   3.023   4.263   4.839
 4678WAT  MW   18712   3.022   4.200   4.900
 4679WAT  OW   18713   4.420   4.694   0.102
 4679WAT  HW1  18714   4.485   4.637   0.062
 4679WAT  HW2  18715   4.403   4.656   0.188
 4679WAT  MW   18716   4.426   4.682   0.108
 4680WAT  OW   18717   4.980   5.762   1.725
 4680WAT  HW1  18718   4.918   5.692   1.703
 4680WAT  HW2  18719   4.928   5.842   1.719
 4680WAT  MW   18720   4.965   5.764   1.721
 4681WAT  OW   18721   4.736   2.031   5.061
 4681WAT  HW1  18722   4.809   2.033   5.124
 4681WAT  HW2  18723   4.673   1.970   5.099
 4681WAT  MW   18724   4.738   2.023   5.074
 4682WAT  OW   18725   4.958   3.349   1.226
 4682WAT  HW1  18726   5.050   3.323   1.213
 4682WAT  HW2  18727   4.916   3.330   1.142
 4682WAT  MW   18728   4.965   3.343   1.213
 4683WAT  OW   18729   5.846   4.213   0.687
 4683WAT  HW1  18730   5.913   4.281   0.682
 4683WAT  HW2  18731   5.896   4.132   0.700
 4683WAT  MW   18732   5.862   4.211   0.688
 4684WAT  OW   18733   4.628   1.268   5.268
 4684WAT  HW1  18734   4.540   1.241   5.295
 4684WAT  HW2  18735   4.615   1.306   5.181
 4684WAT  MW   18736   4.615   1.270   5.260
 4685WAT  OW   18737   4.045   2.916   1.686
 4685WAT  HW1  18738   4.102   2.847   1.717
 4685WAT  HW2  18739   4.008   2.882   1.604
 4685WAT  MW   18740   4.047   2.903   1.680
 4686WAT  OW   18741   2.851   5.843   0.670
 4686WAT  HW1  18742   2.792   5.807   0.735
 4686WAT  HW2  18743   2.800   5.844   0.589
 4686WAT  MW   18744   2.837   5.838   0.668
 4687WAT  OW   18745   4.911   1.751   5.044
 4687WAT  HW1  18746   4.943   1.697   4.972
 4687WAT  HW2  18747   4.862   1.822   5.001
 4687WAT  MW   18748   4.909   1.754   5.029
 4688WAT  OW   18749   6.357   0.397   6.133
 4688WAT  HW1  18750   6.451   0.387   6.151
 4688WAT  HW2  18751   6.340   0.333   6.064
 4688WAT  MW   18752   6.367   0.387   6.126
 4689WAT  OW   18753   2.980   0.848   0.437
 4689WAT  HW1  18754   3.039   0.905   0.389
 4689WAT  HW2  18755   2.955   0.780   0.374
 4689WAT  MW   18756   2.985   0.846   0.423
 4690WAT  OW   18757   0.726   1.224   6.347
 4690WAT  HW1  18758   0.704   1.150   6.403
 4690WAT  HW2  18759   0.678   1.298   6.384
 4690WAT  MW   18760   0.717   1.224   6.359
 4691WAT  OW   18761   4.335   6.162   2.146
 4691WAT  HW1  18762   4.414   6.201   2.184
 4691WAT  HW2  18763   4.360   6.141   2.056
 4691WAT  MW   18764   4.349   6.164   2.139
 4692WAT  OW   18765   1.716   1.170   0.967
 4692WAT  HW1  18766   1.800   1.140   1.002
 4692WAT  HW2  18767   1.656   1.165   1.042
 4692WAT  MW   18768   1.719   1.166   0.982
 4693WAT  OW   18769   5.090   0.780   2.407
 4693WAT  HW1  18770   5.180   0.797   2.377
 4693WAT  HW2  18771   5.036   0.792   2.330
 4693WAT  MW   18772   5.095   0.784   2.393
 4694WAT  OW   18773   0.227   2.249   5.751
 4694WAT  HW1  18774   0.182   2.166   5.764
 4694WAT  HW2  18775   0.303   2.245   5.808
 4694WAT  MW   18776   0.231   2.238   5.760
 4695WAT  OW   18777   6.278   2.556   3.952
 4695WAT  HW1  18778   6.337   2.628   3.929
 4695WAT  HW2  18779   6.333   2.494   3.999
 4695WAT  MW   18780   6.293   2.557   3.956
 4696WAT  OW   18781   2.259   3.070   4.670
 4696WAT  HW1  18782   2.218   3.143   4.715
 4696WAT  HW2  18783   2.290   3.012   4.740
 4696WAT  MW   18784   2.258   3.072   4.685
 4697WAT  OW   18785   4.798   5.159   1.129
 4697WAT  HW1  18786   4.765   5.082   1.175
 4697WAT  HW2  18787   4.781   5.232   1.188
 4697WAT  MW   18788   4.791   5.158   1.143
 4698WAT  OW   18789   4.790   2.618   1.920
 4698WAT  HW1  18790   4.812   2.561   1.847
 4698WAT  HW2  18791   4.871   2.667   1.937
 4698WAT  MW   18792   4.804   2.617   1.913
 4699WAT  OW   18793   3.024   4.460   0.054
 4699WAT  HW1  18794   2.930   4.466   0.038
 4699WAT  HW2  18795   3.033   4.474   0.149
 4699WAT  MW   18796   3.013   4.462   0.065
 4700WAT  OW   18797   0.128   4.550   5.104
 4700WAT  HW1  18798   0.153   4.638   5.077
 4700WAT  HW2  18799   0.079   4.515   5.029
 4700WAT  MW   18800   0.125   4.557   5.090
 4701WAT  OW   18801   5.055   2.848   0.786
 4701WAT  HW1  18802   5.016   2.795   0.856
 4701WAT  HW2  18803   5.007   2.823   0.707
 4701WAT  MW   18804   5.044   2.837   0.785
 4702WAT  OW   18805   4.178   6.577   2.736
 4702WAT  HW1  18806   4.140   6.579   2.648
 4702WAT  HW2  18807   4.112   6.618   2.792
 4702WAT  MW   18808   4.164   6.583   2.731
 4703WAT  OW   18809   4.982   0.231   1.790
 4703WAT  HW1  18810   5.072   0.236   1.758
 4703WAT  HW2  18811   4.964   0.318   1.826
 4703WAT  MW   18812   4.992   0.243   1.790
 4704WAT  OW   18813   3.433   2.498   2.224
 4704WAT  HW1  18814   3.348   2.491   2.181
 4704WAT  HW2  18815   3.483   2.423   2.193
 4704WAT  MW   18816   3.429   2.487   2.215
 4705WAT  OW   18817   0.717   3.474   5.655
 4705WAT  HW1  18818   0.693   3.429   5.574
 4705WAT  HW2  18819   0.807   3.444   5.672
 4705WAT  MW   18820   0.726   3.464   5.646
 4706WAT  OW   18821   3.380   3.891   1.861
 4706WAT  HW1  18822   3.300   3.894   1.913
 4706WAT  HW2  18823   3.445   3.939   1.912
 4706WAT  MW   18824   3.378   3.898   1.874
 4707WAT  OW   18825   2.218   3.426   4.975
 4707WAT  HW1  18826   2.240   3.518   4.960
 4707WAT  HW2  18827   2.200   3.422   5.069
 4707WAT  MW   18828   2.219   3.438   4.986
 4708WAT  OW   18829   5.156   2.496   3.838
 4708WAT  HW1  18830   5.249   2.482   3.821
 4708WAT  HW2  18831   5.112   2.422   3.796
 4708WAT  MW   18832   5.162   2.485   3.830
 4709WAT  OW   18833   1.594   4.807   3.344
 4709WAT  HW1  18834   1.682   4.771   3.347
 4709WAT  HW2  18835   1.606   4.901   3.336
 4709WAT  MW   18836   1.607   4.815   3.343
 4710WAT  OW   18837   2.490   1.692   1.358
 4710WAT  HW1  18838   2.535   1.776   1.350
 4710WAT  HW2  18839   2.557   1.633   1.394
 4710WAT  MW   18840   2.505   1.695   1.362
 4711WAT  OW   18841   2.996   4.219   1.737
 4711WAT  HW1  18842   2.919   4.181   1.781
 4711WAT  HW2  18843   3.063   4.224   1.806
 4711WAT  MW   18844   2.994   4.215   1.752
 4712WAT  OW   18845   2.422   6.030   4.292
 4712WAT  HW1  18846   2.476   6.062   4.219
 4712WAT  HW2  18847   2.360   5.970   4.251
 4712WAT  MW   18848   2.421   6.026   4.277
 4713WAT  OW   18849   1.315   3.736   2.327
 4713WAT  HW1  18850   1.228   3.755   2.294
 4713WAT  HW2  18851   1.320   3.640   2.329
 4713WAT  MW   18852   1.304   3.726   2.323
 4714WAT  OW   18853   2.698   2.570   1.269
 4714WAT  HW1  18854   2.622   2.590   1.323
 4714WAT  HW2  18855   2.675   2.601   1.182
 4714WAT  MW   18856   2.685   2.577   1.265
 4715WAT  OW   18857   2.087   4.446   1.135
 4715WAT  HW1  18858   2.037   4.509   1.187
 4715WAT  HW2  18859   2.076   4.363   1.181
 4715WAT  MW   18860   2.079   4.444   1.148
 4716WAT  OW   18861   0.162   1.597   5.419
 4716WAT  HW1  18862   0.114   1.553   5.488
 4716WAT  HW2  18863   0.126   1.686   5.417
 4716WAT  MW   18864   0.151   1.603   5.428
 4717WAT  OW   18865   6.271   1.120   6.120
 4717WAT  HW1  18866   6.179   1.128   6.097
 4717WAT  HW2  18867   6.271   1.082   6.207
 4717WAT  MW   18868   6.259   1.116   6.128
 4718WAT  OW   18869   2.753   2.707   0.253
 4718WAT  HW1  18870   2.752   2.727   0.159
 4718WAT  HW2  18871   2.824   2.761   0.288
 4718WAT  MW   18872   2.762   2.717   0.245
 4719WAT  OW   18873   4.488   5.073   2.567
 4719WAT  HW1  18874   4.434   4.995   2.555
 4719WAT  HW2  18875   4.471   5.126   2.489
 4719WAT  MW   18876   4.479   5.070   2.555
 4720WAT  OW   18877   5.331   2.438   2.276
 4720WAT  HW1  18878   5.372   2.366   2.324
 4720WAT  HW2  18879   5.246   2.450   2.320
 4720WAT  MW   18880   5.325   2.430   2.289
 4721WAT  OW   18881   0.956   2.222   3.728
 4721WAT  HW1  18882   0.985   2.310   3.704
 4721WAT  HW2  18883   0.950   2.224   3.824
 4721WAT  MW   18884   0.959   2.234   3.738
 4722WAT  OW   18885   0.847   1.779   2.695
 4722WAT  HW1  18886   0.765   1.759   2.740
 4722WAT  HW2  18887   0.826   1.769   2.602
 4722WAT  MW   18888   0.833   1.775   2.688
 4723WAT  OW   18889   1.683   1.742   5.136
 4723WAT  HW1  18890   1.743   1.816   5.131
 4723WAT  HW2  18891   1.654   1.729   5.045
 4723WAT  MW   18892   1.687   1.750   5.123
 4724WAT  OW   18893   4.718   0.323   2.705
 4724WAT  HW1  18894   4.810   0.325   2.679
 4724WAT  HW2  18895   4.713   0.381   2.780
 4724WAT  MW   18896   4.729   0.331   2.711
 4725WAT  OW   18897   1.737   3.919   4.469
 4725WAT  HW1  18898   1.823   3.882   4.451
 4725WAT  HW2  18899   1.691   3.914   4.385
 4725WAT  MW   18900   1.742   3.914   4.456
 4726WAT  OW   18901   5.213   0.544   4.742
 4726WAT  HW1  18902   5.166   0.461   4.732
 4726WAT  HW2  18903   5.275   0.547   4.669
 4726WAT  MW   18904   5.215   0.534   4.731
 4727WAT  OW   18905   2.549   3.129   1.509
 4727WAT  HW1  18906   2.625   3.076   1.533
 4727WAT  HW2  18907   2.489   3.068   1.467
 4727WAT  MW   18908   2.551   3.114   1.506
 4728WAT  OW   18909   6.258   4.908   2.431
 4728WAT  HW1  18910   6.176   4.861   2.417
 4728WAT  HW2  18911   6.316   4.878   2.361
 4728WAT  MW   18912   6.255   4.898   2.420
 4729WAT  OW   18913   6.271   4.998   2.846
 4729WAT  HW1  18914   6.340   4.981   2.782
 4729WAT  HW2  18915   6.292   5.084   2.881
 4729WAT  MW   18916   6.283   5.007   2.842
 4730WAT  OW   18917   4.934   3.498   5.150
 4730WAT  HW1  18918   4.960   3.409   5.127
 4730WAT  HW2  18919   4.938   3.501   5.246
 4730WAT  MW   18920   4.938   3.487   5.160
 4731WAT  OW   18921   3.129   3.171   3.434
 4731WAT  HW1  18922   3.077   3.107   3.386
 4731WAT  HW2  18923   3.145   3.131   3.519
 4731WAT  MW   18924   3.124   3.158   3.438
 4732WAT  OW   18925   4.595   5.650   2.211
 4732WAT  HW1  18926   4.521   5.601   2.244
 4732WAT  HW2  18927   4.638   5.591   2.149
 4732WAT  MW   18928   4.591   5.636   2.207
 4733WAT  OW   18929   3.607   4.177   1.303
 4733WAT  HW1  18930   3.642   4.241   1.365
 4733WAT  HW2  18931   3.590   4.099   1.355
 4733WAT  MW   18932   3.609   4.175   1.318
 4734WAT  OW   18933   5.954   1.333   1.288
 4734WAT  HW1  18934   5.891   1.362   1.221
 4734WAT  HW2  18935   5.962   1.407   1.347
 4734WAT  MW   18936   5.947   1.346   1.287
 4735WAT  OW   18937   5.607   5.553   0.243
 4735WAT  HW1  18938   5.672   5.578   0.178
 4735WAT  HW2  18939   5.635   5.598   0.323
 4735WAT  MW   18940   5.619   5.562   0.245
 4736WAT  OW   18941   2.141   5.552   1.852
 4736WAT  HW1  18942   2.143   5.648   1.854
 4736WAT  HW2  18943   2.080   5.531   1.782
 4736WAT  MW   18944   2.134   5.562   1.843
 4737WAT  OW   18945   0.566   3.175   0.879
 4737WAT  HW1  18946   0.587   3.126   0.800
 4737WAT  HW2  18947   0.606   3.261   0.866
 4737WAT  MW   18948   0.574   3.180   0.867
 4738WAT  OW   18949   4.443   2.989   5.477
 4738WAT  HW1  18950   4.500   3.011   5.550
 4738WAT  HW2  18951   4.497   2.934   5.420
 4738WAT  MW   18952   4.458   2.984   5.479
 4739WAT  OW   18953   4.714   5.214   3.271
 4739WAT  HW1  18954   4.784   5.278   3.282
 4739WAT  HW2  18955   4.644   5.263   3.229
 4739WAT  MW   18956   4.714   5.229   3.267
 4740WAT  OW   18957   5.274   5.473   4.825
 4740WAT  HW1  18958   5.340   5.499   4.889
 4740WAT  HW2  18959   5.304   5.388   4.792
 4740WAT  MW   18960   5.286   5.465   4.829
 4741WAT  OW   18961   1.294   4.962   1.189
 4741WAT  HW1  18962   1.323   5.044   1.151
 4741WAT  HW2  18963   1.297   4.976   1.284
 4741WAT  MW   18964   1.298   4.974   1.196
 4742WAT  OW   18965   2.463   0.419   2.309
 4742WAT  HW1  18966   2.382   0.463   2.284
 4742WAT  HW2  18967   2.434   0.348   2.367
 4742WAT  MW   18968   2.448   0.415   2.313
 4743WAT  OW   18969   4.667   3.972   3.353
 4743WAT  HW1  18970   4.622   3.919   3.420
 4743WAT  HW2  18971   4.671   4.060   3.391
 4743WAT  MW   18972   4.661   3.976   3.367
 4744WAT  OW   18973   0.256   0.878   5.813
 4744WAT  HW1  18974   0.321   0.815   5.842
 4744WAT  HW2  18975   0.178   0.826   5.795
 4744WAT  MW   18976   0.254   0.863   5.814
 4745WAT  OW   18977   2.567   0.609   6.436
 4745WAT  HW1  18978   2.499   0.550   6.469
 4745WAT  HW2  18979   2.542   0.626   6.345
 4745WAT  MW   18980   2.555   0.603   6.428
 4746WAT  OW   18981   0.128   4.250   4.919
 4746WAT  HW1  18982   0.104   4.214   5.005
 4746WAT  HW2  18983   0.115   4.177   4.858
 4746WAT  MW   18984   0.123   4.236   4.922
 4747WAT  OW   18985   3.343   2.241   5.821
 4747WAT  HW1  18986   3.341   2.146   5.833
 4747WAT  HW2  18987   3.300   2.256   5.737
 4747WAT  MW   18988   3.337   2.230   5.812
 4748WAT  OW   18989   6.085   2.550   5.495
 4748WAT  HW1  18990   6.131   2.473   5.463
 4748WAT  HW2  18991   6.137   2.581   5.569
 4748WAT  MW   18992   6.098   2.544   5.501
 4749WAT  OW   18993   6.441   1.573   6.259
 4749WAT  HW1  18994   6.429   1.493   6.208
 4749WAT  HW2  18995   6.532   1.569   6.290
 4749WAT  MW   18996   6.452   1.562   6.256
 4750WAT  OW   18997   3.426   2.024   1.031
 4750WAT  HW1  18998   3.346   2.006   0.982
 4750WAT  HW2  18999   3.432   1.953   1.095
 4750WAT  MW   19000   3.416   2.012   1.033
 4751WAT  OW   19001   0.561   2.442   5.247
 4751WAT  HW1  19002   0.610   2.520   5.273
 4751WAT  HW2  19003   0.584   2.376   5.313
 4751WAT  MW   19004   0.570   2.443   5.259
 4752WAT  OW   19005   5.845   3.221   3.857
 4752WAT  HW1  19006   5.889   3.256   3.935
 4752WAT  HW2  19007   5.899   3.250   3.784
 4752WAT  MW   19008   5.858   3.230   3.858
 4753WAT  OW   19009   2.568   2.268   2.498
 4753WAT  HW1  19010   2.507   2.329   2.538
 4753WAT  HW2  19011   2.521   2.234   2.422
 4753WAT  MW   19012   2.554   2.272   2.493
 4754WAT  OW   19013   0.352   5.692   0.427
 4754WAT  HW1  19014   0.413   5.631   0.384
 4754WAT  HW2  19015   0.269   5.678   0.383
 4754WAT  MW   19016   0.349   5.682   0.415
 4755WAT  OW   19017   4.805   0.376   4.267
 4755WAT  HW1  19018   4.781   0.311   4.202
 4755WAT  HW2  19019   4.804   0.459   4.219
 4755WAT  MW   19020   4.802   0.379   4.252
 4756WAT  OW   19021   5.676   3.216   5.982
 4756WAT  HW1  19022   5.678   3.121   5.973
 4756WAT  HW2  19023   5.763   3.240   6.014
 4756WAT  MW   19024   5.687   3.207   5.985
 4757WAT  OW   19025   1.190   5.213   0.936
 4757WAT  HW1  19026   1.189   5.288   0.877
 4757WAT  HW2  19027   1.264   5.230   0.995
 4757WAT  MW   19028   1.200   5.225   0.936
 4758WAT  OW   19029   2.785   1.292   0.604
 4758WAT  HW1  19030   2.809   1.335   0.522
 4758WAT  HW2  19031   2.759   1.204   0.577
 4758WAT  MW   19032   2.785   1.286   0.589
 4759WAT  OW   19033   2.514   0.015   2.199
 4759WAT  HW1  19034   2.547  -0.074   2.191
 4759WAT  HW2  19035   2.529   0.038   2.290
 4759WAT  MW   19036   2.520   0.006   2.210
 4760WAT  OW   19037   2.345   2.410   2.605
 4760WAT  HW1  19038   2.293   2.427   2.526
 4760WAT  HW2  19039   2.390   2.493   2.622
 4760WAT  MW   19040   2.344   2.423   2.597
 4761WAT  OW   19041   0.630   1.048   3.682
 4761WAT  HW1  19042   0.661   1.001   3.759
 4761WAT  HW2  19043   0.693   1.119   3.670
 4761WAT  MW   19044   0.642   1.051   3.691
 4762WAT  OW   19045   0.152   2.964   0.078
 4762WAT  HW1  19046   0.119   3.043   0.121
 4762WAT  HW2  19047   0.109   2.892   0.124
 4762WAT  MW   19048   0.142   2.965   0.090
 4763WAT  OW   19049   4.524   6.526   3.772
 4763WAT  HW1  19050   4.502   6.537   3.680
 4763WAT  HW2  19051   4.447   6.482   3.809
 4763WAT  MW   19052   4.511   6.521   3.765
 4764WAT  OW   19053   1.462   1.451   6.206
 4764WAT  HW1  19054   1.460   1.417   6.116
 4764WAT  HW2  19055   1.538   1.510   6.207
 4764WAT  MW   19056   1.472   1.455   6.194
 4765WAT  OW   19057   1.260   3.400   4.636
 4765WAT  HW1  19058   1.207   3.396   4.556
 4765WAT  HW2  19059   1.204   3.361   4.703
 4765WAT  MW   19060   1.245   3.394   4.634
 4766WAT  OW   19061   2.705   0.815   0.141
 4766WAT  HW1  19062   2.798   0.835   0.133
 4766WAT  HW2  19063   2.677   0.794   0.052
 4766WAT  MW   19064   2.714   0.815   0.128
 4767WAT  OW   19065   1.765   4.025   6.640
 4767WAT  HW1  19066   1.711   4.068   6.574
 4767WAT  HW2  19067   1.796   4.097   6.696
 4767WAT  MW   19068   1.762   4.040   6.638
 4768WAT  OW   19069   0.056   4.416   1.249
 4768WAT  HW1  19070  -0.039   4.414   1.236
 4768WAT  HW2  19071   0.078   4.328   1.280
 4768WAT  MW   19072   0.047   4.404   1.251
 4769WAT  OW   19073   1.465   5.458   0.163
 4769WAT  HW1  19074   1.510   5.497   0.089
 4769WAT  HW2  19075   1.535   5.430   0.222
 4769WAT  MW   19076   1.480   5.459   0.161
 4770WAT  OW   19077   5.689   6.364   1.639
 4770WAT  HW1  19078   5.783   6.383   1.649
 4770WAT  HW2  19079   5.676   6.357   1.544
 4770WAT  MW   19080   5.700   6.365   1.628
 4771WAT  OW   19081   5.381   6.188   6.652
 4771WAT  HW1  19082   5.354   6.192   6.743
 4771WAT  HW2  19083   5.382   6.279   6.623
 4771WAT  MW   19084   5.378   6.201   6.660
 4772WAT  OW   19085   3.552   2.116   5.598
 4772WAT  HW1  19086   3.507   2.152   5.521
 4772WAT  HW2  19087   3.482   2.074   5.649
 4772WAT  MW   19088   3.537   2.115   5.595
 4773WAT  OW   19089   5.652   5.133   2.745
 4773WAT  HW1  19090   5.738   5.158   2.778
 4773WAT  HW2  19091   5.600   5.117   2.824
 4773WAT  MW   19092   5.656   5.134   2.760
 4774WAT  OW   19093   0.875   2.049   6.398
 4774WAT  HW1  19094   0.915   2.136   6.390
 4774WAT  HW2  19095   0.844   2.029   6.310
 4774WAT  MW   19096   0.876   2.058   6.386
 4775WAT  OW   19097   5.786   2.313   3.078
 4775WAT  HW1  19098   5.807   2.244   3.016
 4775WAT  HW2  19099   5.771   2.267   3.161
 4775WAT  MW   19100   5.787   2.298   3.081
 4776WAT  OW   19101   3.944   4.253   0.813
 4776WAT  HW1  19102   3.989   4.288   0.736
 4776WAT  HW2  19103   3.852   4.250   0.788
 4776WAT  MW   19104   3.938   4.257   0.800
 4777WAT  OW   19105   1.265   3.481   6.449
 4777WAT  HW1  19106   1.327   3.410   6.463
 4777WAT  HW2  19107   1.307   3.559   6.486
 4777WAT  MW   19108   1.279   3.482   6.456
 4778WAT  OW   19109   0.005   5.335   3.877
 4778WAT  HW1  19110   0.095   5.367   3.869
 4778WAT  HW2  19111  -0.006   5.278   3.801
 4778WAT  MW   19112   0.016   5.332   3.866
 4779WAT  OW   19113   1.768   5.805   2.235
 4779WAT  HW1  19114   1.762   5.899   2.219
 4779WAT  HW2  19115   1.859   5.783   2.217
 4779WAT  MW   19116   1.779   5.814   2.231
 4780WAT  OW   19117   1.072   1.307   2.353
 4780WAT  HW1  19118   1.003   1.347   2.300
 4780WAT  HW2  19119   1.038   1.220   2.375
 4780WAT  MW   19120   1.059   1.301   2.349
 4781WAT  OW   19121   2.615   0.670   0.670
 4781WAT  HW1  19122   2.536   0.706   0.710
 4781WAT  HW2  19123   2.683   0.735   0.689
 4781WAT  MW   19124   2.613   0.683   0.678
 4782WAT  OW   19125   5.645   4.488   4.679
 4782WAT  HW1  19126   5.638   4.581   4.699
 4782WAT  HW2  19127   5.736   4.467   4.695
 4782WAT  MW   19128   5.656   4.498   4.684
 4783WAT  OW   19129   4.755   0.041   5.184
 4783WAT  HW1  19130   4.662   0.043   5.163
 4783WAT  HW2  19131   4.792   0.115   5.135
 4783WAT  MW   19132   4.748   0.051   5.175
 4784WAT  OW   19133   5.869   3.402   0.988
 4784WAT  HW1  19134   5.884   3.374   1.078
 4784WAT  HW2  19135   5.789   3.356   0.962
 4784WAT  MW   19136   5.860   3.392   0.996
 4785WAT  OW   19137   5.142   5.723   3.890
 4785WAT  HW1  19138   5.218   5.670   3.866
 4785WAT  HW2  19139   5.075   5.698   3.826
 4785WAT  MW   19140   5.143   5.713   3.878
 4786WAT  OW   19141   3.547   4.472   0.754
 4786WAT  HW1  19142   3.574   4.494   0.843
 4786WAT  HW2  19143   3.608   4.521   0.698
 4786WAT  MW   19144   3.559   4.482   0.758
 4787WAT  OW   19145   4.484   6.014   6.068
 4787WAT  HW1  19146   4.450   5.925   6.079
 4787WAT  HW2  19147   4.419   6.057   6.012
 4787WAT  MW   19148   4.471   6.008   6.062
 4788WAT  OW   19149   3.706   5.882   4.974
 4788WAT  HW1  19150   3.755   5.811   4.932
 4788WAT  HW2  19151   3.615   5.853   4.974
 4788WAT  MW   19152   3.701   5.869   4.968
 4789WAT  OW   19153   0.415   4.996   3.824
 4789WAT  HW1  19154   0.435   5.057   3.895
 4789WAT  HW2  19155   0.385   4.916   3.869
 4789WAT  MW   19156   0.414   4.993   3.840
 4790WAT  OW   19157   3.235   6.312   6.172
 4790WAT  HW1  19158   3.189   6.231   6.151
 4790WAT  HW2  19159   3.319   6.283   6.209
 4790WAT  MW   19160   3.240   6.297   6.174
 4791WAT  OW   19161   5.778   2.932   2.343
 4791WAT  HW1  19162   5.819   2.869   2.401
 4791WAT  HW2  19163   5.698   2.958   2.388
 4791WAT  MW   19164   5.773   2.927   2.356
 4792WAT  OW   19165   5.873   5.686   6.212
 4792WAT  HW1  19166   5.820   5.760   6.184
 4792WAT  HW2  19167   5.961   5.706   6.178
 4792WAT  MW   19168   5.878   5.698   6.204
 4793WAT  OW   19169   3.734   2.359   3.299
 4793WAT  HW1  19170   3.710   2.450   3.283
 4793WAT  HW2  19171   3.737   2.351   3.394
 4793WAT  MW   19172   3.732   2.370   3.310
 4794WAT  OW   19173   3.064   2.751   4.321
 4794WAT  HW1  19174   3.027   2.830   4.360
 4794WAT  HW2  19175   3.121   2.714   4.389
 4794WAT  MW   19176   3.067   2.756   4.335
 4795WAT  OW   19177   0.732   5.661   3.494
 4795WAT  HW1  19178   0.793   5.596   3.530
 4795WAT  HW2  19179   0.772   5.690   3.413
 4795WAT  MW   19180   0.745   5.656   3.488
 4796WAT  OW   19181   5.416   0.899   6.454
 4796WAT  HW1  19182   5.491   0.935   6.500
 4796WAT  HW2  19183   5.348   0.966   6.460
 4796WAT  MW   19184   5.417   0.912   6.461
 4797WAT  OW   19185   0.337   3.308   4.069
 4797WAT  HW1  19186   0.365   3.250   3.998
 4797WAT  HW2  19187   0.302   3.249   4.136
 4797WAT  MW   19188   0.336   3.293   4.069
 4798WAT  OW   19189   3.980   1.989   4.151
 4798WAT  HW1  19190   3.963   1.977   4.058
 4798WAT  HW2  19191   3.960   1.904   4.190
 4798WAT  MW   19192   3.976   1.976   4.144
 4799WAT  OW   19193   0.854   0.504   1.179
 4799WAT  HW1  19194   0.924   0.472   1.121
 4799WAT  HW2  19195   0.826   0.426   1.227
 4799WAT  MW   19196   0.860   0.489   1.177
 4800WAT  OW   19197   0.378   4.318   2.142
 4800WAT  HW1  19198   0.429   4.359   2.212
 4800WAT  HW2  19199   0.442   4.298   2.074
 4800WAT  MW   19200   0.393   4.321   2.142
 4801WAT  OW   19201   3.475   3.146   4.267
 4801WAT  HW1  19202   3.482   3.172   4.359
 4801WAT  HW2  19203   3.544   3.080   4.256
 4801WAT  MW   19204   3.485   3.140   4.278
 4802WAT  OW   19205   5.394   6.630   1.410
 4802WAT  HW1  19206   5.362   6.653   1.323
 4802WAT  HW2  19207   5.432   6.543   1.400
 4802WAT  MW   19208   5.395   6.622   1.397
 4803WAT  OW   19209   0.788   6.354   3.874
 4803WAT  HW1  19210   0.741   6.423   3.826
 4803WAT  HW2  19211   0.741   6.274   3.851
 4803WAT  MW   19212   0.775   6.353   3.865
 4804WAT  OW   19213   1.697   6.469   0.697
 4804WAT  HW1  19214   1.688   6.556   0.736
 4804WAT  HW2  19215   1.611   6.429   0.706
 4804WAT  MW   19216   1.685   6.475   0.703
 4805WAT  OW   19217   4.630   4.890   0.178
 4805WAT  HW1  19218   4.694   4.850   0.236
 4805WAT  HW2  19219   4.579   4.817   0.143
 4805WAT  MW   19220   4.631   4.875   0.181
 4806WAT  OW   19221   0.863   1.899   1.109
 4806WAT  HW1  19222   0.918   1.868   1.181
 4806WAT  HW2  19223   0.777   1.859   1.125
 4806WAT  MW   19224   0.859   1.890   1.120
 4807WAT  OW   19225   5.826   3.968   4.199
 4807WAT  HW1  19226   5.855   3.913   4.272
 4807WAT  HW2  19227   5.801   3.906   4.130
 4807WAT  MW   19228   5.826   3.953   4.199
 4808WAT  OW   19229   2.957   6.671   5.677
 4808WAT  HW1  19230   2.862   6.671   5.687
 4808WAT  HW2  19231   2.976   6.590   5.630
 4808WAT  MW   19232   2.947   6.661   5.672
 4809WAT  OW   19233   4.714   2.896   4.168
 4809WAT  HW1  19234   4.672   2.972   4.209
 4809WAT  HW2  19235   4.642   2.848   4.127
 4809WAT  MW   19236   4.699   2.900   4.168
 4810WAT  OW   19237   2.747   3.858   5.296
 4810WAT  HW1  19238   2.672   3.840   5.239
 4810WAT  HW2  19239   2.797   3.777   5.295
 4810WAT  MW   19240   2.744   3.845   5.288
 4811WAT  OW   19241   2.504   1.912   5.525
 4811WAT  HW1  19242   2.599   1.922   5.522
 4811WAT  HW2  19243   2.489   1.851   5.598
 4811WAT  MW   19244   2.515   1.905   5.535
 4812WAT  OW   19245   2.069   3.151   1.053
 4812WAT  HW1  19246   2.040   3.120   1.139
 4812WAT  HW2  19247   2.122   3.080   1.018
 4812WAT  MW   19248   2.072   3.138   1.060
 4813WAT  OW   19249   1.768   0.063   5.770
 4813WAT  HW1  19250   1.681   0.058   5.810
 4813WAT  HW2  19251   1.800  -0.027   5.771
 4813WAT  MW   19252   1.761   0.051   5.775
 4814WAT  OW   19253   6.511   1.038   0.300
 4814WAT  HW1  19254   6.505   0.948   0.333
 4814WAT  HW2  19255   6.452   1.088   0.357
 4814WAT  MW   19256   6.502   1.033   0.312
 4815WAT  OW   19257   0.994   4.916   6.090
 4815WAT  HW1  19258   0.999   4.968   6.010
 4815WAT  HW2  19259   1.008   4.978   6.161
 4815WAT  MW   19260   0.996   4.931   6.089
 4816WAT  OW   19261   0.263   0.124   3.783
 4816WAT  HW1  19262   0.264   0.133   3.688
 4816WAT  HW2  19263   0.307   0.203   3.815
 4816WAT  MW   19264   0.269   0.135   3.775
 4817WAT  OW   19265   1.119   0.516   5.130
 4817WAT  HW1  19266   1.128   0.510   5.035
 4817WAT  HW2  19267   1.031   0.554   5.144
 4817WAT  MW   19268   1.108   0.520   5.120
 4818WAT  OW   19269   5.141   6.612   4.230
 4818WAT  HW1  19270   5.065   6.562   4.259
 4818WAT  HW2  19271   5.109   6.702   4.221
 4818WAT  MW   19272   5.127   6.618   4.232
 4819WAT  OW   19273   2.393   6.251   2.615
 4819WAT  HW1  19274   2.478   6.288   2.636
 4819WAT  HW2  19275   2.333   6.292   2.677
 4819WAT  MW   19276   2.396   6.261   2.626
 4820WAT  OW   19277   2.221   1.278   1.166
 4820WAT  HW1  19278   2.212   1.368   1.198
 4820WAT  HW2  19279   2.145   1.232   1.200
 4820WAT  MW   19280   2.210   1.284   1.175
 4821WAT  OW   19281   6.424   4.908   2.634
 4821WAT  HW1  19282   6.353   4.887   2.574
 4821WAT  HW2  19283   6.490   4.841   2.619
 4821WAT  MW   19284   6.424   4.897   2.624
 4822WAT  OW   19285   0.924   4.840   0.724
 4822WAT  HW1  19286   0.866   4.792   0.784
 4822WAT  HW2  19287   0.969   4.903   0.780
 4822WAT  MW   19288   0.922   4.842   0.739
 4823WAT  OW   19289   3.825   6.330   0.687
 4823WAT  HW1  19290   3.836   6.264   0.756
 4823WAT  HW2  19291   3.876   6.405   0.717
 4823WAT  MW   19292   3.833   6.331   0.700
 4824WAT  OW   19293   4.277   2.693   2.054
 4824WAT  HW1  19294   4.312   2.604   2.055
 4824WAT  HW2  19295   4.355   2.748   2.064
 4824WAT  MW   19296   4.292   2.688   2.056
 4825WAT  OW   19297   5.401   0.268   6.500
 4825WAT  HW1  19298   5.406   0.211   6.423
 4825WAT  HW2  19299   5.416   0.210   6.574
 4825WAT  MW   19300   5.403   0.253   6.499
 4826WAT  OW   19301   6.537   0.239   2.119
 4826WAT  HW1  19302   6.488   0.181   2.060
 4826WAT  HW2  19303   6.614   0.265   2.069
 4826WAT  MW   19304   6.541   0.235   2.104
 4827WAT  OW   19305   4.961   4.254   2.489
 4827WAT  HW1  19306   4.986   4.283   2.577
 4827WAT  HW2  19307   5.033   4.282   2.432
 4827WAT  MW   19308   4.974   4.261   2.493
 4828WAT  OW   19309   6.100   0.154   4.442
 4828WAT  HW1  19310   6.078   0.223   4.504
 4828WAT  HW2  19311   6.032   0.159   4.375
 4828WAT  MW   19312   6.088   0.163   4.442
 4829WAT  OW   19313   3.523   6.014   4.225
 4829WAT  HW1  19314   3.561   6.097   4.252
 4829WAT  HW2  19315   3.429   6.027   4.235
 4829WAT  MW   19316   3.516   6.027   4.230
 4830WAT  OW   19317   2.851   6.643   2.057
 4830WAT  HW1  19318   2.866   6.590   2.135
 4830WAT  HW2  19319   2.805   6.584   1.997
 4830WAT  MW   19320   2.847   6.628   2.059
 4831WAT  OW   19321   4.974   4.916   0.942
 4831WAT  HW1  19322   5.018   4.993   0.978
 4831WAT  HW2  19323   4.893   4.950   0.905
 4831WAT  MW   19324   4.969   4.930   0.942
 4832WAT  OW   19325   2.988   5.979   4.654
 4832WAT  HW1  19326   3.024   5.903   4.699
 4832WAT  HW2  19327   2.986   6.048   4.720
 4832WAT  MW   19328   2.993   5.978   4.668
 4833WAT  OW   19329   3.786   1.828   2.661
 4833WAT  HW1  19330   3.873   1.854   2.693
 4833WAT  HW2  19331   3.805   1.769   2.588
 4833WAT  MW   19332   3.800   1.824   2.655
 4834WAT  OW   19333   4.223   4.533   1.624
 4834WAT  HW1  19334   4.147   4.569   1.669
 4834WAT  HW2  19335   4.205   4.547   1.531
 4834WAT  MW   19336   4.210   4.540   1.618
 4835WAT  OW   19337   6.637   6.208   4.654
 4835WAT  HW1  19338   6.622   6.288   4.604
 4835WAT  HW2  19339   6.583   6.142   4.610
 4835WAT  MW   19340   6.628   6.210   4.642
 4836WAT  OW   19341   0.034   2.252   6.357
 4836WAT  HW1  19342   0.060   2.305   6.433
 4836WAT  HW2  19343   0.117   2.231   6.314
 4836WAT  MW   19344   0.049   2.256   6.361
 4837WAT  OW   19345   2.983   1.086   0.033
 4837WAT  HW1  19346   2.979   0.992   0.017
 4837WAT  HW2  19347   3.061   1.114  -0.015
 4837WAT  MW   19348   2.993   1.077   0.025
 4838WAT  OW   19349   0.863   6.100   4.948
 4838WAT  HW1  19350   0.775   6.083   4.912
 4838WAT  HW2  19351   0.887   6.186   4.914
 4838WAT  MW   19352   0.854   6.109   4.939
 4839WAT  OW   19353   6.390   3.113   4.447
 4839WAT  HW1  19354   6.361   3.071   4.366
 4839WAT  HW2  19355   6.356   3.202   4.442
 4839WAT  MW   19356   6.382   3.119   4.436
 4840WAT  OW   19357   4.430   2.660   1.165
 4840WAT  HW1  19358   4.483   2.602   1.219
 4840WAT  HW2  19359   4.492   2.698   1.103
 4840WAT  MW   19360   4.445   2.657   1.164
 4841WAT  OW   19361   0.239   4.034   3.854
 4841WAT  HW1  19362   0.176   3.969   3.823
 4841WAT  HW2  19363   0.186   4.102   3.894
 4841WAT  MW   19364   0.224   4.034   3.855
 4842WAT  OW   19365   5.788   3.550   3.611
 4842WAT  HW1  19366   5.708   3.561   3.662
 4842WAT  HW2  19367   5.841   3.489   3.661
 4842WAT  MW   19368   5.785   3.544   3.624
 4843WAT  OW   19369   1.896   0.794   0.874
 4843WAT  HW1  19370   1.911   0.859   0.942
 4843WAT  HW2  19371   1.864   0.844   0.799
 4843WAT  MW   19372   1.894   0.809   0.873
 4844WAT  OW   19373   1.467   1.509   5.788
 4844WAT  HW1  19374   1.372   1.524   5.791
 4844WAT  HW2  19375   1.504   1.595   5.807
 4844WAT  MW   19376   1.459   1.523   5.791
 4845WAT  OW   19377   0.913   2.772   5.542
 4845WAT  HW1  19378   0.829   2.803   5.576
 4845WAT  HW2  19379   0.976   2.797   5.610
 4845WAT  MW   19380   0.910   2.779   5.555
 4846WAT  OW   19381   2.902   6.159   1.502
 4846WAT  HW1  19382   2.949   6.080   1.475
 4846WAT  HW2  19383   2.814   6.150   1.464
 4846WAT  MW   19384   2.896   6.148   1.494
 4847WAT  OW   19385   2.208   1.819   2.371
 4847WAT  HW1  19386   2.166   1.741   2.407
 4847WAT  HW2  19387   2.183   1.821   2.279
 4847WAT  MW   19388   2.199   1.809   2.364
 4848WAT  OW   19389   0.911   0.157   2.954
 4848WAT  HW1  19390   0.855   0.133   3.028
 4848WAT  HW2  19391   0.908   0.081   2.896
 4848WAT  MW   19392   0.904   0.144   2.956
 4849WAT  OW   19393   3.004   5.778   0.168
 4849WAT  HW1  19394   3.037   5.727   0.242
 4849WAT  HW2  19395   2.909   5.782   0.182
 4849WAT  MW   19396   2.995   5.772   0.179
 4850WAT  OW   19397   0.809   5.882   4.598
 4850WAT  HW1  19398   0.881   5.933   4.562
 4850WAT  HW2  19399   0.825   5.881   4.693
 4850WAT  MW   19400   0.820   5.888   4.606
 4851WAT  OW   19401   6.348   4.997   5.420
 4851WAT  HW1  19402   6.398   4.943   5.359
 4851WAT  HW2  19403   6.352   5.086   5.384
 4851WAT  MW   19404   6.355   5.002   5.408
 4852WAT  OW   19405   2.549   3.122   5.114
 4852WAT  HW1  19406   2.529   3.097   5.205
 4852WAT  HW2  19407   2.643   3.141   5.115
 4852WAT  MW   19408   2.559   3.121   5.126
 4853WAT  OW   19409   0.757   3.315   4.483
 4853WAT  HW1  19410   0.794   3.329   4.395
 4853WAT  HW2  19411   0.739   3.403   4.515
 4853WAT  MW   19412   0.760   3.329   4.475
 4854WAT  OW   19413   1.682   5.912   6.572
 4854WAT  HW1  19414   1.758   5.863   6.604
 4854WAT  HW2  19415   1.648   5.956   6.650
 4854WAT  MW   19416   1.688   5.911   6.587
 4855WAT  OW   19417   5.908   4.193   2.508
 4855WAT  HW1  19418   5.860   4.174   2.428
 4855WAT  HW2  19419   5.964   4.117   2.521
 4855WAT  MW   19420   5.909   4.181   2.499
 4856WAT  OW   19421   1.363   5.436   4.097
 4856WAT  HW1  19422   1.434   5.430   4.033
 4856WAT  HW2  19423   1.307   5.506   4.064
 4856WAT  MW   19424   1.365   5.445   4.085
 4857WAT  OW   19425   4.491   4.769   6.427
 4857WAT  HW1  19426   4.581   4.796   6.447
 4857WAT  HW2  19427   4.437   4.843   6.456
 4857WAT  MW   19428   4.496   4.783   6.434
 4858WAT  OW   19429   5.127   1.063   3.300
 4858WAT  HW1  19430   5.162   1.070   3.389
 4858WAT  HW2  19431   5.143   0.972   3.275
 4858WAT  MW   19432   5.133   1.052   3.309
 4859WAT  OW   19433   1.999   5.988   4.143
 4859WAT  HW1  19434   1.913   5.947   4.154
 4859WAT  HW2  19435   2.003   6.010   4.050
 4859WAT  MW   19436   1.988   5.986   4.132
 4860WAT  OW   19437   2.641   4.786   6.669
 4860WAT  HW1  19438   2.663   4.693   6.680
 4860WAT  HW2  19439   2.726   4.828   6.654
 4860WAT  MW   19440   2.655   4.779   6.669
 4861WAT  OW   19441   4.969   2.685   4.407
 4861WAT  HW1  19442   5.016   2.705   4.327
 4861WAT  HW2  19443   5.006   2.602   4.437
 4861WAT  MW   19444   4.980   2.676   4.401
 4862WAT  OW   19445   2.658   2.449   2.763
 4862WAT  HW1  19446   2.652   2.529   2.711
 4862WAT  HW2  19447   2.718   2.392   2.714
 4862WAT  MW   19448   2.665   2.452   2.750
 4863WAT  OW   19449   2.865   1.182   5.244
 4863WAT  HW1  19450   2.792   1.128   5.273
 4863WAT  HW2  19451   2.857   1.183   5.148
 4863WAT  MW   19452   2.854   1.175   5.235
 4864WAT  OW   19453   2.845   1.916   0.483
 4864WAT  HW1  19454   2.752   1.896   0.473
 4864WAT  HW2  19455   2.887   1.831   0.498
 4864WAT  MW   19456   2.838   1.903   0.484
 4865WAT  OW   19457   3.704   0.358   3.567
 4865WAT  HW1  19458   3.774   0.354   3.632
 4865WAT  HW2  19459   3.660   0.442   3.582
 4865WAT  MW   19460   3.707   0.369   3.577
 4866WAT  OW   19461   2.205   4.699   1.670
 4866WAT  HW1  19462   2.196   4.784   1.626
 4866WAT  HW2  19463   2.200   4.635   1.599
 4866WAT  MW   19464   2.203   4.702   1.655
 4867WAT  OW   19465   5.447   0.452   1.047
 4867WAT  HW1  19466   5.418   0.510   1.117
 4867WAT  HW2  19467   5.447   0.506   0.968
 4867WAT  MW   19468   5.443   0.466   1.046
 4868WAT  OW   19469   0.133   4.782   3.523
 4868WAT  HW1  19470   0.189   4.860   3.527
 4868WAT  HW2  19471   0.049   4.816   3.492
 4868WAT  MW   19472   0.129   4.797   3.519
 4869WAT  OW   19473   4.801   1.240   0.074
 4869WAT  HW1  19474   4.766   1.249   0.163
 4869WAT  HW2  19475   4.736   1.284   0.019
 4869WAT  MW   19476   4.788   1.247   0.079
 4870WAT  OW   19477   0.925   4.395   4.835
 4870WAT  HW1  19478   0.848   4.406   4.891
 4870WAT  HW2  19479   0.961   4.310   4.859
 4870WAT  MW   19480   0.920   4.385   4.845
 4871WAT  OW   19481   6.634   1.467   0.865
 4871WAT  HW1  19482   6.607   1.416   0.789
 4871WAT  HW2  19483   6.722   1.496   0.844
 4871WAT  MW   19484   6.642   1.464   0.853
 4872WAT  OW   19485   3.847   1.848   0.733
 4872WAT  HW1  19486   3.858   1.886   0.820
 4872WAT  HW2  19487   3.936   1.836   0.700
 4872WAT  MW   19488   3.861   1.851   0.740
 4873WAT  OW   19489   4.313   5.503   1.182
 4873WAT  HW1  19490   4.261   5.499   1.102
 4873WAT  HW2  19491   4.276   5.576   1.231
 4873WAT  MW   19492   4.302   5.512   1.178
 4874WAT  OW   19493   6.302   4.763   4.681
 4874WAT  HW1  19494   6.301   4.790   4.773
 4874WAT  HW2  19495   6.351   4.680   4.680
 4874WAT  MW   19496   6.308   4.755   4.693
 4875WAT  OW   19497   1.244   3.557   2.736
 4875WAT  HW1  19498   1.302   3.633   2.741
 4875WAT  HW2  19499   1.303   3.485   2.712
 4875WAT  MW   19500   1.260   3.558   2.733
 4876WAT  OW   19501   3.325   0.163   5.328
 4876WAT  HW1  19502   3.319   0.076   5.366
 4876WAT  HW2  19503   3.419   0.179   5.319
 4876WAT  MW   19504   3.337   0.154   5.332
 4877WAT  OW   19505   6.360   5.588   3.932
 4877WAT  HW1  19506   6.410   5.569   4.011
 4877WAT  HW2  19507   6.283   5.636   3.962
 4877WAT  MW   19508   6.357   5.592   3.946
 4878WAT  OW   19509   3.475   5.194   0.762
 4878WAT  HW1  19510   3.506   5.104   0.771
 4878WAT  HW2  19511   3.537   5.235   0.702
 4878WAT  MW   19512   3.487   5.187   0.755
 4879WAT  OW   19513   2.266   3.156   6.291
 4879WAT  HW1  19514   2.193   3.098   6.314
 4879WAT  HW2  19515   2.285   3.135   6.199
 4879WAT  MW   19516   2.259   3.145   6.282
 4880WAT  OW   19517   5.961   1.559   3.317
 4880WAT  HW1  19518   5.987   1.497   3.386
 4880WAT  HW2  19519   5.931   1.504   3.245
 4880WAT  MW   19520   5.960   1.544   3.316
 4881WAT  OW   19521   2.082   6.130   2.932
 4881WAT  HW1  19522   2.063   6.189   2.859
 4881WAT  HW2  19523   2.090   6.043   2.892
 4881WAT  MW   19524   2.081   6.126   2.917
 4882WAT  OW   19525   2.735   3.881   3.160
 4882WAT  HW1  19526   2.772   3.966   3.136
 4882WAT  HW2  19527   2.798   3.844   3.222
 4882WAT  MW   19528   2.748   3.887   3.165
 4883WAT  OW   19529   3.858   0.216   5.948
 4883WAT  HW1  19530   3.915   0.237   6.022
 4883WAT  HW2  19531   3.791   0.285   5.950
 4883WAT  MW   19532   3.857   0.228   5.958
 4884WAT  OW   19533   3.500   5.498   1.725
 4884WAT  HW1  19534   3.585   5.522   1.761
 4884WAT  HW2  19535   3.439   5.563   1.762
 4884WAT  MW   19536   3.503   5.510   1.734
 4885WAT  OW   19537   4.594   5.001   4.012
 4885WAT  HW1  19538   4.581   5.091   3.982
 4885WAT  HW2  19539   4.684   4.980   3.986
 4885WAT  MW   19540   4.604   5.010   4.004
 4886WAT  OW   19541   5.187   6.260   1.931
 4886WAT  HW1  19542   5.168   6.267   2.024
 4886WAT  HW2  19543   5.236   6.178   1.922
 4886WAT  MW   19544   5.191   6.250   1.942
 4887WAT  OW   19545   2.756   6.229   4.322
 4887WAT  HW1  19546   2.720   6.205   4.237
 4887WAT  HW2  19547   2.689   6.284   4.362
 4887WAT  MW   19548   2.743   6.233   4.316
 4888WAT  OW   19549   6.566   4.183   3.602
 4888WAT  HW1  19550   6.614   4.266   3.597
 4888WAT  HW2  19551   6.493   4.193   3.541
 4888WAT  MW   19552   6.563   4.195   3.594
 4889WAT  OW   19553   0.435   4.510   5.944
 4889WAT  HW1  19554   0.386   4.520   6.026
 4889WAT  HW2  19555   0.518   4.554   5.959
 4889WAT  MW   19556   0.439   4.517   5.957
 4890WAT  OW   19557   3.669   5.701   2.998
 4890WAT  HW1  19558   3.671   5.686   2.904
 4890WAT  HW2  19559   3.577   5.690   3.022
 4890WAT  MW   19560   3.657   5.698   2.989
 4891WAT  OW   19561   1.931   4.232   2.933
 4891WAT  HW1  19562   1.863   4.299   2.918
 4891WAT  HW2  19563   1.921   4.208   3.024
 4891WAT  MW   19564   1.921   4.238   2.943
 4892WAT  OW   19565   3.741   6.588   3.549
 4892WAT  HW1  19566   3.721   6.532   3.624
 4892WAT  HW2  19567   3.669   6.652   3.547
 4892WAT  MW   19568   3.729   6.589   3.559
 4893WAT  OW   19569   4.252   2.591   6.592
 4893WAT  HW1  19570   4.240   2.535   6.669
 4893WAT  HW2  19571   4.340   2.570   6.560
 4893WAT  MW   19572   4.262   2.581   6.598
 4894WAT  OW   19573   2.716   1.573   2.793
 4894WAT  HW1  19574   2.680   1.592   2.706
 4894WAT  HW2  19575   2.740   1.659   2.827
 4894WAT  MW   19576   2.714   1.587   2.786
 4895WAT  OW   19577   2.522   4.051   3.288
 4895WAT  HW1  19578   2.568   4.130   3.315
 4895WAT  HW2  19579   2.585   4.003   3.234
 4895WAT  MW   19580   2.536   4.055   3.285
 4896WAT  OW   19581   3.524   3.791   3.494
 4896WAT  HW1  19582   3.616   3.768   3.508
 4896WAT  HW2  19583   3.475   3.724   3.542
 4896WAT  MW   19584   3.529   3.779   3.503
 4897WAT  OW   19585   0.172   4.166   1.008
 4897WAT  HW1  19586   0.230   4.228   1.052
 4897WAT  HW2  19587   0.227   4.128   0.939
 4897WAT  MW   19588   0.187   4.169   1.005
 4898WAT  OW   19589   6.352   2.404   5.127
 4898WAT  HW1  19590   6.281   2.400   5.064
 4898WAT  HW2  19591   6.422   2.452   5.083
 4898WAT  MW   19592   6.352   2.409   5.113
 4899WAT  OW   19593   1.328   1.985   2.392
 4899WAT  HW1  19594   1.388   2.059   2.395
 4899WAT  HW2  19595   1.353   1.931   2.467
 4899WAT  MW   19596   1.339   1.988   2.403
 4900WAT  OW   19597   3.180   2.209   4.431
 4900WAT  HW1  19598   3.211   2.160   4.355
 4900WAT  HW2  19599   3.231   2.290   4.430
 4900WAT  MW   19600   3.191   2.213   4.421
 4901WAT  OW   19601   0.427   6.386   3.027
 4901WAT  HW1  19602   0.470   6.327   3.090
 4901WAT  HW2  19603   0.343   6.346   3.010
 4901WAT  MW   19604   0.422   6.373   3.033
 4902WAT  OW   19605   6.559   2.433   3.237
 4902WAT  HW1  19606   6.493   2.366   3.217
 4902WAT  HW2  19607   6.642   2.393   3.211
 4902WAT  MW   19608   6.561   2.419   3.231
 4903WAT  OW   19609   5.723   0.742   1.539
 4903WAT  HW1  19610   5.725   0.744   1.634
 4903WAT  HW2  19611   5.797   0.796   1.512
 4903WAT  MW   19612   5.733   0.749   1.548
 4904WAT  OW   19613   5.408   4.912   6.518
 4904WAT  HW1  19614   5.421   4.947   6.606
 4904WAT  HW2  19615   5.451   4.975   6.461
 4904WAT  MW   19616   5.415   4.925   6.522
 4905WAT  OW   19617   0.787   3.698   1.830
 4905WAT  HW1  19618   0.749   3.782   1.802
 4905WAT  HW2  19619   0.739   3.677   1.911
 4905WAT  MW   19620   0.775   3.707   1.837
 4906WAT  OW   19621   6.479   5.407   0.218
 4906WAT  HW1  19622   6.413   5.476   0.208
 4906WAT  HW2  19623   6.446   5.334   0.168
 4906WAT  MW   19624   6.466   5.407   0.210
 4907WAT  OW   19625   1.250   5.466   1.861
 4907WAT  HW1  19626   1.293   5.544   1.895
 4907WAT  HW2  19627   1.318   5.399   1.859
 4907WAT  MW   19628   1.264   5.468   1.865
 4908WAT  OW   19629   2.076   3.148   5.324
 4908WAT  HW1  19630   2.033   3.097   5.256
 4908WAT  HW2  19631   2.016   3.221   5.340
 4908WAT  MW   19632   2.062   3.151   5.317
 4909WAT  OW   19633   6.647   5.562   2.342
 4909WAT  HW1  19634   6.599   5.612   2.408
 4909WAT  HW2  19635   6.588   5.558   2.267
 4909WAT  MW   19636   6.633   5.568   2.341
 4910WAT  OW   19637   6.298   5.264   4.661
 4910WAT  HW1  19638   6.279   5.268   4.755
 4910WAT  HW2  19639   6.301   5.171   4.641
 4910WAT  MW   19640   6.296   5.252   4.671
 4911WAT  OW   19641   3.457   0.709   5.713
 4911WAT  HW1  19642   3.547   0.725   5.687
 4911WAT  HW2  19643   3.441   0.617   5.691
 4911WAT  MW   19644   3.467   0.699   5.707
 4912WAT  OW   19645   3.491   2.598   5.421
 4912WAT  HW1  19646   3.529   2.662   5.361
 4912WAT  HW2  19647   3.562   2.539   5.442
 4912WAT  MW   19648   3.505   2.599   5.416
 4913WAT  OW   19649   5.776   6.562   0.647
 4913WAT  HW1  19650   5.780   6.635   0.709
 4913WAT  HW2  19651   5.694   6.517   0.668
 4913WAT  MW   19652   5.766   6.566   0.658
 4914WAT  OW   19653   1.986   6.399   0.248
 4914WAT  HW1  19654   1.924   6.413   0.320
 4914WAT  HW2  19655   1.936   6.347   0.184
 4914WAT  MW   19656   1.971   6.394   0.249
 4915WAT  OW   19657   6.367   5.754   6.593
 4915WAT  HW1  19658   6.310   5.694   6.641
 4915WAT  HW2  19659   6.411   5.805   6.661
 4915WAT  MW   19660   6.365   5.753   6.608
 4916WAT  OW   19661   1.441   6.342   0.654
 4916WAT  HW1  19662   1.413   6.254   0.627
 4916WAT  HW2  19663   1.385   6.363   0.728
 4916WAT  MW   19664   1.430   6.333   0.660
 4917WAT  OW   19665   3.840   6.052   3.315
 4917WAT  HW1  19666   3.787   6.006   3.250
 4917WAT  HW2  19667   3.866   5.984   3.377
 4917WAT  MW   19668   3.837   6.037   3.315
 4918WAT  OW   19669   3.555   4.847   4.103
 4918WAT  HW1  19670   3.493   4.905   4.059
 4918WAT  HW2  19671   3.534   4.856   4.196
 4918WAT  MW   19672   3.544   4.856   4.109
 4919WAT  OW   19673   6.303   2.759   6.384
 4919WAT  HW1  19674   6.323   2.842   6.426
 4919WAT  HW2  19675   6.213   2.740   6.410
 4919WAT  MW   19676   6.294   2.767   6.393
 4920WAT  OW   19677   5.129   4.604   5.655
 4920WAT  HW1  19678   5.102   4.551   5.580
 4920WAT  HW2  19679   5.224   4.591   5.661
 4920WAT  MW   19680   5.138   4.595   5.646
 4921WAT  OW   19681   0.855   1.313   6.649
 4921WAT  HW1  19682   0.920   1.276   6.708
 4921WAT  HW2  19683   0.772   1.275   6.678
 4921WAT  MW   19684   0.853   1.303   6.660
 4922WAT  OW   19685   1.502   5.756   0.145
 4922WAT  HW1  19686   1.414   5.750   0.107
 4922WAT  HW2  19687   1.560   5.731   0.072
 4922WAT  MW   19688   1.498   5.752   0.130
 4923WAT  OW   19689   6.248   5.583   2.601
 4923WAT  HW1  19690   6.312   5.552   2.665
 4923WAT  HW2  19691   6.212   5.663   2.639
 4923WAT  MW   19692   6.252   5.589   2.614
 4924WAT  OW   19693   4.552   5.787   3.021
 4924WAT  HW1  19694   4.471   5.777   3.071
 4924WAT  HW2  19695   4.616   5.733   3.068
 4924WAT  MW   19696   4.550   5.779   3.034
 4925WAT  OW   19697   4.291   0.698   5.584
 4925WAT  HW1  19698   4.255   0.771   5.533
 4925WAT  HW2  19699   4.214   0.650   5.614
 4925WAT  MW   19700   4.276   0.702   5.581
 4926WAT  OW   19701   0.482   3.124   5.929
 4926WAT  HW1  19702   0.455   3.032   5.921
 4926WAT  HW2  19703   0.494   3.137   6.023
 4926WAT  MW   19704   0.480   3.113   5.941
 4927WAT  OW   19705   6.505   1.718   4.221
 4927WAT  HW1  19706   6.567   1.771   4.270
 4927WAT  HW2  19707   6.425   1.719   4.274
 4927WAT  MW   19708   6.503   1.725   4.234
 4928WAT  OW   19709   2.404   0.042   3.719
 4928WAT  HW1  19710   2.423  -0.045   3.752
 4928WAT  HW2  19711   2.308   0.046   3.713
 4928WAT  MW   19712   2.394   0.031   3.722
 4929WAT  OW   19713   0.071   0.557   1.601
 4929WAT  HW1  19714   0.082   0.652   1.593
 4929WAT  HW2  19715   0.089   0.539   1.694
 4929WAT  MW   19716   0.075   0.568   1.612
 4930WAT  OW   19717   4.236   1.338   5.855
 4930WAT  HW1  19718   4.255   1.357   5.763
 4930WAT  HW2  19719   4.232   1.424   5.896
 4930WAT  MW   19720   4.238   1.352   5.848
 4931WAT  OW   19721   3.366   6.668   3.076
 4931WAT  HW1  19722   3.412   6.593   3.039
 4931WAT  HW2  19723   3.396   6.673   3.167
 4931WAT  MW   19724   3.376   6.659   3.083
 4932WAT  OW   19725   3.029   3.920   2.774
 4932WAT  HW1  19726   3.068   4.005   2.750
 4932WAT  HW2  19727   3.058   3.906   2.865
 4932WAT  MW   19728   3.038   3.930   2.783
 4933WAT  OW   19729   3.394   5.643   0.220
 4933WAT  HW1  19730   3.487   5.642   0.198
 4933WAT  HW2  19731   3.388   5.594   0.302
 4933WAT  MW   19732   3.405   5.636   0.228
 4934WAT  OW   19733   4.175   2.204   0.836
 4934WAT  HW1  19734   4.206   2.141   0.770
 4934WAT  HW2  19735   4.162   2.152   0.915
 4934WAT  MW   19736   4.177   2.189   0.837
 4935WAT  OW   19737   1.535   0.118   4.493
 4935WAT  HW1  19738   1.474   0.135   4.565
 4935WAT  HW2  19739   1.588   0.045   4.524
 4935WAT  MW   19740   1.534   0.111   4.507
 4936WAT  OW   19741   3.587   5.857   3.795
 4936WAT  HW1  19742   3.653   5.799   3.833
 4936WAT  HW2  19743   3.533   5.884   3.869
 4936WAT  MW   19744   3.588   5.853   3.810
 4937WAT  OW   19745   2.431   2.874   2.112
 4937WAT  HW1  19746   2.501   2.902   2.053
 4937WAT  HW2  19747   2.360   2.936   2.095
 4937WAT  MW   19748   2.431   2.886   2.102
 4938WAT  OW   19749   2.980   3.829   1.848
 4938WAT  HW1  19750   2.894   3.817   1.889
 4938WAT  HW2  19751   2.960   3.869   1.763
 4938WAT  MW   19752   2.966   3.833   1.843
 4939WAT  OW   19753   1.339   6.296   2.181
 4939WAT  HW1  19754   1.357   6.300   2.275
 4939WAT  HW2  19755   1.254   6.338   2.171
 4939WAT  MW   19756   1.330   6.302   2.192
 4940WAT  OW   19757   2.712   3.267   6.398
 4940WAT  HW1  19758   2.617   3.276   6.409
 4940WAT  HW2  19759   2.746   3.257   6.487
 4940WAT  MW   19760   2.704   3.267   6.411
 4941WAT  OW   19761   5.830   5.977   1.235
 4941WAT  HW1  19762   5.813   5.928   1.315
 4941WAT  HW2  19763   5.744   5.993   1.197
 4941WAT  MW   19764   5.817   5.972   1.240
 4942WAT  OW   19765   6.237   6.177   4.922
 4942WAT  HW1  19766   6.220   6.170   5.016
 4942WAT  HW2  19767   6.330   6.200   4.917
 4942WAT  MW   19768   6.247   6.179   4.934
 4943WAT  OW   19769   0.508   0.342   2.371
 4943WAT  HW1  19770   0.481   0.352   2.279
 4943WAT  HW2  19771   0.545   0.254   2.376
 4943WAT  MW   19772   0.509   0.332   2.359
 4944WAT  OW   19773   2.806   1.786   1.660
 4944WAT  HW1  19774   2.892   1.827   1.657
 4944WAT  HW2  19775   2.745   1.860   1.657
 4944WAT  MW   19776   2.809   1.801   1.659
 4945WAT  OW   19777   0.464   0.557   1.001
 4945WAT  HW1  19778   0.549   0.593   0.974
 4945WAT  HW2  19779   0.473   0.463   0.986
 4945WAT  MW   19780   0.477   0.550   0.995
 4946WAT  OW   19781   2.518   6.475   2.929
 4946WAT  HW1  19782   2.522   6.539   3.000
 4946WAT  HW2  19783   2.467   6.518   2.861
 4946WAT  MW   19784   2.512   6.489   2.929
 4947WAT  OW   19785   1.632   0.746   3.746
 4947WAT  HW1  19786   1.682   0.782   3.673
 4947WAT  HW2  19787   1.663   0.794   3.822
 4947WAT  MW   19788   1.643   0.757   3.746
 4948WAT  OW   19789   4.808   4.267   5.113
 4948WAT  HW1  19790   4.902   4.245   5.119
 4948WAT  HW2  19791   4.775   4.256   5.202
 4948WAT  MW   19792   4.816   4.262   5.125
 4949WAT  OW   19793   1.888   3.455   2.998
 4949WAT  HW1  19794   1.837   3.419   3.072
 4949WAT  HW2  19795   1.978   3.427   3.016
 4949WAT  MW   19796   1.893   3.446   3.010
 4950WAT  OW   19797   4.903   0.589   3.860
 4950WAT  HW1  19798   4.876   0.667   3.812
 4950WAT  HW2  19799   4.859   0.595   3.945
 4950WAT  MW   19800   4.894   0.600   3.865
 4951WAT  OW   19801   0.581   1.291   4.013
 4951WAT  HW1  19802   0.658   1.330   3.972
 4951WAT  HW2  19803   0.515   1.360   4.010
 4951WAT  MW   19804   0.583   1.305   4.007
 4952WAT  OW   19805   3.549   5.692   4.142
 4952WAT  HW1  19806   3.576   5.743   4.218
 4952WAT  HW2  19807   3.471   5.736   4.109
 4952WAT  MW   19808   3.543   5.704   4.147
 4953WAT  OW   19809   2.102   5.933   1.629
 4953WAT  HW1  19810   2.161   5.983   1.573
 4953WAT  HW2  19811   2.060   5.871   1.570
 4953WAT  MW   19812   2.104   5.931   1.614
 4954WAT  OW   19813   2.264   4.747   2.002
 4954WAT  HW1  19814   2.252   4.664   1.956
 4954WAT  HW2  19815   2.359   4.761   2.002
 4954WAT  MW   19816   2.275   4.738   1.996
 4955WAT  OW   19817   4.308   6.665   2.073
 4955WAT  HW1  19818   4.363   6.596   2.037
 4955WAT  HW2  19819   4.364   6.742   2.076
 4955WAT  MW   19820   4.323   6.666   2.069
 4956WAT  OW   19821   6.496   3.546   5.294
 4956WAT  HW1  19822   6.443   3.504   5.363
 4956WAT  HW2  19823   6.453   3.521   5.212
 4956WAT  MW   19824   6.483   3.537   5.293
 4957WAT  OW   19825   4.707   3.486   5.003
 4957WAT  HW1  19826   4.733   3.471   4.912
 4957WAT  HW2  19827   4.790   3.498   5.050
 4957WAT  MW   19828   4.722   3.486   4.997
 4958WAT  OW   19829   1.680   4.850   1.259
 4958WAT  HW1  19830   1.615   4.818   1.196
 4958WAT  HW2  19831   1.741   4.902   1.206
 4958WAT  MW   19832   1.680   4.853   1.243
 4959WAT  OW   19833   5.934   3.907   5.997
 4959WAT  HW1  19834   6.022   3.931   6.026
 4959WAT  HW2  19835   5.904   3.983   5.947
 4959WAT  MW   19836   5.942   3.921   5.994
 4960WAT  OW   19837   2.369   3.137   5.953
 4960WAT  HW1  19838   2.365   3.076   5.880
 4960WAT  HW2  19839   2.333   3.219   5.919
 4960WAT  MW   19840   2.364   3.140   5.939
 4961WAT  OW   19841   4.873   3.974   5.714
 4961WAT  HW1  19842   4.911   3.887   5.711
 4961WAT  HW2  19843   4.899   4.008   5.800
 4961WAT  MW   19844   4.881   3.967   5.725
 4962WAT  OW   19845   1.163   0.858   4.747
 4962WAT  HW1  19846   1.246   0.906   4.739
 4962WAT  HW2  19847   1.103   0.903   4.688
 4962WAT  MW   19848   1.166   0.870   4.738
 4963WAT  OW   19849   6.437   3.005   3.098
 4963WAT  HW1  19850   6.352   2.961   3.097
 4963WAT  HW2  19851   6.492   2.952   3.040
 4963WAT  MW   19852   6.433   2.992   3.090
 4964WAT  OW   19853   1.853   5.750   3.817
 4964WAT  HW1  19854   1.897   5.810   3.756
 4964WAT  HW2  19855   1.917   5.736   3.887
 4964WAT  MW   19856   1.867   5.756   3.819
 4965WAT  OW   19857   6.676   3.470   5.757
 4965WAT  HW1  19858   6.726   3.536   5.709
 4965WAT  HW2  19859   6.717   3.468   5.844
 4965WAT  MW   19860   6.688   3.478   5.762
 4966WAT  OW   19861   0.901   3.544   4.342
 4966WAT  HW1  19862   0.854   3.597   4.278
 4966WAT  HW2  19863   0.959   3.607   4.386
 4966WAT  MW   19864   0.902   3.559   4.339
 4967WAT  OW   19865   3.647   4.007   6.569
 4967WAT  HW1  19866   3.680   4.014   6.659
 4967WAT  HW2  19867   3.639   3.913   6.553
 4967WAT  MW   19868   3.650   3.996   6.579
 4968WAT  OW   19869   3.762   6.228   1.522
 4968WAT  HW1  19870   3.822   6.184   1.582
 4968WAT  HW2  19871   3.705   6.280   1.578
 4968WAT  MW   19872   3.762   6.229   1.537
 4969WAT  OW   19873   4.128   1.744   2.390
 4969WAT  HW1  19874   4.138   1.687   2.315
 4969WAT  HW2  19875   4.133   1.833   2.354
 4969WAT  MW   19876   4.130   1.749   2.376
 4970WAT  OW   19877   2.671   0.168   6.092
 4970WAT  HW1  19878   2.625   0.161   6.175
 4970WAT  HW2  19879   2.724   0.247   6.099
 4970WAT  MW   19880   2.672   0.177   6.104
 4971WAT  OW   19881   5.262   2.788   3.699
 4971WAT  HW1  19882   5.272   2.694   3.712
 4971WAT  HW2  19883   5.348   2.825   3.720
 4971WAT  MW   19884   5.275   2.781   3.703
 4972WAT  OW   19885   4.721   2.200   3.715
 4972WAT  HW1  19886   4.671   2.272   3.678
 4972WAT  HW2  19887   4.810   2.214   3.683
 4972WAT  MW   19888   4.727   2.211   3.706
 4973WAT  OW   19889   5.601   1.116   2.088
 4973WAT  HW1  19890   5.599   1.035   2.140
 4973WAT  HW2  19891   5.548   1.178   2.137
 4973WAT  MW   19892   5.594   1.113   2.101
 4974WAT  OW   19893   1.474   6.688   5.066
 4974WAT  HW1  19894   1.473   6.629   5.141
 4974WAT  HW2  19895   1.545   6.749   5.084
 4974WAT  MW   19896   1.483   6.689   5.078
 4975WAT  OW   19897   1.651   2.057   1.259
 4975WAT  HW1  19898   1.674   2.035   1.168
 4975WAT  HW2  19899   1.566   2.015   1.273
 4975WAT  MW   19900   1.643   2.049   1.249
 4976WAT  OW   19901   5.287   0.244   2.953
 4976WAT  HW1  19902   5.274   0.273   3.043
 4976WAT  HW2  19903   5.340   0.312   2.912
 4976WAT  MW   19904   5.292   0.256   2.959
 4977WAT  OW   19905   2.095   2.768   4.558
 4977WAT  HW1  19906   2.044   2.843   4.587
 4977WAT  HW2  19907   2.113   2.785   4.466
 4977WAT  MW   19908   2.091   2.780   4.550
 4978WAT  OW   19909   0.876   2.422   1.443
 4978WAT  HW1  19910   0.868   2.496   1.382
 4978WAT  HW2  19911   0.886   2.345   1.386
 4978WAT  MW   19912   0.876   2.421   1.427
 4979WAT  OW   19913   5.625   0.177   1.953
 4979WAT  HW1  19914   5.663   0.093   1.927
 4979WAT  HW2  19915   5.610   0.223   1.870
 4979WAT  MW   19916   5.628   0.172   1.939
 4980WAT  OW   19917   3.429   3.813   0.736
 4980WAT  HW1  19918   3.341   3.777   0.749
 4980WAT  HW2  19919   3.442   3.872   0.810
 4980WAT  MW   19920   3.419   3.816   0.748
 4981WAT  OW   19921   2.368   6.183   0.138
 4981WAT  HW1  19922   2.430   6.256   0.139
 4981WAT  HW2  19923   2.350   6.165   0.231
 4981WAT  MW   19924   2.374   6.190   0.151
 4982WAT  OW   19925   3.118   3.543   2.474
 4982WAT  HW1  19926   3.131   3.561   2.381
 4982WAT  HW2  19927   3.063   3.464   2.476
 4982WAT  MW   19928   3.113   3.535   2.462
 4983WAT  OW   19929   5.137   4.411   1.784
 4983WAT  HW1  19930   5.118   4.340   1.723
 4983WAT  HW2  19931   5.106   4.490   1.739
 4983WAT  MW   19932   5.131   4.412   1.770
 4984WAT  OW   19933   4.105   6.361   2.929
 4984WAT  HW1  19934   4.139   6.417   2.999
 4984WAT  HW2  19935   4.111   6.415   2.850
 4984WAT  MW   19936   4.110   6.376   2.928
 4985WAT  OW   19937   4.887   0.057   3.040
 4985WAT  HW1  19938   4.866  -0.028   3.077
 4985WAT  HW2  19939   4.809   0.110   3.056
 4985WAT  MW   19940   4.874   0.053   3.047
 4986WAT  OW   19941   1.908   3.910   4.818
 4986WAT  HW1  19942   1.970   3.981   4.805
 4986WAT  HW2  19943   1.832   3.934   4.765
 4986WAT  MW   19944   1.906   3.922   4.810
 4987WAT  OW   19945   6.238   0.175   0.087
 4987WAT  HW1  19946   6.243   0.264   0.121
 4987WAT  HW2  19947   6.274   0.182  -0.002
 4987WAT  MW   19948   6.244   0.188   0.079
 4988WAT  OW   19949   5.309   6.031   1.175
 4988WAT  HW1  19950   5.275   5.947   1.207
 4988WAT  HW2  19951   5.356   6.067   1.251
 4988WAT  MW   19952   5.311   6.025   1.189
 4989WAT  OW   19953   1.787   3.091   3.111
 4989WAT  HW1  19954   1.783   3.172   3.163
 4989WAT  HW2  19955   1.866   3.047   3.141
 4989WAT  MW   19956   1.797   3.096   3.122
 4990WAT  OW   19957   1.215   5.284   6.135
 4990WAT  HW1  19958   1.309   5.278   6.114
 4990WAT  HW2  19959   1.171   5.268   6.052
 4990WAT  MW   19960   1.222   5.281   6.121
 4991WAT  OW   19961   2.074   4.780   2.446
 4991WAT  HW1  19962   2.049   4.789   2.354
 4991WAT  HW2  19963   2.003   4.730   2.486
 4991WAT  MW   19964   2.061   4.775   2.440
 4992WAT  OW   19965   6.261   2.707   3.184
 4992WAT  HW1  19966   6.224   2.738   3.101
 4992WAT  HW2  19967   6.235   2.615   3.189
 4992WAT  MW   19968   6.253   2.699   3.174
 4993WAT  OW   19969   6.430   4.528   6.452
 4993WAT  HW1  19970   6.443   4.615   6.491
 4993WAT  HW2  19971   6.501   4.519   6.389
 4993WAT  MW   19972   6.441   4.539   6.449
 4994WAT  OW   19973   6.672   0.138   6.535
 4994WAT  HW1  19974   6.710   0.224   6.518
 4994WAT  HW2  19975   6.590   0.138   6.486
 4994WAT  MW   19976   6.666   0.149   6.526
 4995WAT  OW   19977   5.199   6.388   3.612
 4995WAT  HW1  19978   5.236   6.365   3.697
 4995WAT  HW2  19979   5.143   6.463   3.630
 4995WAT  MW   19980   5.196   6.395   3.626
 4996WAT  OW   19981   0.589   5.457   4.902
 4996WAT  HW1  19982   0.552   5.410   4.827
 4996WAT  HW2  19983   0.649   5.394   4.943
 4996WAT  MW   19984   0.592   5.443   4.898
 4997WAT  OW   19985   5.838   0.731   3.937
 4997WAT  HW1  19986   5.905   0.671   3.904
 4997WAT  HW2  19987   5.755   0.686   3.921
 4997WAT  MW   19988   5.836   0.717   3.931
 4998WAT  OW   19989   6.286   1.793   4.372
 4998WAT  HW1  19990   6.232   1.724   4.333
 4998WAT  HW2  19991   6.324   1.753   4.450
 4998WAT  MW   19992   6.283   1.779   4.377
 4999WAT  OW   19993   0.442   1.774   3.260
 4999WAT  HW1  19994   0.374   1.771   3.192
 4999WAT  HW2  19995   0.522   1.752   3.213
 4999WAT  MW   19996   0.443   1.771   3.245
 5000WAT  OW   19997   5.382   2.397   2.893
 5000WAT  HW1  19998   5.447   2.416   2.826
 5000WAT  HW2  19999   5.299   2.389   2.846
 5000WAT  MW   20000   5.380   2.398   2.878
 5001WAT  OW   20001   4.472   4.063   6.528
 5001WAT  HW1  20002   4.380   4.061   6.552
 5001WAT  HW2  20003   4.494   4.156   6.522
 5001WAT  MW   20004   4.463   4.075   6.530
 5002WAT  OW   20005   4.858   5.043   3.894
 5002WAT  HW1  20006   4.936   5.004   3.933
 5002WAT  HW2  20007   4.848   5.128   3.938
 5002WAT  MW   20008   4.867   5.049   3.905
 5003WAT  OW   20009   1.925   5.231   2.949
 5003WAT  HW1  20010   1.879   5.307   2.913
 5003WAT  HW2  20011   1.999   5.219   2.889
 5003WAT  MW   20012   1.929   5.240   2.936
 5004WAT  OW   20013   5.109   1.536   1.922
 5004WAT  HW1  20014   5.122   1.595   1.996
 5004WAT  HW2  20015   5.055   1.465   1.957
 5004WAT  MW   20016   5.103   1.535   1.937
 5005WAT  OW   20017   0.425   4.604   0.729
 5005WAT  HW1  20018   0.510   4.601   0.772
 5005WAT  HW2  20019   0.361   4.599   0.800
 5005WAT  MW   20020   0.428   4.603   0.744
 5006WAT  OW   20021   6.245   0.549   4.884
 5006WAT  HW1  20022   6.173   0.610   4.872
 5006WAT  HW2  20023   6.206   0.463   4.871
 5006WAT  MW   20024   6.231   0.546   4.881
 5007WAT  OW   20025   4.249   0.222   3.909
 5007WAT  HW1  20026   4.320   0.185   3.856
 5007WAT  HW2  20027   4.210   0.289   3.852
 5007WAT  MW   20028   4.253   0.226   3.894
 5008WAT  OW   20029   5.896   2.972   3.946
 5008WAT  HW1  20030   5.890   3.060   3.909
 5008WAT  HW2  20031   5.840   2.919   3.889
 5008WAT  MW   20032   5.888   2.976   3.933
 5009WAT  OW   20033   1.382   5.687   2.338
 5009WAT  HW1  20034   1.357   5.686   2.245
 5009WAT  HW2  20035   1.404   5.778   2.357
 5009WAT  MW   20036   1.382   5.699   2.328
 5010WAT  OW   20037   6.224   1.305   5.405
 5010WAT  HW1  20038   6.306   1.263   5.381
 5010WAT  HW2  20039   6.223   1.386   5.355
 5010WAT  MW   20040   6.234   1.310   5.395
 5011WAT  OW   20041   5.980   4.735   4.879
 5011WAT  HW1  20042   6.038   4.690   4.940
 5011WAT  HW2  20043   6.023   4.820   4.864
 5011WAT  MW   20044   5.994   4.741   4.885
 5012WAT  OW   20045   0.056   4.204   3.973
 5012WAT  HW1  20046   0.091   4.235   4.057
 5012WAT  HW2  20047  -0.001   4.132   3.996
 5012WAT  MW   20048   0.053   4.199   3.987
 5013WAT  OW   20049   4.205   3.815   5.074
 5013WAT  HW1  20050   4.127   3.765   5.048
 5013WAT  HW2  20051   4.170   3.890   5.123
 5013WAT  MW   20052   4.190   3.819   5.077
 5014WAT  OW   20053   4.802   4.782   0.389
 5014WAT  HW1  20054   4.764   4.757   0.473
 5014WAT  HW2  20055   4.851   4.704   0.361
 5014WAT  MW   20056   4.803   4.768   0.397
 5015WAT  OW   20057   3.535   2.758   4.550
 5015WAT  HW1  20058   3.576   2.818   4.613
 5015WAT  HW2  20059   3.608   2.724   4.499
 5015WAT  MW   20060   3.550   2.761   4.552
 5016WAT  OW   20061   0.410   1.006   4.236
 5016WAT  HW1  20062   0.444   0.924   4.269
 5016WAT  HW2  20063   0.419   0.999   4.140
 5016WAT  MW   20064   0.415   0.995   4.227
 5017WAT  OW   20065   1.610   1.064   2.311
 5017WAT  HW1  20066   1.550   1.032   2.378
 5017WAT  HW2  20067   1.561   1.055   2.229
 5017WAT  MW   20068   1.595   1.059   2.309
 5018WAT  OW   20069   4.027   0.466   5.269
 5018WAT  HW1  20070   4.001   0.518   5.193
 5018WAT  HW2  20071   3.986   0.511   5.343
 5018WAT  MW   20072   4.018   0.479   5.269
 5019WAT  OW   20073   2.088   1.316   1.798
 5019WAT  HW1  20074   2.072   1.391   1.855
 5019WAT  HW2  20075   2.137   1.254   1.852
 5019WAT  MW   20076   2.093   1.317   1.812
 5020WAT  OW   20077   6.102   0.276   4.859
 5020WAT  HW1  20078   6.139   0.190   4.880
 5020WAT  HW2  20079   6.114   0.284   4.764
 5020WAT  MW   20080   6.108   0.266   4.849
 5021WAT  OW   20081   1.800   2.358   2.423
 5021WAT  HW1  20082   1.774   2.266   2.413
 5021WAT  HW2  20083   1.846   2.360   2.507
 5021WAT  MW   20084   1.803   2.346   2.433
 5022WAT  OW   20085   5.976   0.050   0.097
 5022WAT  HW1  20086   5.941   0.089   0.177
 5022WAT  HW2  20087   6.065   0.085   0.090
 5022WAT  MW   20088   5.983   0.060   0.106
 5023WAT  OW   20089   4.814   5.441   0.355
 5023WAT  HW1  20090   4.749   5.372   0.343
 5023WAT  HW2  20091   4.837   5.468   0.266
 5023WAT  MW   20092   4.809   5.435   0.342
 5024WAT  OW   20093   1.445   4.586   3.754
 5024WAT  HW1  20094   1.500   4.619   3.825
 5024WAT  HW2  20095   1.495   4.604   3.675
 5024WAT  MW   20096   1.459   4.593   3.753
 5025WAT  OW   20097   3.244   6.005   4.218
 5025WAT  HW1  20098   3.159   5.965   4.202
 5025WAT  HW2  20099   3.240   6.036   4.309
 5025WAT  MW   20100   3.232   6.004   4.228
 5026WAT  OW   20101   5.765   1.169   0.315
 5026WAT  HW1  20102   5.859   1.165   0.332
 5026WAT  HW2  20103   5.739   1.078   0.301
 5026WAT  MW   20104   5.774   1.157   0.315
 5027WAT  OW   20105   5.671   5.768   4.962
 5027WAT  HW1  20106   5.604   5.784   4.894
 5027WAT  HW2  20107   5.629   5.797   5.043
 5027WAT  MW   20108   5.656   5.774   4.964
 5028WAT  OW   20109   2.325   4.676   2.821
 5028WAT  HW1  20110   2.371   4.639   2.896
 5028WAT  HW2  20111   2.386   4.741   2.785
 5028WAT  MW   20112   2.339   4.679   2.826
 5029WAT  OW   20113   5.607   0.153   2.890
 5029WAT  HW1  20114   5.654   0.093   2.832
 5029WAT  HW2  20115   5.515   0.144   2.864
 5029WAT  MW   20116   5.601   0.143   2.879
 5030WAT  OW   20117   2.551   3.807   2.578
 5030WAT  HW1  20118   2.466   3.765   2.584
 5030WAT  HW2  20119   2.560   3.855   2.661
 5030WAT  MW   20120   2.541   3.808   2.590
 5031WAT  OW   20121   5.685   2.290   4.500
 5031WAT  HW1  20122   5.599   2.248   4.507
 5031WAT  HW2  20123   5.689   2.350   4.575
 5031WAT  MW   20124   5.674   2.292   4.511
 5032WAT  OW   20125   0.664   2.524   2.821
 5032WAT  HW1  20126   0.729   2.454   2.831
 5032WAT  HW2  20127   0.609   2.517   2.899
 5032WAT  MW   20128   0.665   2.514   2.832
 5033WAT  OW   20129   4.398   1.030   3.920
 5033WAT  HW1  20130   4.465   0.986   3.867
 5033WAT  HW2  20131   4.372   0.964   3.985
 5033WAT  MW   20132   4.404   1.016   3.922
 5034WAT  OW   20133   4.967   1.298   3.234
 5034WAT  HW1  20134   4.898   1.324   3.172
 5034WAT  HW2  20135   4.942   1.211   3.262
 5034WAT  MW   20136   4.954   1.290   3.229
 5035WAT  OW   20137   5.471   3.960   6.007
 5035WAT  HW1  20138   5.492   4.037   6.060
 5035WAT  HW2  20139   5.524   3.971   5.928
 5035WAT  MW   20140   5.481   3.972   6.003
 5036WAT  OW   20141   6.401   2.218   2.709
 5036WAT  HW1  20142   6.404   2.211   2.804
 5036WAT  HW2  20143   6.333   2.283   2.692
 5036WAT  MW   20144   6.392   2.226   2.719
 5037WAT  OW   20145   3.649   4.712   3.767
 5037WAT  HW1  20146   3.661   4.629   3.722
 5037WAT  HW2  20147   3.704   4.774   3.719
 5037WAT  MW   20148   3.658   4.709   3.755
 5038WAT  OW   20149   2.808   4.855   4.624
 5038WAT  HW1  20150   2.716   4.856   4.598
 5038WAT  HW2  20151   2.806   4.833   4.718
 5038WAT  MW   20152   2.796   4.853   4.633
 5039WAT  OW   20153   3.715   5.943   3.093
 5039WAT  HW1  20154   3.716   5.849   3.075
 5039WAT  HW2  20155   3.773   5.980   3.026
 5039WAT  MW   20156   3.723   5.936   3.082
 5040WAT  OW   20157   0.148   5.485   0.696
 5040WAT  HW1  20158   0.084   5.527   0.639
 5040WAT  HW2  20159   0.170   5.551   0.761
 5040WAT  MW   20160   0.142   5.499   0.697
 5041WAT  OW   20161   4.004   3.618   1.501
 5041WAT  HW1  20162   3.934   3.570   1.458
 5041WAT  HW2  20163   4.077   3.617   1.438
 5041WAT  MW   20164   4.005   3.612   1.487
 5042WAT  OW   20165   4.690   6.419   6.064
 5042WAT  HW1  20166   4.603   6.406   6.026
 5042WAT  HW2  20167   4.689   6.368   6.145
 5042WAT  MW   20168   4.678   6.411   6.069
 5043WAT  OW   20169   3.350   5.754   3.417
 5043WAT  HW1  20170   3.403   5.674   3.412
 5043WAT  HW2  20171   3.260   5.723   3.419
 5043WAT  MW   20172   3.345   5.739   3.416
 5044WAT  OW   20173   4.012   2.808   0.184
 5044WAT  HW1  20174   3.973   2.893   0.169
 5044WAT  HW2  20175   4.102   2.817   0.153
 5044WAT  MW   20176   4.019   2.820   0.178
 5045WAT  OW   20177   6.660   2.453   1.329
 5045WAT  HW1  20178   6.615   2.405   1.260
 5045WAT  HW2  20179   6.706   2.386   1.379
 5045WAT  MW   20180   6.660   2.438   1.327
 5046WAT  OW   20181   6.179   2.809   4.795
 5046WAT  HW1  20182   6.269   2.776   4.795
 5046WAT  HW2  20183   6.188   2.904   4.799
 5046WAT  MW   20184   6.192   2.817   4.795
 5047WAT  OW   20185   1.486   5.329   2.183
 5047WAT  HW1  20186   1.393   5.351   2.189
 5047WAT  HW2  20187   1.528   5.390   2.244
 5047WAT  MW   20188   1.479   5.340   2.192
 5048WAT  OW   20189   5.387   2.704   2.276
 5048WAT  HW1  20190   5.353   2.614   2.272
 5048WAT  HW2  20191   5.435   2.708   2.358
 5048WAT  MW   20192   5.389   2.693   2.286
 5049WAT  OW   20193   2.028   1.817   5.842
 5049WAT  HW1  20194   1.997   1.755   5.908
 5049WAT  HW2  20195   2.109   1.853   5.879
 5049WAT  MW   20196   2.034   1.814   5.856
 5050WAT  OW   20197   2.123   1.682   0.526
 5050WAT  HW1  20198   2.208   1.643   0.547
 5050WAT  HW2  20199   2.060   1.610   0.539
 5050WAT  MW   20200   2.126   1.667   0.530
 5051WAT  OW   20201   2.132   5.627   0.524
 5051WAT  HW1  20202   2.155   5.618   0.616
 5051WAT  HW2  20203   2.064   5.562   0.509
 5051WAT  MW   20204   2.126   5.617   0.534
 5052WAT  OW   20205   1.613   3.409   0.112
 5052WAT  HW1  20206   1.533   3.430   0.160
 5052WAT  HW2  20207   1.583   3.362   0.035
 5052WAT  MW   20208   1.599   3.406   0.108
 5053WAT  OW   20209   5.724   0.728   1.034
 5053WAT  HW1  20210   5.635   0.758   1.017
 5053WAT  HW2  20211   5.717   0.680   1.117
 5053WAT  MW   20212   5.712   0.726   1.043
 5054WAT  OW   20213   3.000   1.303   1.973
 5054WAT  HW1  20214   3.079   1.282   2.023
 5054WAT  HW2  20215   3.032   1.326   1.886
 5054WAT  MW   20216   3.015   1.303   1.968
 5055WAT  OW   20217   3.948   3.262   0.524
 5055WAT  HW1  20218   3.933   3.341   0.576
 5055WAT  HW2  20219   3.870   3.255   0.468
 5055WAT  MW   20220   3.935   3.272   0.523
 5056WAT  OW   20221   5.920   5.238   2.766
 5056WAT  HW1  20222   5.950   5.318   2.722
 5056WAT  HW2  20223   5.984   5.171   2.740
 5056WAT  MW   20224   5.932   5.240   2.757
 5057WAT  OW   20225   5.882   5.042   1.379
 5057WAT  HW1  20226   5.856   5.127   1.343
 5057WAT  HW2  20227   5.897   4.987   1.302
 5057WAT  MW   20228   5.880   5.046   1.364
 5058WAT  OW   20229   5.975   0.525   2.550
 5058WAT  HW1  20230   5.939   0.437   2.541
 5058WAT  HW2  20231   6.063   0.512   2.585
 5058WAT  MW   20232   5.982   0.512   2.554
 5059WAT  OW   20233   0.193   0.767   5.239
 5059WAT  HW1  20234   0.124   0.711   5.201
 5059WAT  HW2  20235   0.271   0.712   5.240
 5059WAT  MW   20236   0.194   0.752   5.234
 5060WAT  OW   20237   1.578   0.297   0.876
 5060WAT  HW1  20238   1.661   0.255   0.852
 5060WAT  HW2  20239   1.594   0.334   0.963
 5060WAT  MW   20240   1.591   0.296   0.884
 5061WAT  OW   20241   1.300   2.951   2.056
 5061WAT  HW1  20242   1.296   3.009   1.979
 5061WAT  HW2  20243   1.353   2.877   2.027
 5061WAT  MW   20244   1.306   2.949   2.042
 5062WAT  OW   20245   3.537   5.313   4.415
 5062WAT  HW1  20246   3.604   5.336   4.479
 5062WAT  HW2  20247   3.585   5.282   4.339
 5062WAT  MW   20248   3.552   5.312   4.414
 5063WAT  OW   20249   3.029   3.672   3.029
 5063WAT  HW1  20250   2.996   3.709   3.111
 5063WAT  HW2  20251   3.104   3.619   3.055
 5063WAT  MW   20252   3.034   3.670   3.043
 5064WAT  OW   20253   2.826   5.687   1.016
 5064WAT  HW1  20254   2.842   5.596   0.991
 5064WAT  HW2  20255   2.912   5.729   1.009
 5064WAT  MW   20256   2.840   5.681   1.011
 5065WAT  OW   20257   2.327   4.025   2.027
 5065WAT  HW1  20258   2.235   4.029   2.005
 5065WAT  HW2  20259   2.369   3.987   1.950
 5065WAT  MW   20260   2.321   4.021   2.014
 5066WAT  OW   20261   6.198   2.448   3.137
 5066WAT  HW1  20262   6.154   2.425   3.219
 5066WAT  HW2  20263   6.144   2.406   3.069
 5066WAT  MW   20264   6.185   2.439   3.139
 5067WAT  OW   20265   2.612   4.299   1.679
 5067WAT  HW1  20266   2.542   4.300   1.615
 5067WAT  HW2  20267   2.605   4.214   1.722
 5067WAT  MW   20268   2.602   4.288   1.676
 5068WAT  OW   20269   5.712   1.329   5.147
 5068WAT  HW1  20270   5.763   1.360   5.221
 5068WAT  HW2  20271   5.751   1.371   5.071
 5068WAT  MW   20272   5.724   1.338   5.147
 5069WAT  OW   20273   2.916   0.291   4.381
 5069WAT  HW1  20274   2.917   0.386   4.390
 5069WAT  HW2  20275   3.007   0.264   4.389
 5069WAT  MW   20276   2.928   0.300   4.383
 5070WAT  OW   20277   3.598   2.195   1.779
 5070WAT  HW1  20278   3.620   2.118   1.726
 5070WAT  HW2  20279   3.680   2.219   1.822
 5070WAT  MW   20280   3.612   2.188   1.778
 5071WAT  OW   20281   6.550   1.648   2.682
 5071WAT  HW1  20282   6.518   1.559   2.696
 5071WAT  HW2  20283   6.496   1.702   2.739
 5071WAT  MW   20284   6.539   1.643   2.691
 5072WAT  OW   20285   4.406   1.551   6.659
 5072WAT  HW1  20286   4.389   1.598   6.577
 5072WAT  HW2  20287   4.481   1.495   6.639
 5072WAT  MW   20288   4.414   1.550   6.645
 5073WAT  OW   20289   3.678   1.647   0.197
 5073WAT  HW1  20290   3.774   1.651   0.195
 5073WAT  HW2  20291   3.650   1.731   0.161
 5073WAT  MW   20292   3.687   1.659   0.192
 5074WAT  OW   20293   0.374   1.958   2.610
 5074WAT  HW1  20294   0.364   1.999   2.696
 5074WAT  HW2  20295   0.463   1.983   2.583
 5074WAT  MW   20296   0.385   1.967   2.618
 5075WAT  OW   20297   1.017   2.405   4.707
 5075WAT  HW1  20298   1.071   2.482   4.686
 5075WAT  HW2  20299   1.078   2.345   4.749
 5075WAT  MW   20300   1.032   2.408   4.710
 5076WAT  OW   20301   3.202   4.393   1.297
 5076WAT  HW1  20302   3.270   4.422   1.235
 5076WAT  HW2  20303   3.119   4.410   1.251
 5076WAT  MW   20304   3.200   4.399   1.283
 5077WAT  OW   20305   5.770   6.192   6.397
 5077WAT  HW1  20306   5.748   6.272   6.350
 5077WAT  HW2  20307   5.685   6.156   6.424
 5077WAT  MW   20308   5.756   6.198   6.394
 5078WAT  OW   20309   2.011   1.353   6.638
 5078WAT  HW1  20310   1.918   1.355   6.661
 5078WAT  HW2  20311   2.017   1.408   6.560
 5078WAT  MW   20312   2.000   1.360   6.631
 5079WAT  OW   20313   1.377   3.807   0.432
 5079WAT  HW1  20314   1.399   3.717   0.453
 5079WAT  HW2  20315   1.391   3.855   0.514
 5079WAT  MW   20316   1.382   3.802   0.445
 5080WAT  OW   20317   4.335   0.633   0.331
 5080WAT  HW1  20318   4.270   0.692   0.293
 5080WAT  HW2  20319   4.418   0.658   0.290
 5080WAT  MW   20320   4.338   0.644   0.321
 5081WAT  OW   20321   4.326   6.297   2.491
 5081WAT  HW1  20322   4.271   6.375   2.500
 5081WAT  HW2  20323   4.370   6.288   2.576
 5081WAT  MW   20324   4.324   6.306   2.504
 5082WAT  OW   20325   4.288   5.022   4.550
 5082WAT  HW1  20326   4.348   5.022   4.475
 5082WAT  HW2  20327   4.300   5.109   4.589
 5082WAT  MW   20328   4.297   5.034   4.545
 5083WAT  OW   20329   5.757   3.209   5.421
 5083WAT  HW1  20330   5.734   3.285   5.368
 5083WAT  HW2  20331   5.674   3.179   5.457
 5083WAT  MW   20332   5.743   3.215   5.419
 5084WAT  OW   20333   4.505   3.737   6.334
 5084WAT  HW1  20334   4.507   3.815   6.280
 5084WAT  HW2  20335   4.556   3.672   6.285
 5084WAT  MW   20336   4.512   3.738   6.320
 5085WAT  OW   20337   5.001   1.832   0.879
 5085WAT  HW1  20338   5.006   1.758   0.939
 5085WAT  HW2  20339   4.976   1.793   0.795
 5085WAT  MW   20340   4.999   1.817   0.876
 5086WAT  OW   20341   4.935   1.394   4.022
 5086WAT  HW1  20342   4.941   1.449   4.100
 5086WAT  HW2  20343   4.964   1.451   3.950
 5086WAT  MW   20344   4.940   1.409   4.023
 5087WAT  OW   20345   0.216   4.991   2.346
 5087WAT  HW1  20346   0.211   4.975   2.440
 5087WAT  HW2  20347   0.212   5.087   2.338
 5087WAT  MW   20348   0.215   5.002   2.357
 5088WAT  OW   20349   2.643   2.481   2.310
 5088WAT  HW1  20350   2.630   2.427   2.388
 5088WAT  HW2  20351   2.598   2.563   2.331
 5088WAT  MW   20352   2.636   2.485   2.323
 5089WAT  OW   20353   5.696   0.355   4.733
 5089WAT  HW1  20354   5.625   0.337   4.795
 5089WAT  HW2  20355   5.685   0.447   4.709
 5089WAT  MW   20356   5.686   0.364   4.738
 5090WAT  OW   20357   1.898   4.905   5.452
 5090WAT  HW1  20358   1.922   4.921   5.361
 5090WAT  HW2  20359   1.874   4.991   5.486
 5090WAT  MW   20360   1.898   4.918   5.444
 5091WAT  OW   20361   1.636   4.487   0.511
 5091WAT  HW1  20362   1.642   4.392   0.509
 5091WAT  HW2  20363   1.659   4.511   0.601
 5091WAT  MW   20364   1.640   4.478   0.523
 5092WAT  OW   20365   4.766   1.527   5.145
 5092WAT  HW1  20366   4.813   1.592   5.094
 5092WAT  HW2  20367   4.739   1.573   5.224
 5092WAT  MW   20368   4.768   1.541   5.149
 5093WAT  OW   20369   0.424   2.416   3.683
 5093WAT  HW1  20370   0.494   2.357   3.711
 5093WAT  HW2  20371   0.460   2.461   3.607
 5093WAT  MW   20372   0.438   2.414   3.677
 5094WAT  OW   20373   2.760   2.590   5.095
 5094WAT  HW1  20374   2.664   2.590   5.092
 5094WAT  HW2  20375   2.787   2.590   5.004
 5094WAT  MW   20376   2.751   2.590   5.083
 5095WAT  OW   20377   5.483   4.132   5.417
 5095WAT  HW1  20378   5.421   4.181   5.472
 5095WAT  HW2  20379   5.490   4.184   5.337
 5095WAT  MW   20380   5.476   4.145   5.414
 5096WAT  OW   20381   1.422   0.748   4.510
 5096WAT  HW1  20382   1.467   0.687   4.451
 5096WAT  HW2  20383   1.487   0.816   4.527
 5096WAT  MW   20384   1.437   0.749   4.504
 5097WAT  OW   20385   5.695   3.916   2.942
 5097WAT  HW1  20386   5.651   3.967   3.010
 5097WAT  HW2  20387   5.780   3.895   2.980
 5097WAT  MW   20388   5.700   3.920   2.956
 5098WAT  OW   20389   0.985   5.065   3.565
 5098WAT  HW1  20390   0.903   5.051   3.517
 5098WAT  HW2  20391   0.993   5.160   3.572
 5098WAT  MW   20392   0.975   5.076   3.559
 5099WAT  OW   20393   3.936   2.358   5.739
 5099WAT  HW1  20394   4.023   2.396   5.748
 5099WAT  HW2  20395   3.907   2.343   5.829
 5099WAT  MW   20396   3.944   2.361   5.752
 5100WAT  OW   20397   0.530   0.006   5.429
 5100WAT  HW1  20398   0.485  -0.075   5.405
 5100WAT  HW2  20399   0.517   0.013   5.523
 5100WAT  MW   20400   0.522  -0.004   5.438
 5101WAT  OW   20401   2.543   4.456   1.291
 5101WAT  HW1  20402   2.502   4.468   1.205
 5101WAT  HW2  20403   2.618   4.399   1.274
 5101WAT  MW   20404   2.548   4.450   1.277
 5102WAT  OW   20405   5.120   0.358   5.605
 5102WAT  HW1  20406   5.164   0.346   5.521
 5102WAT  HW2  20407   5.100   0.451   5.609
 5102WAT  MW   20408   5.123   0.369   5.594
 5103WAT  OW   20409   2.855   1.147   0.991
 5103WAT  HW1  20410   2.766   1.119   1.013
 5103WAT  HW2  20411   2.844   1.236   0.957
 5103WAT  MW   20412   2.842   1.155   0.990
 5104WAT  OW   20413   1.072   2.072   1.437
 5104WAT  HW1  20414   1.053   1.984   1.405
 5104WAT  HW2  20415   1.129   2.057   1.513
 5104WAT  MW   20416   1.077   2.059   1.443
 5105WAT  OW   20417   3.395   4.905   2.250
 5105WAT  HW1  20418   3.469   4.859   2.290
 5105WAT  HW2  20419   3.429   4.993   2.231
 5105WAT  MW   20420   3.410   4.911   2.253
 5106WAT  OW   20421   2.895   0.831   2.137
 5106WAT  HW1  20422   2.898   0.892   2.064
 5106WAT  HW2  20423   2.850   0.754   2.102
 5106WAT  MW   20424   2.889   0.829   2.123
 5107WAT  OW   20425   5.783   4.327   2.716
 5107WAT  HW1  20426   5.687   4.323   2.715
 5107WAT  HW2  20427   5.810   4.284   2.636
 5107WAT  MW   20428   5.774   4.321   2.706
 5108WAT  OW   20429   4.706   6.029   0.754
 5108WAT  HW1  20430   4.732   5.976   0.829
 5108WAT  HW2  20431   4.778   6.092   0.743
 5108WAT  MW   20432   4.719   6.031   0.762
 5109WAT  OW   20433   6.149   4.308   1.649
 5109WAT  HW1  20434   6.150   4.382   1.709
 5109WAT  HW2  20435   6.071   4.321   1.595
 5109WAT  MW   20436   6.139   4.320   1.649
 5110WAT  OW   20437   0.340   0.796   2.685
 5110WAT  HW1  20438   0.432   0.769   2.684
 5110WAT  HW2  20439   0.292   0.715   2.696
 5110WAT  MW   20440   0.346   0.782   2.687
 5111WAT  OW   20441   1.211   0.816   4.337
 5111WAT  HW1  20442   1.241   0.784   4.252
 5111WAT  HW2  20443   1.285   0.802   4.396
 5111WAT  MW   20444   1.225   0.810   4.334
 5112WAT  OW   20445   2.986   3.904   0.783
 5112WAT  HW1  20446   3.029   3.910   0.698
 5112WAT  HW2  20447   3.027   3.828   0.825
 5112WAT  MW   20448   2.997   3.894   0.777
 5113WAT  OW   20449   3.585   5.788   4.385
 5113WAT  HW1  20450   3.579   5.874   4.345
 5113WAT  HW2  20451   3.511   5.784   4.446
 5113WAT  MW   20452   3.575   5.799   4.388
 5114WAT  OW   20453   3.854   0.251   0.638
 5114WAT  HW1  20454   3.906   0.171   0.629
 5114WAT  HW2  20455   3.919   0.320   0.648
 5114WAT  MW   20456   3.869   0.249   0.638
 5115WAT  OW   20457   3.942   4.746   0.053
 5115WAT  HW1  20458   3.897   4.798  -0.012
 5115WAT  HW2  20459   4.034   4.749   0.027
 5115WAT  MW   20460   3.948   4.753   0.041
 5116WAT  OW   20461   3.652   3.750   3.153
 5116WAT  HW1  20462   3.688   3.835   3.177
 5116WAT  HW2  20463   3.575   3.770   3.101
 5116WAT  MW   20464   3.647   3.764   3.149
 5117WAT  OW   20465   4.042   4.322   6.447
 5117WAT  HW1  20466   4.064   4.229   6.449
 5117WAT  HW2  20467   3.950   4.324   6.419
 5117WAT  MW   20468   4.033   4.310   6.444
 5118WAT  OW   20469   3.827   2.393   1.265
 5118WAT  HW1  20470   3.778   2.320   1.302
 5118WAT  HW2  20471   3.810   2.388   1.171
 5118WAT  MW   20472   3.818   2.383   1.258
 5119WAT  OW   20473   5.252   6.024   5.093
 5119WAT  HW1  20474   5.271   6.034   5.186
 5119WAT  HW2  20475   5.255   5.930   5.077
 5119WAT  MW   20476   5.255   6.013   5.103
 5120WAT  OW   20477   5.095   4.798   2.756
 5120WAT  HW1  20478   5.031   4.819   2.823
 5120WAT  HW2  20479   5.139   4.719   2.787
 5120WAT  MW   20480   5.093   4.790   2.769
 5121WAT  OW   20481   1.121   1.905   6.593
 5121WAT  HW1  20482   1.120   2.001   6.588
 5121WAT  HW2  20483   1.110   1.876   6.502
 5121WAT  MW   20484   1.119   1.914   6.580
 5122WAT  OW   20485   1.526   6.241   5.930
 5122WAT  HW1  20486   1.560   6.325   5.959
 5122WAT  HW2  20487   1.583   6.214   5.858
 5122WAT  MW   20488   1.538   6.248   5.924
 5123WAT  OW   20489   1.278   5.146   4.076
 5123WAT  HW1  20490   1.366   5.123   4.045
 5123WAT  HW2  20491   1.273   5.241   4.066
 5123WAT  MW   20492   1.289   5.155   4.071
 5124WAT  OW   20493   2.444   2.184   2.877
 5124WAT  HW1  20494   2.387   2.256   2.904
 5124WAT  HW2  20495   2.507   2.224   2.817
 5124WAT  MW   20496   2.444   2.198   2.873
 5125WAT  OW   20497   2.155   4.177   3.909
 5125WAT  HW1  20498   2.162   4.254   3.966
 5125WAT  HW2  20499   2.081   4.197   3.851
 5125WAT  MW   20500   2.146   4.190   3.909
 5126WAT  OW   20501   1.159   5.083   2.745
 5126WAT  HW1  20502   1.161   5.017   2.676
 5126WAT  HW2  20503   1.066   5.102   2.759
 5126WAT  MW   20504   1.147   5.077   2.738
 5127WAT  OW   20505   0.485   0.579   2.996
 5127WAT  HW1  20506   0.525   0.545   3.076
 5127WAT  HW2  20507   0.401   0.533   2.990
 5127WAT  MW   20508   0.479   0.568   3.006
 5128WAT  OW   20509   3.402   1.942   0.595
 5128WAT  HW1  20510   3.491   1.977   0.604
 5128WAT  HW2  20511   3.345   2.015   0.620
 5128WAT  MW   20512   3.406   1.956   0.600
 5129WAT  OW   20513   0.700   1.431   0.661
 5129WAT  HW1  20514   0.792   1.407   0.659
 5129WAT  HW2  20515   0.666   1.393   0.743
 5129WAT  MW   20516   0.707   1.423   0.672
 5130WAT  OW   20517   0.664   6.114   0.986
 5130WAT  HW1  20518   0.575   6.085   0.966
 5130WAT  HW2  20519   0.677   6.191   0.931
 5130WAT  MW   20520   0.654   6.120   0.976
 5131WAT  OW   20521   6.173   2.365   6.495
 5131WAT  HW1  20522   6.165   2.270   6.490
 5131WAT  HW2  20523   6.261   2.383   6.460
 5131WAT  MW   20524   6.184   2.355   6.490
 5132WAT  OW   20525   2.320   5.779   2.702
 5132WAT  HW1  20526   2.404   5.788   2.747
 5132WAT  HW2  20527   2.321   5.848   2.635
 5132WAT  MW   20528   2.331   5.790   2.699
 5133WAT  OW   20529   4.946   6.162   0.726
 5133WAT  HW1  20530   5.026   6.116   0.751
 5133WAT  HW2  20531   4.970   6.254   0.729
 5133WAT  MW   20532   4.960   6.168   0.730
 5134WAT  OW   20533   0.721   5.037   1.572
 5134WAT  HW1  20534   0.785   5.030   1.501
 5134WAT  HW2  20535   0.710   5.131   1.585
 5134WAT  MW   20536   0.728   5.049   1.564
 5135WAT  OW   20537   3.563   0.043   3.267
 5135WAT  HW1  20538   3.564   0.074   3.357
 5135WAT  HW2  20539   3.617  -0.036   3.268
 5135WAT  MW   20540   3.570   0.036   3.279
 5136WAT  OW   20541   6.615   3.677   6.457
 5136WAT  HW1  20542   6.685   3.742   6.468
 5136WAT  HW2  20543   6.642   3.604   6.513
 5136WAT  MW   20544   6.628   3.676   6.466
 5137WAT  OW   20545   0.508   4.557   2.829
 5137WAT  HW1  20546   0.570   4.487   2.850
 5137WAT  HW2  20547   0.495   4.603   2.912
 5137WAT  MW   20548   0.515   4.554   2.842
 5138WAT  OW   20549   4.653   6.362   1.071
 5138WAT  HW1  20550   4.594   6.349   0.997
 5138WAT  HW2  20551   4.720   6.295   1.061
 5138WAT  MW   20552   4.654   6.351   1.060
 5139WAT  OW   20553   3.160   6.211   1.085
 5139WAT  HW1  20554   3.169   6.134   1.029
 5139WAT  HW2  20555   3.172   6.177   1.174
 5139WAT  MW   20556   3.163   6.196   1.090
 5140WAT  OW   20557   4.745   3.849   6.032
 5140WAT  HW1  20558   4.711   3.773   5.982
 5140WAT  HW2  20559   4.763   3.814   6.119
 5140WAT  MW   20560   4.743   3.834   6.037
 5141WAT  OW   20561   4.669   2.716   2.992
 5141WAT  HW1  20562   4.705   2.637   3.031
 5141WAT  HW2  20563   4.626   2.762   3.065
 5141WAT  MW   20564   4.668   2.712   3.007
 5142WAT  OW   20565   5.955   3.729   1.920
 5142WAT  HW1  20566   5.871   3.700   1.884
 5142WAT  HW2  20567   6.003   3.765   1.845
 5142WAT  MW   20568   5.950   3.730   1.905
 5143WAT  OW   20569   5.536   6.218   3.702
 5143WAT  HW1  20570   5.630   6.214   3.684
 5143WAT  HW2  20571   5.501   6.274   3.633
 5143WAT  MW   20572   5.544   6.225   3.690
 5144WAT  OW   20573   6.650   1.934   4.343
 5144WAT  HW1  20574   6.733   1.975   4.320
 5144WAT  HW2  20575   6.588   2.007   4.346
 5144WAT  MW   20576   6.652   1.949   4.340
 5145WAT  OW   20577   6.088   0.679   2.793
 5145WAT  HW1  20578   6.058   0.600   2.749
 5145WAT  HW2  20579   6.131   0.649   2.872
 5145WAT  MW   20580   6.089   0.665   2.798
 5146WAT  OW   20581   5.792   0.292   3.511
 5146WAT  HW1  20582   5.805   0.224   3.577
 5146WAT  HW2  20583   5.808   0.247   3.428
 5146WAT  MW   20584   5.796   0.277   3.509
 5147WAT  OW   20585   3.591   0.593   4.199
 5147WAT  HW1  20586   3.663   0.574   4.138
 5147WAT  HW2  20587   3.626   0.658   4.259
 5147WAT  MW   20588   3.605   0.599   4.199
 5148WAT  OW   20589   1.601   4.405   4.169
 5148WAT  HW1  20590   1.512   4.442   4.166
 5148WAT  HW2  20591   1.647   4.449   4.097
 5148WAT  MW   20592   1.595   4.416   4.160
 5149WAT  OW   20593   1.702   1.891   1.857
 5149WAT  HW1  20594   1.623   1.921   1.901
 5149WAT  HW2  20595   1.773   1.907   1.919
 5149WAT  MW   20596   1.701   1.897   1.871
 5150WAT  OW   20597   5.632   1.395   6.608
 5150WAT  HW1  20598   5.598   1.375   6.696
 5150WAT  HW2  20599   5.670   1.312   6.579
 5150WAT  MW   20600   5.632   1.381   6.616
 5151WAT  OW   20601   6.177   2.881   2.986
 5151WAT  HW1  20602   6.225   2.899   2.906
 5151WAT  HW2  20603   6.113   2.952   2.993
 5151WAT  MW   20604   6.175   2.893   2.977
 5152WAT  OW   20605   5.862   0.467   3.219
 5152WAT  HW1  20606   5.907   0.524   3.281
 5152WAT  HW2  20607   5.787   0.518   3.190
 5152WAT  MW   20608   5.858   0.481   3.223
 5153WAT  OW   20609   3.708   2.245   2.591
 5153WAT  HW1  20610   3.646   2.176   2.565
 5153WAT  HW2  20611   3.757   2.207   2.664
 5153WAT  MW   20612   3.706   2.231   2.597
 5154WAT  OW   20613   0.325   4.044   0.534
 5154WAT  HW1  20614   0.395   4.052   0.469
 5154WAT  HW2  20615   0.274   3.968   0.505
 5154WAT  MW   20616   0.328   4.035   0.522
 5155WAT  OW   20617   4.044   0.324   5.773
 5155WAT  HW1  20618   3.969   0.304   5.829
 5155WAT  HW2  20619   4.107   0.255   5.791
 5155WAT  MW   20620   4.043   0.312   5.783
 5156WAT  OW   20621   0.275   2.973   5.641
 5156WAT  HW1  20622   0.213   2.975   5.714
 5156WAT  HW2  20623   0.312   2.884   5.644
 5156WAT  MW   20624   0.271   2.961   5.651
 5157WAT  OW   20625   6.689   2.534   2.442
 5157WAT  HW1  20626   6.626   2.604   2.423
 5157WAT  HW2  20627   6.636   2.461   2.472
 5157WAT  MW   20628   6.674   2.534   2.443
 5158WAT  OW   20629   6.035   2.384   1.783
 5158WAT  HW1  20630   6.098   2.362   1.852
 5158WAT  HW2  20631   6.036   2.479   1.778
 5158WAT  MW   20632   6.043   2.393   1.792
 5159WAT  OW   20633   2.163   2.431   6.245
 5159WAT  HW1  20634   2.249   2.471   6.260
 5159WAT  HW2  20635   2.102   2.488   6.291
 5159WAT  MW   20636   2.166   2.443   6.253
 5160WAT  OW   20637   6.248   3.506   0.452
 5160WAT  HW1  20638   6.268   3.457   0.532
 5160WAT  HW2  20639   6.332   3.518   0.409
 5160WAT  MW   20640   6.261   3.501   0.457
 5161WAT  OW   20641   1.106   0.146   3.755
 5161WAT  HW1  20642   1.157   0.078   3.711
 5161WAT  HW2  20643   1.078   0.205   3.685
 5161WAT  MW   20644   1.109   0.145   3.740
 5162WAT  OW   20645   5.318   1.749   1.276
 5162WAT  HW1  20646   5.358   1.698   1.205
 5162WAT  HW2  20647   5.265   1.815   1.231
 5162WAT  MW   20648   5.316   1.751   1.260
 5163WAT  OW   20649   1.707   4.824   0.760
 5163WAT  HW1  20650   1.628   4.874   0.778
 5163WAT  HW2  20651   1.724   4.839   0.667
 5163WAT  MW   20652   1.699   4.832   0.750
 5164WAT  OW   20653   4.511   3.921   2.132
 5164WAT  HW1  20654   4.507   3.953   2.041
 5164WAT  HW2  20655   4.477   3.831   2.127
 5164WAT  MW   20656   4.506   3.913   2.119
 5165WAT  OW   20657   4.489   4.451   2.900
 5165WAT  HW1  20658   4.580   4.443   2.871
 5165WAT  HW2  20659   4.491   4.519   2.967
 5165WAT  MW   20660   4.501   4.459   2.905
 5166WAT  OW   20661   1.178   4.645   2.683
 5166WAT  HW1  20662   1.167   4.553   2.710
 5166WAT  HW2  20663   1.107   4.692   2.728
 5166WAT  MW   20664   1.167   4.639   2.693
 5167WAT  OW   20665   1.870   3.213   0.885
 5167WAT  HW1  20666   1.943   3.197   0.945
 5167WAT  HW2  20667   1.801   3.251   0.940
 5167WAT  MW   20668   1.871   3.216   0.900
 5168WAT  OW   20669   5.308   5.671   1.934
 5168WAT  HW1  20670   5.354   5.681   2.017
 5168WAT  HW2  20671   5.217   5.694   1.955
 5168WAT  MW   20672   5.302   5.675   1.947
 5169WAT  OW   20673   5.724   6.167   4.235
 5169WAT  HW1  20674   5.776   6.088   4.227
 5169WAT  HW2  20675   5.733   6.193   4.326
 5169WAT  MW   20676   5.732   6.160   4.246
 5170WAT  OW   20677   1.321   0.420   3.375
 5170WAT  HW1  20678   1.358   0.446   3.290
 5170WAT  HW2  20679   1.343   0.327   3.383
 5170WAT  MW   20680   1.329   0.411   3.365
 5171WAT  OW   20681   3.828   1.566   0.710
 5171WAT  HW1  20682   3.828   1.662   0.719
 5171WAT  HW2  20683   3.823   1.552   0.616
 5171WAT  MW   20684   3.827   1.577   0.699
 5172WAT  OW   20685   2.614   3.141   4.475
 5172WAT  HW1  20686   2.530   3.174   4.444
 5172WAT  HW2  20687   2.678   3.206   4.445
 5172WAT  MW   20688   2.612   3.154   4.467
 5173WAT  OW   20689   1.591   2.243   6.549
 5173WAT  HW1  20690   1.605   2.205   6.635
 5173WAT  HW2  20691   1.662   2.208   6.495
 5173WAT  MW   20692   1.602   2.234   6.553
 5174WAT  OW   20693   2.051   5.278   0.747
 5174WAT  HW1  20694   2.099   5.288   0.829
 5174WAT  HW2  20695   1.959   5.289   0.771
 5174WAT  MW   20696   2.045   5.281   0.761
 5175WAT  OW   20697   5.493   4.338   2.733
 5175WAT  HW1  20698   5.463   4.281   2.663
 5175WAT  HW2  20699   5.459   4.299   2.813
 5175WAT  MW   20700   5.485   4.326   2.734
 5176WAT  OW   20701   0.899   0.048   6.612
 5176WAT  HW1  20702   0.964   0.068   6.679
 5176WAT  HW2  20703   0.912  -0.045   6.595
 5176WAT  MW   20704   0.909   0.038   6.619
 5177WAT  OW   20705   1.021   1.552   6.311
 5177WAT  HW1  20706   1.030   1.466   6.351
 5177WAT  HW2  20707   1.100   1.563   6.258
 5177WAT  MW   20708   1.033   1.542   6.309
 5178WAT  OW   20709   5.173   5.117   2.585
 5178WAT  HW1  20710   5.239   5.179   2.554
 5178WAT  HW2  20711   5.216   5.069   2.656
 5178WAT  MW   20712   5.187   5.119   2.590
 5179WAT  OW   20713   3.372   5.320   1.537
 5179WAT  HW1  20714   3.381   5.225   1.542
 5179WAT  HW2  20715   3.443   5.354   1.591
 5179WAT  MW   20716   3.383   5.312   1.545
 5180WAT  OW   20717   3.952   0.361   6.180
 5180WAT  HW1  20718   3.922   0.322   6.262
 5180WAT  HW2  20719   3.929   0.453   6.188
 5180WAT  MW   20720   3.945   0.368   6.192
 5181WAT  OW   20721   4.850   5.860   4.011
 5181WAT  HW1  20722   4.828   5.952   3.992
 5181WAT  HW2  20723   4.925   5.865   4.070
 5181WAT  MW   20724   4.857   5.873   4.016
 5182WAT  OW   20725   4.175   0.116   6.130
 5182WAT  HW1  20726   4.168   0.210   6.151
 5182WAT  HW2  20727   4.268   0.103   6.113
 5182WAT  MW   20728   4.186   0.127   6.131
 5183WAT  OW   20729   1.908   1.987   6.571
 5183WAT  HW1  20730   1.834   1.947   6.617
 5183WAT  HW2  20731   1.982   1.975   6.630
 5183WAT  MW   20732   1.908   1.980   6.585
 5184WAT  OW   20733   5.571   0.104   0.013
 5184WAT  HW1  20734   5.562   0.189   0.056
 5184WAT  HW2  20735   5.654   0.110  -0.035
 5184WAT  MW   20736   5.581   0.116   0.012
 5185WAT  OW   20737   6.133   2.667   4.543
 5185WAT  HW1  20738   6.163   2.723   4.616
 5185WAT  HW2  20739   6.037   2.671   4.549
 5185WAT  MW   20740   6.124   2.675   4.554
 5186WAT  OW   20741   3.383   3.400   2.974
 5186WAT  HW1  20742   3.475   3.401   2.947
 5186WAT  HW2  20743   3.358   3.308   2.969
 5186WAT  MW   20744   3.392   3.388   2.970
 5187WAT  OW   20745   3.352   4.116   5.814
 5187WAT  HW1  20746   3.400   4.193   5.844
 5187WAT  HW2  20747   3.320   4.140   5.726
 5187WAT  MW   20748   3.354   4.129   5.806
 5188WAT  OW   20749   4.659   1.333   3.954
 5188WAT  HW1  20750   4.648   1.276   3.878
 5188WAT  HW2  20751   4.752   1.325   3.976
 5188WAT  MW   20752   4.670   1.324   3.947
 5189WAT  OW   20753   5.043   4.584   0.537
 5189WAT  HW1  20754   4.996   4.555   0.458
 5189WAT  HW2  20755   5.067   4.674   0.518
 5189WAT  MW   20756   5.040   4.592   0.524
 5190WAT  OW   20757   2.548   6.144   6.322
 5190WAT  HW1  20758   2.586   6.059   6.343
 5190WAT  HW2  20759   2.461   6.142   6.360
 5190WAT  MW   20760   2.542   6.132   6.330
 5191WAT  OW   20761   1.353   3.997   2.145
 5191WAT  HW1  20762   1.447   3.980   2.140
 5191WAT  HW2  20763   1.314   3.912   2.165
 5191WAT  MW   20764   1.360   3.984   2.147
 5192WAT  OW   20765   4.412   1.546   0.957
 5192WAT  HW1  20766   4.324   1.555   0.992
 5192WAT  HW2  20767   4.413   1.603   0.880
 5192WAT  MW   20768   4.401   1.555   0.951
 5193WAT  OW   20769   4.770   1.563   1.178
 5193WAT  HW1  20770   4.849   1.567   1.125
 5193WAT  HW2  20771   4.713   1.630   1.142
 5193WAT  MW   20772   4.773   1.572   1.167
 5194WAT  OW   20773   1.013   5.393   0.683
 5194WAT  HW1  20774   1.004   5.321   0.621
 5194WAT  HW2  20775   1.041   5.467   0.630
 5194WAT  MW   20776   1.016   5.393   0.668
 5195WAT  OW   20777   3.182   2.815   1.129
 5195WAT  HW1  20778   3.268   2.832   1.089
 5195WAT  HW2  20779   3.199   2.749   1.196
 5195WAT  MW   20780   3.196   2.809   1.132
 5196WAT  OW   20781   3.148   3.135   4.445
 5196WAT  HW1  20782   3.226   3.080   4.436
 5196WAT  HW2  20783   3.075   3.075   4.433
 5196WAT  MW   20784   3.149   3.120   4.442
 5197WAT  OW   20785   5.332   1.795   3.311
 5197WAT  HW1  20786   5.317   1.807   3.217
 5197WAT  HW2  20787   5.367   1.706   3.318
 5197WAT  MW   20788   5.335   1.785   3.300
 5198WAT  OW   20789   0.837   3.795   0.556
 5198WAT  HW1  20790   0.856   3.703   0.574
 5198WAT  HW2  20791   0.912   3.825   0.505
 5198WAT  MW   20792   0.849   3.787   0.552
 5199WAT  OW   20793   2.347   0.069   1.486
 5199WAT  HW1  20794   2.392   0.153   1.495
 5199WAT  HW2  20795   2.255   0.089   1.504
 5199WAT  MW   20796   2.341   0.083   1.490
 5200WAT  OW   20797   5.922   6.473   0.098
 5200WAT  HW1  20798   5.968   6.555   0.115
 5200WAT  HW2  20799   5.830   6.492   0.118
 5200WAT  MW   20800   5.916   6.486   0.103
 5201WAT  OW   20801   3.428   5.262   6.133
 5201WAT  HW1  20802   3.363   5.194   6.150
 5201WAT  HW2  20803   3.449   5.254   6.040
 5201WAT  MW   20804   3.422   5.252   6.123
 5202WAT  OW   20805   3.405   4.377   0.341
 5202WAT  HW1  20806   3.470   4.448   0.339
 5202WAT  HW2  20807   3.399   4.348   0.250
 5202WAT  MW   20808   3.413   4.383   0.329
 5203WAT  OW   20809   5.810   6.207   1.395
 5203WAT  HW1  20810   5.819   6.144   1.323
 5203WAT  HW2  20811   5.844   6.289   1.360
 5203WAT  MW   20812   5.816   6.209   1.381
 5204WAT  OW   20813   3.393   4.342   2.574
 5204WAT  HW1  20814   3.428   4.413   2.521
 5204WAT  HW2  20815   3.450   4.268   2.556
 5204WAT  MW   20816   3.405   4.342   2.565
 5205WAT  OW   20817   2.282   0.994   6.248
 5205WAT  HW1  20818   2.246   0.915   6.209
 5205WAT  HW2  20819   2.207   1.040   6.285
 5205WAT  MW   20820   2.268   0.990   6.248
 5206WAT  OW   20821   1.543   3.065   6.237
 5206WAT  HW1  20822   1.541   3.123   6.161
 5206WAT  HW2  20823   1.451   3.054   6.262
 5206WAT  MW   20824   1.531   3.071   6.231
 5207WAT  OW   20825   0.928   2.041   3.051
 5207WAT  HW1  20826   0.993   2.077   2.991
 5207WAT  HW2  20827   0.868   2.113   3.068
 5207WAT  MW   20828   0.928   2.055   3.045
 5208WAT  OW   20829   2.251   2.338   6.001
 5208WAT  HW1  20830   2.197   2.270   5.960
 5208WAT  HW2  20831   2.195   2.374   6.070
 5208WAT  MW   20832   2.236   2.334   6.005
 5209WAT  OW   20833   3.195   0.266   0.516
 5209WAT  HW1  20834   3.215   0.188   0.568
 5209WAT  HW2  20835   3.273   0.279   0.462
 5209WAT  MW   20836   3.208   0.257   0.516
 5210WAT  OW   20837   1.473   5.409   4.969
 5210WAT  HW1  20838   1.448   5.360   4.890
 5210WAT  HW2  20839   1.429   5.493   4.960
 5210WAT  MW   20840   1.464   5.413   4.957
 5211WAT  OW   20841   0.930   6.123   4.128
 5211WAT  HW1  20842   0.915   6.054   4.193
 5211WAT  HW2  20843   1.023   6.144   4.137
 5211WAT  MW   20844   0.940   6.116   4.137
 5212WAT  OW   20845   0.710   6.599   0.216
 5212WAT  HW1  20846   0.805   6.598   0.202
 5212WAT  HW2  20847   0.675   6.642   0.138
 5212WAT  MW   20848   0.718   6.605   0.204
 5213WAT  OW   20849   2.767   2.977   3.386
 5213WAT  HW1  20850   2.754   2.925   3.306
 5213WAT  HW2  20851   2.744   2.917   3.457
 5213WAT  MW   20852   2.762   2.962   3.385
 5214WAT  OW   20853   5.423   0.430   0.664
 5214WAT  HW1  20854   5.446   0.338   0.680
 5214WAT  HW2  20855   5.398   0.433   0.571
 5214WAT  MW   20856   5.423   0.418   0.654
 5215WAT  OW   20857   4.731   4.165   1.409
 5215WAT  HW1  20858   4.822   4.145   1.431
 5215WAT  HW2  20859   4.736   4.237   1.346
 5215WAT  MW   20860   4.743   4.172   1.404
 5216WAT  OW   20861   4.760   3.930   5.292
 5216WAT  HW1  20862   4.748   3.937   5.198
 5216WAT  HW2  20863   4.754   4.020   5.324
 5216WAT  MW   20864   4.757   3.942   5.284
 5217WAT  OW   20865   3.398   2.878   2.562
 5217WAT  HW1  20866   3.455   2.801   2.566
 5217WAT  HW2  20867   3.451   2.945   2.518
 5217WAT  MW   20868   3.413   2.877   2.557
 5218WAT  OW   20869   1.309   1.238   3.892
 5218WAT  HW1  20870   1.313   1.290   3.972
 5218WAT  HW2  20871   1.331   1.149   3.920
 5218WAT  MW   20872   1.313   1.233   3.906
 5219WAT  OW   20873   2.695   0.074   1.464
 5219WAT  HW1  20874   2.629   0.142   1.476
 5219WAT  HW2  20875   2.775   0.122   1.441
 5219WAT  MW   20876   2.697   0.089   1.462
 5220WAT  OW   20877   3.514   3.372   1.140
 5220WAT  HW1  20878   3.481   3.282   1.139
 5220WAT  HW2  20879   3.436   3.427   1.133
 5220WAT  MW   20880   3.499   3.368   1.139
 5221WAT  OW   20881   2.569   0.938   4.893
 5221WAT  HW1  20882   2.596   1.027   4.915
 5221WAT  HW2  20883   2.611   0.883   4.959
 5221WAT  MW   20884   2.578   0.942   4.904
 5222WAT  OW   20885   3.717   5.685   2.322
 5222WAT  HW1  20886   3.734   5.608   2.268
 5222WAT  HW2  20887   3.794   5.740   2.311
 5222WAT  MW   20888   3.729   5.682   2.313
 5223WAT  OW   20889   3.042   0.096   4.654
 5223WAT  HW1  20890   2.984   0.073   4.727
 5223WAT  HW2  20891   3.060   0.190   4.666
 5223WAT  MW   20892   3.036   0.106   4.665
 5224WAT  OW   20893   0.647   4.073   3.119
 5224WAT  HW1  20894   0.718   4.071   3.055
 5224WAT  HW2  20895   0.592   3.999   3.096
 5224WAT  MW   20896   0.649   4.063   3.108
 5225WAT  OW   20897   1.625   5.433   2.656
 5225WAT  HW1  20898   1.609   5.462   2.567
 5225WAT  HW2  20899   1.720   5.426   2.663
 5225WAT  MW   20900   1.635   5.436   2.645
 5226WAT  OW   20901   4.459   6.177   1.461
 5226WAT  HW1  20902   4.450   6.262   1.418
 5226WAT  HW2  20903   4.510   6.124   1.400
 5226WAT  MW   20904   4.465   6.181   1.447
 5227WAT  OW   20905   0.484   6.482   4.658
 5227WAT  HW1  20906   0.526   6.396   4.649
 5227WAT  HW2  20907   0.428   6.474   4.735
 5227WAT  MW   20908   0.482   6.470   4.667
 5228WAT  OW   20909   4.523   1.566   2.526
 5228WAT  HW1  20910   4.583   1.630   2.487
 5228WAT  HW2  20911   4.459   1.619   2.574
 5228WAT  MW   20912   4.523   1.581   2.527
 5229WAT  OW   20913   5.842   6.534   2.946
 5229WAT  HW1  20914   5.828   6.566   2.857
 5229WAT  HW2  20915   5.897   6.601   2.987
 5229WAT  MW   20916   5.848   6.547   2.940
 5230WAT  OW   20917   4.225   5.419   6.006
 5230WAT  HW1  20918   4.159   5.438   5.940
 5230WAT  HW2  20919   4.174   5.395   6.084
 5230WAT  MW   20920   4.209   5.418   6.008
 5231WAT  OW   20921   2.690   4.137   4.257
 5231WAT  HW1  20922   2.702   4.178   4.343
 5231WAT  HW2  20923   2.777   4.101   4.237
 5231WAT  MW   20924   2.703   4.138   4.266
 5232WAT  OW   20925   3.805   3.002   0.190
 5232WAT  HW1  20926   3.839   3.079   0.145
 5232WAT  HW2  20927   3.743   2.964   0.128
 5232WAT  MW   20928   3.801   3.008   0.176
 5233WAT  OW   20929   1.753   5.053   4.757
 5233WAT  HW1  20930   1.778   5.086   4.844
 5233WAT  HW2  20931   1.811   5.099   4.696
 5233WAT  MW   20932   1.764   5.063   4.761
 5234WAT  OW   20933   0.632   3.317   1.427
 5234WAT  HW1  20934   0.586   3.397   1.453
 5234WAT  HW2  20935   0.603   3.301   1.337
 5234WAT  MW   20936   0.622   3.326   1.418
 5235WAT  OW   20937   0.757   6.026   0.457
 5235WAT  HW1  20938   0.707   6.096   0.416
 5235WAT  HW2  20939   0.838   6.020   0.406
 5235WAT  MW   20940   0.761   6.034   0.445
 5236WAT  OW   20941   1.195   1.878   2.182
 5236WAT  HW1  20942   1.256   1.919   2.243
 5236WAT  HW2  20943   1.148   1.813   2.235
 5236WAT  MW   20944   1.197   1.875   2.197
 5237WAT  OW   20945   5.275   2.275   3.689
 5237WAT  HW1  20946   5.291   2.366   3.661
 5237WAT  HW2  20947   5.359   2.232   3.677
 5237WAT  MW   20948   5.288   2.281   3.684
 5238WAT  OW   20949   4.591   3.756   2.464
 5238WAT  HW1  20950   4.551   3.810   2.532
 5238WAT  HW2  20951   4.518   3.722   2.413
 5238WAT  MW   20952   4.576   3.758   2.466
 5239WAT  OW   20953   1.732   5.653   5.168
 5239WAT  HW1  20954   1.638   5.637   5.182
 5239WAT  HW2  20955   1.746   5.741   5.201
 5239WAT  MW   20956   1.721   5.662   5.174
 5240WAT  OW   20957   3.435   6.112   4.587
 5240WAT  HW1  20958   3.455   6.203   4.565
 5240WAT  HW2  20959   3.458   6.105   4.680
 5240WAT  MW   20960   3.440   6.123   4.596
 5241WAT  OW   20961   1.060   3.382   3.445
 5241WAT  HW1  20962   1.049   3.418   3.358
 5241WAT  HW2  20963   1.101   3.296   3.431
 5241WAT  MW   20964   1.064   3.375   3.432
 5242WAT  OW   20965   2.764   2.434   5.324
 5242WAT  HW1  20966   2.768   2.481   5.240
 5242WAT  HW2  20967   2.693   2.477   5.371
 5242WAT  MW   20968   2.755   2.446   5.319
 5243WAT  OW   20969   6.164   0.717   5.144
 5243WAT  HW1  20970   6.222   0.743   5.072
 5243WAT  HW2  20971   6.167   0.790   5.205
 5243WAT  MW   20972   6.172   0.730   5.142
 5244WAT  OW   20973   0.667   2.975   0.695
 5244WAT  HW1  20974   0.750   3.003   0.656
 5244WAT  HW2  20975   0.647   2.892   0.653
 5244WAT  MW   20976   0.675   2.968   0.684
 5245WAT  OW   20977   2.618   1.721   4.022
 5245WAT  HW1  20978   2.576   1.780   3.960
 5245WAT  HW2  20979   2.702   1.762   4.041
 5245WAT  MW   20980   2.623   1.734   4.016
 5246WAT  OW   20981   2.649   2.411   6.538
 5246WAT  HW1  20982   2.618   2.499   6.558
 5246WAT  HW2  20983   2.657   2.368   6.623
 5246WAT  MW   20984   2.646   2.417   6.552
 5247WAT  OW   20985   3.874   0.615   6.168
 5247WAT  HW1  20986   3.913   0.677   6.230
 5247WAT  HW2  20987   3.908   0.641   6.083
 5247WAT  MW   20988   3.884   0.627   6.165
 5248WAT  OW   20989   1.737   4.681   5.557
 5248WAT  HW1  20990   1.742   4.749   5.489
 5248WAT  HW2  20991   1.757   4.728   5.638
 5248WAT  MW   20992   1.740   4.697   5.559
 5249WAT  OW   20993   5.106   1.726   3.491
 5249WAT  HW1  20994   5.072   1.661   3.430
 5249WAT  HW2  20995   5.172   1.775   3.442
 5249WAT  MW   20996   5.110   1.724   3.477
 5250WAT  OW   20997   5.810   6.192   3.652
 5250WAT  HW1  20998   5.872   6.254   3.692
 5250WAT  HW2  20999   5.855   6.163   3.573
 5250WAT  MW   21000   5.824   6.197   3.647
 5251WAT  OW   21001   3.178   6.253   2.777
 5251WAT  HW1  21002   3.127   6.173   2.788
 5251WAT  HW2  21003   3.214   6.271   2.863
 5251WAT  MW   21004   3.176   6.245   2.790
 5252WAT  OW   21005   6.422   4.780   0.868
 5252WAT  HW1  21006   6.511   4.801   0.896
 5252WAT  HW2  21007   6.371   4.777   0.949
 5252WAT  MW   21008   6.427   4.782   0.882
 5253WAT  OW   21009   5.957   3.321   0.113
 5253WAT  HW1  21010   5.894   3.261   0.152
 5253WAT  HW2  21011   5.951   3.400   0.167
 5253WAT  MW   21012   5.948   3.323   0.125
 5254WAT  OW   21013   5.291   1.350   4.638
 5254WAT  HW1  21014   5.281   1.442   4.615
 5254WAT  HW2  21015   5.202   1.315   4.634
 5254WAT  MW   21016   5.278   1.358   4.634
 5255WAT  OW   21017   5.830   4.265   4.735
 5255WAT  HW1  21018   5.924   4.285   4.728
 5255WAT  HW2  21019   5.809   4.221   4.653
 5255WAT  MW   21020   5.840   4.262   4.723
 5256WAT  OW   21021   4.995   1.048   1.058
 5256WAT  HW1  21022   5.016   1.078   0.970
 5256WAT  HW2  21023   5.001   0.953   1.054
 5256WAT  MW   21024   4.999   1.040   1.046
 5257WAT  OW   21025   6.073   6.538   5.634
 5257WAT  HW1  21026   6.101   6.569   5.548
 5257WAT  HW2  21027   6.151   6.548   5.689
 5257WAT  MW   21028   6.087   6.543   5.630
 5258WAT  OW   21029   4.032   4.979   1.142
 5258WAT  HW1  21030   4.117   4.968   1.099
 5258WAT  HW2  21031   3.968   4.979   1.070
 5258WAT  MW   21032   4.035   4.977   1.127
 5259WAT  OW   21033   3.735   5.380   4.593
 5259WAT  HW1  21034   3.722   5.417   4.681
 5259WAT  HW2  21035   3.767   5.453   4.541
 5259WAT  MW   21036   3.737   5.394   4.598
 5260WAT  OW   21037   0.626   0.980   5.243
 5260WAT  HW1  21038   0.689   0.913   5.270
 5260WAT  HW2  21039   0.555   0.973   5.308
 5260WAT  MW   21040   0.625   0.970   5.255
 5261WAT  OW   21041   2.966   3.182   6.574
 5261WAT  HW1  21042   3.009   3.122   6.635
 5261WAT  HW2  21043   3.038   3.223   6.526
 5261WAT  MW   21044   2.981   3.179   6.576
 5262WAT  OW   21045   2.703   1.506   6.522
 5262WAT  HW1  21046   2.763   1.518   6.448
 5262WAT  HW2  21047   2.703   1.411   6.538
 5262WAT  MW   21048   2.711   1.495   6.515
 5263WAT  OW   21049   2.838   5.753   3.727
 5263WAT  HW1  21050   2.858   5.660   3.731
 5263WAT  HW2  21051   2.915   5.796   3.764
 5263WAT  MW   21052   2.850   5.747   3.733
 5264WAT  OW   21053   0.162   1.210   2.135
 5264WAT  HW1  21054   0.244   1.248   2.105
 5264WAT  HW2  21055   0.184   1.164   2.216
 5264WAT  MW   21056   0.176   1.209   2.142
 5265WAT  OW   21057   1.972   3.340   1.964
 5265WAT  HW1  21058   1.950   3.424   2.004
 5265WAT  HW2  21059   2.026   3.296   2.029
 5265WAT  MW   21060   1.976   3.345   1.978
 5266WAT  OW   21061   0.476   6.196   5.537
 5266WAT  HW1  21062   0.473   6.101   5.523
 5266WAT  HW2  21063   0.561   6.222   5.502
 5266WAT  MW   21064   0.487   6.187   5.531
 5267WAT  OW   21065   6.496   6.116   5.920
 5267WAT  HW1  21066   6.525   6.152   5.836
 5267WAT  HW2  21067   6.566   6.137   5.981
 5267WAT  MW   21068   6.509   6.124   5.917
 5268WAT  OW   21069   1.262   0.190   5.035
 5268WAT  HW1  21070   1.328   0.120   5.034
 5268WAT  HW2  21071   1.304   0.262   5.081
 5268WAT  MW   21072   1.277   0.190   5.041
 5269WAT  OW   21073   0.479   0.704   5.948
 5269WAT  HW1  21074   0.568   0.731   5.970
 5269WAT  HW2  21075   0.490   0.618   5.907
 5269WAT  MW   21076   0.492   0.696   5.945
 5270WAT  OW   21077   2.774   4.600   0.715
 5270WAT  HW1  21078   2.730   4.673   0.759
 5270WAT  HW2  21079   2.707   4.531   0.711
 5270WAT  MW   21080   2.759   4.600   0.720
 5271WAT  OW   21081   0.638   1.015   0.678
 5271WAT  HW1  21082   0.620   1.098   0.722
 5271WAT  HW2  21083   0.647   1.039   0.586
 5271WAT  MW   21084   0.637   1.029   0.672
 5272WAT  OW   21085   3.345   4.642   0.560
 5272WAT  HW1  21086   3.400   4.582   0.610
 5272WAT  HW2  21087   3.405   4.686   0.499
 5272WAT  MW   21088   3.360   4.640   0.558
 5273WAT  OW   21089   6.360   4.203   1.824
 5273WAT  HW1  21090   6.361   4.246   1.910
 5273WAT  HW2  21091   6.302   4.257   1.771
 5273WAT  MW   21092   6.353   4.216   1.829
 5274WAT  OW   21093   5.071   6.472   2.275
 5274WAT  HW1  21094   5.151   6.512   2.242
 5274WAT  HW2  21095   5.102   6.405   2.337
 5274WAT  MW   21096   5.086   6.468   2.279
 5275WAT  OW   21097   6.189   1.081   0.120
 5275WAT  HW1  21098   6.258   1.123   0.068
 5275WAT  HW2  21099   6.107   1.105   0.076
 5275WAT  MW   21100   6.187   1.090   0.107
 5276WAT  OW   21101   2.627   5.885   6.398
 5276WAT  HW1  21102   2.709   5.861   6.356
 5276WAT  HW2  21103   2.653   5.927   6.480
 5276WAT  MW   21104   2.641   5.888   6.404
 5277WAT  OW   21105   3.671   6.178   0.278
 5277WAT  HW1  21106   3.672   6.099   0.224
 5277WAT  HW2  21107   3.669   6.250   0.216
 5277WAT  MW   21108   3.670   6.177   0.263
 5278WAT  OW   21109   2.751   0.453   0.152
 5278WAT  HW1  21110   2.809   0.471   0.226
 5278WAT  HW2  21111   2.683   0.519   0.158
 5278WAT  MW   21112   2.750   0.464   0.162
 5279WAT  OW   21113   5.676   4.339   5.823
 5279WAT  HW1  21114   5.589   4.351   5.860
 5279WAT  HW2  21115   5.733   4.392   5.879
 5279WAT  MW   21116   5.672   4.348   5.835
 5280WAT  OW   21117   4.947   6.267   1.771
 5280WAT  HW1  21118   4.901   6.343   1.806
 5280WAT  HW2  21119   5.017   6.250   1.835
 5280WAT  MW   21120   4.950   6.274   1.784
 5281WAT  OW   21121   3.559   3.869   5.737
 5281WAT  HW1  21122   3.469   3.875   5.770
 5281WAT  HW2  21123   3.551   3.879   5.642
 5281WAT  MW   21124   3.546   3.871   5.729
 5282WAT  OW   21125   5.614   0.183   4.061
 5282WAT  HW1  21126   5.710   0.177   4.067
 5282WAT  HW2  21127   5.586   0.096   4.035
 5282WAT  MW   21128   5.623   0.171   4.059
 5283WAT  OW   21129   1.459   0.126   2.514
 5283WAT  HW1  21130   1.499   0.184   2.450
 5283WAT  HW2  21131   1.439   0.183   2.589
 5283WAT  MW   21132   1.461   0.141   2.516
 5284WAT  OW   21133   4.710   5.096   1.580
 5284WAT  HW1  21134   4.644   5.143   1.529
 5284WAT  HW2  21135   4.721   5.013   1.532
 5284WAT  MW   21136   4.702   5.091   1.567
 5285WAT  OW   21137   4.075   0.108   1.853
 5285WAT  HW1  21138   4.048   0.198   1.873
 5285WAT  HW2  21139   4.165   0.116   1.822
 5285WAT  MW   21140   4.084   0.121   1.851
 5286WAT  OW   21141   6.128   2.550   5.937
 5286WAT  HW1  21142   6.033   2.552   5.946
 5286WAT  HW2  21143   6.160   2.593   6.016
 5286WAT  MW   21144   6.120   2.556   5.949
 5287WAT  OW   21145   3.654   2.191   1.346
 5287WAT  HW1  21146   3.635   2.149   1.262
 5287WAT  HW2  21147   3.568   2.202   1.387
 5287WAT  MW   21148   3.640   2.187   1.340
 5288WAT  OW   21149   4.780   1.623   1.583
 5288WAT  HW1  21150   4.784   1.538   1.540
 5288WAT  HW2  21151   4.870   1.641   1.610
 5288WAT  MW   21152   4.793   1.615   1.581
 5289WAT  OW   21153   2.360   4.318   0.288
 5289WAT  HW1  21154   2.281   4.263   0.285
 5289WAT  HW2  21155   2.379   4.338   0.196
 5289WAT  MW   21156   2.352   4.314   0.276
 5290WAT  OW   21157   2.827   4.974   3.545
 5290WAT  HW1  21158   2.922   4.988   3.541
 5290WAT  HW2  21159   2.802   5.008   3.630
 5290WAT  MW   21160   2.837   4.981   3.555
 5291WAT  OW   21161   5.261   4.582   2.074
 5291WAT  HW1  21162   5.308   4.509   2.033
 5291WAT  HW2  21163   5.318   4.658   2.060
 5291WAT  MW   21164   5.275   4.582   2.067
 5292WAT  OW   21165   2.455   0.910   2.986
 5292WAT  HW1  21166   2.529   0.904   2.926
 5292WAT  HW2  21167   2.456   1.001   3.017
 5292WAT  MW   21168   2.465   0.921   2.982
 5293WAT  OW   21169   6.230   3.210   3.774
 5293WAT  HW1  21170   6.239   3.116   3.754
 5293WAT  HW2  21171   6.316   3.235   3.808
 5293WAT  MW   21172   6.242   3.201   3.776
 5294WAT  OW   21173   2.878   3.787   0.384
 5294WAT  HW1  21174   2.845   3.857   0.441
 5294WAT  HW2  21175   2.839   3.806   0.299
 5294WAT  MW   21176   2.868   3.799   0.381
 5295WAT  OW   21177   3.899   0.920   3.576
 5295WAT  HW1  21178   3.858   0.885   3.655
 5295WAT  HW2  21179   3.854   1.003   3.560
 5295WAT  MW   21180   3.888   0.926   3.584
 5296WAT  OW   21181   0.373   1.461   6.182
 5296WAT  HW1  21182   0.360   1.508   6.264
 5296WAT  HW2  21183   0.411   1.525   6.123
 5296WAT  MW   21184   0.376   1.475   6.185
 5297WAT  OW   21185   1.293   2.531   0.315
 5297WAT  HW1  21186   1.353   2.513   0.242
 5297WAT  HW2  21187   1.322   2.473   0.385
 5297WAT  MW   21188   1.305   2.521   0.314
 5298WAT  OW   21189   0.386   4.346   4.176
 5298WAT  HW1  21190   0.400   4.369   4.084
 5298WAT  HW2  21191   0.454   4.281   4.195
 5298WAT  MW   21192   0.397   4.340   4.167
 5299WAT  OW   21193   3.114   4.263   4.402
 5299WAT  HW1  21194   3.129   4.293   4.312
 5299WAT  HW2  21195   3.200   4.263   4.442
 5299WAT  MW   21196   3.127   4.267   4.395
 5300WAT  OW   21197   0.948   6.327   4.819
 5300WAT  HW1  21198   0.882   6.341   4.750
 5300WAT  HW2  21199   0.975   6.415   4.844
 5300WAT  MW   21200   0.943   6.341   4.813
 5301WAT  OW   21201   2.398   0.048   4.228
 5301WAT  HW1  21202   2.480   0.000   4.213
 5301WAT  HW2  21203   2.330  -0.011   4.198
 5301WAT  MW   21204   2.400   0.034   4.222
 5302WAT  OW   21205   5.379   6.278   4.235
 5302WAT  HW1  21206   5.379   6.183   4.231
 5302WAT  HW2  21207   5.417   6.306   4.152
 5302WAT  MW   21208   5.384   6.269   4.224
 5303WAT  OW   21209   5.784   1.145   1.430
 5303WAT  HW1  21210   5.848   1.208   1.396
 5303WAT  HW2  21211   5.818   1.060   1.404
 5303WAT  MW   21212   5.797   1.142   1.422
 5304WAT  OW   21213   2.145   0.088   3.612
 5304WAT  HW1  21214   2.096   0.163   3.645
 5304WAT  HW2  21215   2.080   0.017   3.606
 5304WAT  MW   21216   2.130   0.088   3.615
 5305WAT  OW   21217   1.979   3.768   1.445
 5305WAT  HW1  21218   2.004   3.800   1.359
 5305WAT  HW2  21219   1.937   3.843   1.487
 5305WAT  MW   21220   1.977   3.782   1.439
 5306WAT  OW   21221   5.934   3.439   5.887
 5306WAT  HW1  21222   6.003   3.392   5.839
 5306WAT  HW2  21223   5.905   3.377   5.954
 5306WAT  MW   21224   5.939   3.424   5.889
 5307WAT  OW   21225   1.850   5.660   2.843
 5307WAT  HW1  21226   1.917   5.676   2.909
 5307WAT  HW2  21227   1.787   5.603   2.886
 5307WAT  MW   21228   1.850   5.655   2.857
 5308WAT  OW   21229   2.701   1.969   2.108
 5308WAT  HW1  21230   2.682   2.045   2.053
 5308WAT  HW2  21231   2.751   1.911   2.052
 5308WAT  MW   21232   2.705   1.972   2.093
 5309WAT  OW   21233   2.630   2.521   0.766
 5309WAT  HW1  21234   2.560   2.553   0.709
 5309WAT  HW2  21235   2.710   2.536   0.716
 5309WAT  MW   21236   2.631   2.527   0.752
 5310WAT  OW   21237   4.358   1.120   5.994
 5310WAT  HW1  21238   4.295   1.170   5.943
 5310WAT  HW2  21239   4.327   1.128   6.084
 5310WAT  MW   21240   4.345   1.128   5.999
 5311WAT  OW   21241   2.833   1.563   1.244
 5311WAT  HW1  21242   2.795   1.575   1.331
 5311WAT  HW2  21243   2.864   1.472   1.243
 5311WAT  MW   21244   2.832   1.552   1.256
 5312WAT  OW   21245   1.919   2.841   2.664
 5312WAT  HW1  21246   1.892   2.832   2.755
 5312WAT  HW2  21247   1.875   2.919   2.633
 5312WAT  MW   21248   1.910   2.850   2.672
 5313WAT  OW   21249   3.459   0.271   6.110
 5313WAT  HW1  21250   3.384   0.211   6.106
 5313WAT  HW2  21251   3.419   0.357   6.127
 5313WAT  MW   21252   3.444   0.275   6.112
 5314WAT  OW   21253   2.650   2.045   2.628
 5314WAT  HW1  21254   2.647   1.983   2.556
 5314WAT  HW2  21255   2.624   2.129   2.589
 5314WAT  MW   21256   2.646   2.048   2.613
 5315WAT  OW   21257   0.488   0.281   3.080
 5315WAT  HW1  21258   0.410   0.311   3.127
 5315WAT  HW2  21259   0.455   0.220   3.015
 5315WAT  MW   21260   0.474   0.277   3.078
 5316WAT  OW   21261   5.262   4.328   4.101
 5316WAT  HW1  21262   5.279   4.422   4.106
 5316WAT  HW2  21263   5.262   4.300   4.193
 5316WAT  MW   21264   5.264   4.337   4.114
 5317WAT  OW   21265   2.967   2.104   6.131
 5317WAT  HW1  21266   2.974   2.015   6.167
 5317WAT  HW2  21267   2.877   2.130   6.150
 5317WAT  MW   21268   2.956   2.096   6.139
 5318WAT  OW   21269   5.720   6.385   4.062
 5318WAT  HW1  21270   5.686   6.450   4.122
 5318WAT  HW2  21271   5.739   6.309   4.117
 5318WAT  MW   21272   5.718   6.383   4.077
 5319WAT  OW   21273   2.098   0.152   1.563
 5319WAT  HW1  21274   2.030   0.105   1.610
 5319WAT  HW2  21275   2.153   0.191   1.632
 5319WAT  MW   21276   2.097   0.151   1.578
 5320WAT  OW   21277   1.107   2.451   1.113
 5320WAT  HW1  21278   1.077   2.381   1.171
 5320WAT  HW2  21279   1.201   2.457   1.129
 5320WAT  MW   21280   1.115   2.443   1.123
 5321WAT  OW   21281   0.284   3.925   5.735
 5321WAT  HW1  21282   0.260   4.017   5.750
 5321WAT  HW2  21283   0.324   3.925   5.648
 5321WAT  MW   21284   0.286   3.937   5.725
 5322WAT  OW   21285   5.430   1.123   3.103
 5322WAT  HW1  21286   5.449   1.075   3.184
 5322WAT  HW2  21287   5.346   1.165   3.119
 5322WAT  MW   21288   5.422   1.122   3.116
 5323WAT  OW   21289   6.032   5.804   4.854
 5323WAT  HW1  21290   6.016   5.877   4.913
 5323WAT  HW2  21291   6.086   5.743   4.905
 5323WAT  MW   21292   6.037   5.805   4.869
 5324WAT  OW   21293   0.112   6.392   5.924
 5324WAT  HW1  21294   0.186   6.357   5.974
 5324WAT  HW2  21295   0.127   6.486   5.921
 5324WAT  MW   21296   0.124   6.399   5.930
 5325WAT  OW   21297   2.157   4.320   4.384
 5325WAT  HW1  21298   2.142   4.378   4.459
 5325WAT  HW2  21299   2.235   4.270   4.408
 5325WAT  MW   21300   2.166   4.321   4.397
 5326WAT  OW   21301   2.200   0.736   6.161
 5326WAT  HW1  21302   2.150   0.709   6.238
 5326WAT  HW2  21303   2.165   0.684   6.089
 5326WAT  MW   21304   2.189   0.726   6.161
 5327WAT  OW   21305   0.187   2.342   1.008
 5327WAT  HW1  21306   0.153   2.427   0.980
 5327WAT  HW2  21307   0.247   2.363   1.080
 5327WAT  MW   21308   0.190   2.356   1.014
 5328WAT  OW   21309   4.075   5.910   0.804
 5328WAT  HW1  21310   4.018   5.930   0.730
 5328WAT  HW2  21311   4.137   5.982   0.807
 5328WAT  MW   21312   4.075   5.922   0.795
 5329WAT  OW   21313   4.727   0.710   1.128
 5329WAT  HW1  21314   4.731   0.692   1.222
 5329WAT  HW2  21315   4.643   0.673   1.100
 5329WAT  MW   21316   4.716   0.703   1.136
 5330WAT  OW   21317   0.133   1.041   2.362
 5330WAT  HW1  21318   0.085   0.959   2.349
 5330WAT  HW2  21319   0.138   1.051   2.458
 5330WAT  MW   21320   0.127   1.032   2.373
 5331WAT  OW   21321   5.182   2.504   5.493
 5331WAT  HW1  21322   5.220   2.569   5.434
 5331WAT  HW2  21323   5.248   2.491   5.561
 5331WAT  MW   21324   5.196   2.511   5.494
 5332WAT  OW   21325   4.771   6.144   6.590
 5332WAT  HW1  21326   4.816   6.158   6.507
 5332WAT  HW2  21327   4.686   6.187   6.579
 5332WAT  MW   21328   4.765   6.152   6.578
 5333WAT  OW   21329   4.069   5.036   6.037
 5333WAT  HW1  21330   4.126   5.109   6.060
 5333WAT  HW2  21331   3.999   5.077   5.986
 5333WAT  MW   21332   4.067   5.051   6.033
 5334WAT  OW   21333   2.341   0.792   4.618
 5334WAT  HW1  21334   2.248   0.809   4.604
 5334WAT  HW2  21335   2.361   0.837   4.700
 5334WAT  MW   21336   2.332   0.800   4.627
 5335WAT  OW   21337   3.206   3.211   1.063
 5335WAT  HW1  21338   3.185   3.159   1.140
 5335WAT  HW2  21339   3.269   3.158   1.014
 5335WAT  MW   21340   3.212   3.197   1.066
 5336WAT  OW   21341   0.159   2.765   4.328
 5336WAT  HW1  21342   0.206   2.832   4.378
 5336WAT  HW2  21343   0.221   2.692   4.323
 5336WAT  MW   21344   0.173   2.764   4.334
 5337WAT  OW   21345   2.246   1.480   5.384
 5337WAT  HW1  21346   2.246   1.385   5.390
 5337WAT  HW2  21347   2.156   1.503   5.359
 5337WAT  MW   21348   2.234   1.471   5.381
 5338WAT  OW   21349   0.968   4.640   3.962
 5338WAT  HW1  21350   0.878   4.666   3.984
 5338WAT  HW2  21351   0.998   4.589   4.038
 5338WAT  MW   21352   0.960   4.637   3.975
 5339WAT  OW   21353   4.645   3.071   5.143
 5339WAT  HW1  21354   4.641   3.023   5.225
 5339WAT  HW2  21355   4.553   3.084   5.119
 5339WAT  MW   21356   4.632   3.066   5.151
 5340WAT  OW   21357   0.943   5.600   1.664
 5340WAT  HW1  21358   0.933   5.690   1.634
 5340WAT  HW2  21359   1.035   5.580   1.649
 5340WAT  MW   21360   0.953   5.609   1.658
 5341WAT  OW   21361   5.266   5.738   5.293
 5341WAT  HW1  21362   5.275   5.758   5.200
 5341WAT  HW2  21363   5.326   5.665   5.308
 5341WAT  MW   21364   5.275   5.731   5.283
 5342WAT  OW   21365   1.724   6.679   0.876
 5342WAT  HW1  21366   1.748   6.737   0.949
 5342WAT  HW2  21367   1.653   6.626   0.911
 5342WAT  MW   21368   1.718   6.680   0.891
 5343WAT  OW   21369   5.987   0.097   5.130
 5343WAT  HW1  21370   6.046   0.160   5.171
 5343WAT  HW2  21371   5.920   0.151   5.087
 5343WAT  MW   21372   5.986   0.112   5.130
 5344WAT  OW   21373   0.741   6.347   4.234
 5344WAT  HW1  21374   0.655   6.305   4.230
 5344WAT  HW2  21375   0.796   6.296   4.176
 5344WAT  MW   21376   0.737   6.335   4.226
 5345WAT  OW   21377   3.666   4.482   2.058
 5345WAT  HW1  21378   3.755   4.450   2.070
 5345WAT  HW2  21379   3.644   4.459   1.967
 5345WAT  MW   21380   3.675   4.475   2.047
 5346WAT  OW   21381   2.609   6.201   2.055
 5346WAT  HW1  21382   2.625   6.226   1.964
 5346WAT  HW2  21383   2.627   6.280   2.105
 5346WAT  MW   21384   2.613   6.215   2.049
 5347WAT  OW   21385   1.019   0.969   4.490
 5347WAT  HW1  21386   1.083   0.912   4.448
 5347WAT  HW2  21387   0.934   0.934   4.462
 5347WAT  MW   21388   1.016   0.957   4.481
 5348WAT  OW   21389   2.792   4.072   5.652
 5348WAT  HW1  21390   2.732   4.075   5.727
 5348WAT  HW2  21391   2.873   4.035   5.688
 5348WAT  MW   21392   2.795   4.068   5.667
 5349WAT  OW   21393   5.448   0.106   1.731
 5349WAT  HW1  21394   5.455   0.074   1.821
 5349WAT  HW2  21395   5.389   0.181   1.737
 5349WAT  MW   21396   5.441   0.112   1.744
 5350WAT  OW   21397   4.477   2.035   1.851
 5350WAT  HW1  21398   4.466   2.101   1.920
 5350WAT  HW2  21399   4.531   2.078   1.785
 5350WAT  MW   21400   4.482   2.050   1.852
 5351WAT  OW   21401   3.482   1.037   4.954
 5351WAT  HW1  21402   3.474   1.084   4.871
 5351WAT  HW2  21403   3.564   0.988   4.946
 5351WAT  MW   21404   3.492   1.037   4.942
 5352WAT  OW   21405   5.666   1.243   1.193
 5352WAT  HW1  21406   5.719   1.164   1.202
 5352WAT  HW2  21407   5.656   1.255   1.098
 5352WAT  MW   21408   5.671   1.234   1.182
 5353WAT  OW   21409   1.284   5.931   0.401
 5353WAT  HW1  21410   1.191   5.928   0.382
 5353WAT  HW2  21411   1.321   5.989   0.335
 5353WAT  MW   21412   1.277   5.938   0.390
 5354WAT  OW   21413   1.228   4.164   5.144
 5354WAT  HW1  21414   1.232   4.197   5.234
 5354WAT  HW2  21415   1.214   4.070   5.154
 5354WAT  MW   21416   1.227   4.156   5.157
 5355WAT  OW   21417   4.070   0.477   4.219
 5355WAT  HW1  21418   4.035   0.490   4.307
 5355WAT  HW2  21419   3.997   0.441   4.169
 5355WAT  MW   21420   4.056   0.474   4.224
 5356WAT  OW   21421   4.889   0.496   6.392
 5356WAT  HW1  21422   4.955   0.504   6.322
 5356WAT  HW2  21423   4.824   0.563   6.370
 5356WAT  MW   21424   4.889   0.506   6.380
 5357WAT  OW   21425   2.054   1.251   4.753
 5357WAT  HW1  21426   1.985   1.317   4.745
 5357WAT  HW2  21427   2.128   1.299   4.791
 5357WAT  MW   21428   2.055   1.266   4.757
 5358WAT  OW   21429   4.176   1.929   3.296
 5358WAT  HW1  21430   4.117   1.910   3.369
 5358WAT  HW2  21431   4.159   1.860   3.232
 5358WAT  MW   21432   4.166   1.918   3.297
 5359WAT  OW   21433   4.989   4.230   0.698
 5359WAT  HW1  21434   5.063   4.272   0.653
 5359WAT  HW2  21435   5.006   4.137   0.690
 5359WAT  MW   21436   5.001   4.224   0.691
 5360WAT  OW   21437   4.555   4.417   2.584
 5360WAT  HW1  21438   4.461   4.433   2.583
 5360WAT  HW2  21439   4.592   4.488   2.530
 5360WAT  MW   21440   4.547   4.429   2.577
 5361WAT  OW   21441   0.200   4.635   0.485
 5361WAT  HW1  21442   0.185   4.553   0.533
 5361WAT  HW2  21443   0.294   4.651   0.494
 5361WAT  MW   21444   0.210   4.626   0.492
 5362WAT  OW   21445   2.717   3.257   5.739
 5362WAT  HW1  21446   2.639   3.283   5.689
 5362WAT  HW2  21447   2.761   3.193   5.684
 5362WAT  MW   21448   2.712   3.252   5.725
 5363WAT  OW   21449   1.527   1.882   3.903
 5363WAT  HW1  21450   1.600   1.821   3.892
 5363WAT  HW2  21451   1.480   1.849   3.980
 5363WAT  MW   21452   1.531   1.870   3.912
 5364WAT  OW   21453   5.174   0.092   3.242
 5364WAT  HW1  21454   5.115   0.040   3.296
 5364WAT  HW2  21455   5.120   0.163   3.207
 5364WAT  MW   21456   5.159   0.095   3.245
 5365WAT  OW   21457   3.407   6.524   6.656
 5365WAT  HW1  21458   3.428   6.583   6.584
 5365WAT  HW2  21459   3.313   6.535   6.670
 5365WAT  MW   21460   3.398   6.533   6.648
 5366WAT  OW   21461   5.969   6.234   5.326
 5366WAT  HW1  21462   5.939   6.307   5.271
 5366WAT  HW2  21463   6.047   6.201   5.281
 5366WAT  MW   21464   5.975   6.239   5.312
 5367WAT  OW   21465   6.486   2.207   6.452
 5367WAT  HW1  21466   6.448   2.139   6.397
 5367WAT  HW2  21467   6.576   2.215   6.423
 5367WAT  MW   21468   6.493   2.199   6.441
 5368WAT  OW   21469   6.457   0.464   0.596
 5368WAT  HW1  21470   6.449   0.390   0.656
 5368WAT  HW2  21471   6.446   0.426   0.509
 5368WAT  MW   21472   6.454   0.449   0.593
 5369WAT  OW   21473   6.601   3.966   4.050
 5369WAT  HW1  21474   6.688   3.934   4.074
 5369WAT  HW2  21475   6.566   4.002   4.131
 5369WAT  MW   21476   6.608   3.966   4.064
 5370WAT  OW   21477   3.864   1.835   1.998
 5370WAT  HW1  21478   3.960   1.837   2.002
 5370WAT  HW2  21479   3.842   1.869   1.912
 5370WAT  MW   21480   3.874   1.840   1.987
 5371WAT  OW   21481   4.138   0.994   3.706
 5371WAT  HW1  21482   4.141   1.053   3.781
 5371WAT  HW2  21483   4.046   0.992   3.680
 5371WAT  MW   21484   4.126   1.002   3.712
 5372WAT  OW   21485   2.847   2.773   1.352
 5372WAT  HW1  21486   2.793   2.696   1.333
 5372WAT  HW2  21487   2.868   2.809   1.265
 5372WAT  MW   21488   2.843   2.767   1.338
 5373WAT  OW   21489   2.804   3.317   4.371
 5373WAT  HW1  21490   2.839   3.378   4.436
 5373WAT  HW2  21491   2.879   3.295   4.315
 5373WAT  MW   21492   2.818   3.322   4.372
 5374WAT  OW   21493   0.981   3.146   6.031
 5374WAT  HW1  21494   0.899   3.184   6.061
 5374WAT  HW2  21495   0.994   3.183   5.944
 5374WAT  MW   21496   0.972   3.156   6.023
 5375WAT  OW   21497   1.406   1.116   0.895
 5375WAT  HW1  21498   1.467   1.166   0.949
 5375WAT  HW2  21499   1.330   1.102   0.952
 5375WAT  MW   21500   1.404   1.120   0.910
 5376WAT  OW   21501   6.623   4.378   4.519
 5376WAT  HW1  21502   6.718   4.377   4.534
 5376WAT  HW2  21503   6.599   4.286   4.515
 5376WAT  MW   21504   6.633   4.366   4.520
 5377WAT  OW   21505   5.482   0.075   0.394
 5377WAT  HW1  21506   5.466   0.111   0.481
 5377WAT  HW2  21507   5.566   0.029   0.402
 5377WAT  MW   21508   5.491   0.073   0.406
 5378WAT  OW   21509   6.189   0.019   1.754
 5378WAT  HW1  21510   6.108   0.070   1.752
 5378WAT  HW2  21511   6.174  -0.053   1.693
 5378WAT  MW   21512   6.177   0.017   1.745
 5379WAT  OW   21513   3.807   6.552   0.008
 5379WAT  HW1  21514   3.741   6.497   0.050
 5379WAT  HW2  21515   3.856   6.493  -0.048
 5379WAT  MW   21516   3.805   6.537   0.006
 5380WAT  OW   21517   6.338   3.791   2.048
 5380WAT  HW1  21518   6.320   3.739   1.970
 5380WAT  HW2  21519   6.433   3.787   2.058
 5380WAT  MW   21520   6.348   3.784   2.039
 5381WAT  OW   21521   3.317   1.048   5.664
 5381WAT  HW1  21522   3.259   0.990   5.713
 5381WAT  HW2  21523   3.281   1.136   5.676
 5381WAT  MW   21524   3.305   1.052   5.672
 5382WAT  OW   21525   2.392   1.793   4.497
 5382WAT  HW1  21526   2.351   1.878   4.482
 5382WAT  HW2  21527   2.478   1.800   4.455
 5382WAT  MW   21528   2.398   1.805   4.489
 5383WAT  OW   21529   3.030   6.672   3.825
 5383WAT  HW1  21530   3.080   6.665   3.743
 5383WAT  HW2  21531   3.042   6.763   3.853
 5383WAT  MW   21532   3.038   6.683   3.818
 5384WAT  OW   21533   2.730   3.766   1.986
 5384WAT  HW1  21534   2.762   3.705   2.052
 5384WAT  HW2  21535   2.658   3.720   1.943
 5384WAT  MW   21536   2.725   3.752   1.989
 5385WAT  OW   21537   4.571   4.958   1.782
 5385WAT  HW1  21538   4.521   4.884   1.749
 5385WAT  HW2  21539   4.621   4.989   1.707
 5385WAT  MW   21540   4.571   4.953   1.768
 5386WAT  OW   21541   4.769   1.362   3.054
 5386WAT  HW1  21542   4.711   1.288   3.073
 5386WAT  HW2  21543   4.782   1.359   2.959
 5386WAT  MW   21544   4.763   1.352   3.044
 5387WAT  OW   21545   2.731   4.290   6.588
 5387WAT  HW1  21546   2.679   4.328   6.517
 5387WAT  HW2  21547   2.807   4.252   6.545
 5387WAT  MW   21548   2.734   4.290   6.573
 5388WAT  OW   21549   6.215   1.207   1.277
 5388WAT  HW1  21550   6.128   1.246   1.263
 5388WAT  HW2  21551   6.243   1.180   1.189
 5388WAT  MW   21552   6.207   1.209   1.263
 5389WAT  OW   21553   2.442   4.111   3.638
 5389WAT  HW1  21554   2.398   4.104   3.723
 5389WAT  HW2  21555   2.500   4.035   3.635
 5389WAT  MW   21556   2.443   4.100   3.649
 5390WAT  OW   21557   4.038   5.355   6.215
 5390WAT  HW1  21558   3.982   5.358   6.292
 5390WAT  HW2  21559   4.119   5.313   6.246
 5390WAT  MW   21560   4.041   5.350   6.229
 5391WAT  OW   21561   3.945   3.383   5.058
 5391WAT  HW1  21562   3.969   3.292   5.043
 5391WAT  HW2  21563   3.945   3.393   5.154
 5391WAT  MW   21564   3.948   3.373   5.069
 5392WAT  OW   21565   2.750   1.906   2.378
 5392WAT  HW1  21566   2.758   1.901   2.283
 5392WAT  HW2  21567   2.658   1.885   2.395
 5392WAT  MW   21568   2.739   1.903   2.368
 5393WAT  OW   21569   4.941   2.162   4.865
 5393WAT  HW1  21570   4.875   2.109   4.822
 5393WAT  HW2  21571   4.999   2.099   4.908
 5393WAT  MW   21572   4.940   2.147   4.865
 5394WAT  OW   21573   2.180   3.292   2.625
 5394WAT  HW1  21574   2.093   3.329   2.610
 5394WAT  HW2  21575   2.208   3.329   2.709
 5394WAT  MW   21576   2.173   3.302   2.634
 5395WAT  OW   21577   4.178   3.734   0.803
 5395WAT  HW1  21578   4.145   3.810   0.754
 5395WAT  HW2  21579   4.135   3.659   0.763
 5395WAT  MW   21580   4.168   3.734   0.791
 5396WAT  OW   21581   3.098   3.479   2.167
 5396WAT  HW1  21582   3.095   3.501   2.074
 5396WAT  HW2  21583   3.085   3.384   2.170
 5396WAT  MW   21584   3.096   3.469   2.155
 5397WAT  OW   21585   1.973   3.218   5.768
 5397WAT  HW1  21586   1.917   3.295   5.760
 5397WAT  HW2  21587   2.057   3.253   5.800
 5397WAT  MW   21588   1.977   3.233   5.771
 5398WAT  OW   21589   4.079   2.293   1.294
 5398WAT  HW1  21590   3.985   2.312   1.288
 5398WAT  HW2  21591   4.121   2.378   1.282
 5398WAT  MW   21592   4.072   2.307   1.292
 5399WAT  OW   21593   1.971   4.494   0.891
 5399WAT  HW1  21594   2.035   4.564   0.877
 5399WAT  HW2  21595   1.975   4.477   0.985
 5399WAT  MW   21596   1.980   4.501   0.902
 5400WAT  OW   21597   1.782   4.780   4.238
 5400WAT  HW1  21598   1.787   4.691   4.273
 5400WAT  HW2  21599   1.707   4.819   4.283
 5400WAT  MW   21600   1.773   4.774   4.248
 5401WAT  OW   21601   2.437   3.240   1.095
 5401WAT  HW1  21602   2.502   3.291   1.144
 5401WAT  HW2  21603   2.384   3.306   1.050
 5401WAT  MW   21604   2.439   3.256   1.096
 5402WAT  OW   21605   0.808   2.071   4.645
 5402WAT  HW1  21606   0.874   2.095   4.710
 5402WAT  HW2  21607   0.753   2.007   4.690
 5402WAT  MW   21608   0.809   2.066   4.659
 5403WAT  OW   21609   0.543   0.736   0.508
 5403WAT  HW1  21610   0.456   0.775   0.502
 5403WAT  HW2  21611   0.541   0.683   0.588
 5403WAT  MW   21612   0.532   0.734   0.518
 5404WAT  OW   21613   4.522   0.431   1.735
 5404WAT  HW1  21614   4.436   0.399   1.706
 5404WAT  HW2  21615   4.517   0.526   1.723
 5404WAT  MW   21616   4.510   0.439   1.730
 5405WAT  OW   21617   1.073   4.612   4.742
 5405WAT  HW1  21618   1.009   4.546   4.768
 5405WAT  HW2  21619   1.149   4.595   4.798
 5405WAT  MW   21620   1.075   4.601   4.753
 5406WAT  OW   21621   2.250   1.095   5.146
 5406WAT  HW1  21622   2.235   1.138   5.230
 5406WAT  HW2  21623   2.322   1.144   5.107
 5406WAT  MW   21624   2.257   1.107   5.152
 5407WAT  OW   21625   2.638   5.406   5.528
 5407WAT  HW1  21626   2.703   5.454   5.476
 5407WAT  HW2  21627   2.645   5.315   5.498
 5407WAT  MW   21628   2.648   5.400   5.517
 5408WAT  OW   21629   2.699   5.298   4.465
 5408WAT  HW1  21630   2.683   5.265   4.554
 5408WAT  HW2  21631   2.683   5.393   4.472
 5408WAT  MW   21632   2.695   5.307   4.478
 5409WAT  OW   21633   2.373   3.856   1.780
 5409WAT  HW1  21634   2.409   3.771   1.806
 5409WAT  HW2  21635   2.282   3.854   1.809
 5409WAT  MW   21636   2.366   3.845   1.787
 5410WAT  OW   21637   4.001   5.567   1.961
 5410WAT  HW1  21638   4.046   5.591   2.043
 5410WAT  HW2  21639   3.980   5.474   1.971
 5410WAT  MW   21640   4.004   5.558   1.973
 5411WAT  OW   21641   0.834   4.614   1.281
 5411WAT  HW1  21642   0.744   4.642   1.297
 5411WAT  HW2  21643   0.831   4.566   1.198
 5411WAT  MW   21644   0.822   4.612   1.272
 5412WAT  OW   21645   1.005   6.336   0.423
 5412WAT  HW1  21646   1.031   6.413   0.473
 5412WAT  HW2  21647   0.959   6.281   0.487
 5412WAT  MW   21648   1.002   6.339   0.438
 5413WAT  OW   21649   5.979   6.099   3.015
 5413WAT  HW1  21650   5.970   6.168   2.950
 5413WAT  HW2  21651   5.909   6.115   3.078
 5413WAT  MW   21652   5.969   6.110   3.015
 5414WAT  OW   21653   4.213   5.292   1.346
 5414WAT  HW1  21654   4.244   5.327   1.429
 5414WAT  HW2  21655   4.252   5.350   1.280
 5414WAT  MW   21656   4.222   5.305   1.348
 5415WAT  OW   21657   2.372   0.639   1.819
 5415WAT  HW1  21658   2.279   0.661   1.816
 5415WAT  HW2  21659   2.378   0.568   1.883
 5415WAT  MW   21660   2.361   0.632   1.827
 5416WAT  OW   21661   4.080   2.123   0.170
 5416WAT  HW1  21662   4.069   2.044   0.117
 5416WAT  HW2  21663   4.007   2.179   0.145
 5416WAT  MW   21664   4.069   2.120   0.160
 5417WAT  OW   21665   0.439   5.687   3.750
 5417WAT  HW1  21666   0.425   5.740   3.672
 5417WAT  HW2  21667   0.511   5.628   3.728
 5417WAT  MW   21668   0.446   5.686   3.737
 5418WAT  OW   21669   4.466   3.449   5.153
 5418WAT  HW1  21670   4.405   3.523   5.149
 5418WAT  HW2  21671   4.543   3.480   5.104
 5418WAT  MW   21672   4.468   3.463   5.146
 5419WAT  OW   21673   2.825   1.535   3.359
 5419WAT  HW1  21674   2.894   1.560   3.297
 5419WAT  HW2  21675   2.773   1.471   3.310
 5419WAT  MW   21676   2.827   1.530   3.344
 5420WAT  OW   21677   0.176   5.233   3.519
 5420WAT  HW1  21678   0.163   5.262   3.429
 5420WAT  HW2  21679   0.088   5.207   3.549
 5420WAT  MW   21680   0.162   5.233   3.511
 5421WAT  OW   21681   0.339   5.371   6.376
 5421WAT  HW1  21682   0.252   5.333   6.363
 5421WAT  HW2  21683   0.346   5.440   6.310
 5421WAT  MW   21684   0.328   5.375   6.366
 5422WAT  OW   21685   0.334   2.799   6.253
 5422WAT  HW1  21686   0.242   2.808   6.228
 5422WAT  HW2  21687   0.381   2.848   6.186
 5422WAT  MW   21688   0.328   2.806   6.241
 5423WAT  OW   21689   4.027   5.518   5.804
 5423WAT  HW1  21690   3.947   5.474   5.776
 5423WAT  HW2  21691   4.089   5.501   5.732
 5423WAT  MW   21692   4.025   5.510   5.791
 5424WAT  OW   21693   1.912   6.071   4.583
 5424WAT  HW1  21694   2.007   6.081   4.579
 5424WAT  HW2  21695   1.878   6.161   4.580
 5424WAT  MW   21696   1.920   6.084   4.582
 5425WAT  OW   21697   2.937   2.070   5.595
 5425WAT  HW1  21698   2.998   2.011   5.637
 5425WAT  HW2  21699   2.916   2.135   5.662
 5425WAT  MW   21700   2.942   2.071   5.609
 5426WAT  OW   21701   3.443   0.035   2.000
 5426WAT  HW1  21702   3.457  -0.047   2.047
 5426WAT  HW2  21703   3.415   0.097   2.067
 5426WAT  MW   21704   3.441   0.033   2.015
 5427WAT  OW   21705   4.249   2.804   5.567
 5427WAT  HW1  21706   4.247   2.739   5.497
 5427WAT  HW2  21707   4.320   2.863   5.543
 5427WAT  MW   21708   4.258   2.803   5.554
 5428WAT  OW   21709   3.905   3.730   6.478
 5428WAT  HW1  21710   3.845   3.803   6.466
 5428WAT  HW2  21711   3.933   3.708   6.389
 5428WAT  MW   21712   3.901   3.736   6.465
 5429WAT  OW   21713   3.218   5.694   4.066
 5429WAT  HW1  21714   3.155   5.727   4.130
 5429WAT  HW2  21715   3.206   5.599   4.067
 5429WAT  MW   21716   3.208   5.686   4.075
 5430WAT  OW   21717   4.271   6.664   5.139
 5430WAT  HW1  21718   4.218   6.656   5.060
 5430WAT  HW2  21719   4.276   6.576   5.175
 5430WAT  MW   21720   4.265   6.652   5.134
 5431WAT  OW   21721   1.869   6.069   5.156
 5431WAT  HW1  21722   1.953   6.108   5.178
 5431WAT  HW2  21723   1.849   6.011   5.230
 5431WAT  MW   21724   1.877   6.066   5.169
 5432WAT  OW   21725   3.905   1.036   6.221
 5432WAT  HW1  21726   3.852   1.052   6.299
 5432WAT  HW2  21727   3.845   0.993   6.160
 5432WAT  MW   21728   3.890   1.032   6.223
 5433WAT  OW   21729   3.950   4.095   5.011
 5433WAT  HW1  21730   3.954   4.036   4.935
 5433WAT  HW2  21731   3.979   4.042   5.085
 5433WAT  MW   21732   3.954   4.080   5.011
 5434WAT  OW   21733   6.366   2.521   2.943
 5434WAT  HW1  21734   6.314   2.515   3.023
 5434WAT  HW2  21735   6.305   2.552   2.876
 5434WAT  MW   21736   6.351   2.524   2.944
 5435WAT  OW   21737   5.724   2.494   4.008
 5435WAT  HW1  21738   5.746   2.532   4.093
 5435WAT  HW2  21739   5.808   2.464   3.973
 5435WAT  MW   21740   5.738   2.495   4.015
 5436WAT  OW   21741   6.364   1.948   6.372
 5436WAT  HW1  21742   6.294   1.893   6.336
 5436WAT  HW2  21743   6.353   1.941   6.467
 5436WAT  MW   21744   6.354   1.940   6.380
 5437WAT  OW   21745   4.837   1.947   4.179
 5437WAT  HW1  21746   4.880   1.879   4.127
 5437WAT  HW2  21747   4.884   2.027   4.160
 5437WAT  MW   21748   4.849   1.948   4.170
 5438WAT  OW   21749   5.247   4.055   2.410
 5438WAT  HW1  21750   5.255   3.996   2.335
 5438WAT  HW2  21751   5.214   4.137   2.373
 5438WAT  MW   21752   5.244   4.058   2.395
 5439WAT  OW   21753   0.767   5.351   6.227
 5439WAT  HW1  21754   0.771   5.432   6.278
 5439WAT  HW2  21755   0.694   5.364   6.167
 5439WAT  MW   21756   0.758   5.363   6.226
 5440WAT  OW   21757   4.726   5.304   3.894
 5440WAT  HW1  21758   4.784   5.339   3.827
 5440WAT  HW2  21759   4.639   5.338   3.870
 5440WAT  MW   21760   4.722   5.313   3.882
 5441WAT  OW   21761   0.752   4.348   6.493
 5441WAT  HW1  21762   0.785   4.416   6.552
 5441WAT  HW2  21763   0.745   4.391   6.408
 5441WAT  MW   21764   0.756   4.363   6.490
 5442WAT  OW   21765   5.783   4.485   4.408
 5442WAT  HW1  21766   5.836   4.541   4.351
 5442WAT  HW2  21767   5.824   4.493   4.494
 5442WAT  MW   21768   5.796   4.494   4.411
 5443WAT  OW   21769   3.203   2.039   4.658
 5443WAT  HW1  21770   3.286   2.078   4.685
 5443WAT  HW2  21771   3.172   2.094   4.587
 5443WAT  MW   21772   3.210   2.051   4.652
 5444WAT  OW   21773   3.524   5.798   2.153
 5444WAT  HW1  21774   3.590   5.768   2.215
 5444WAT  HW2  21775   3.567   5.795   2.068
 5444WAT  MW   21776   3.538   5.794   2.150
 5445WAT  OW   21777   5.015   3.800   5.344
 5445WAT  HW1  21778   4.926   3.828   5.326
 5445WAT  HW2  21779   5.006   3.718   5.393
 5445WAT  MW   21780   5.002   3.793   5.348
 5446WAT  OW   21781   1.056   3.456   2.385
 5446WAT  HW1  21782   1.007   3.475   2.305
 5446WAT  HW2  21783   1.147   3.469   2.361
 5446WAT  MW   21784   1.061   3.460   2.371
 5447WAT  OW   21785   4.223   5.154   4.212
 5447WAT  HW1  21786   4.193   5.063   4.205
 5447WAT  HW2  21787   4.183   5.197   4.136
 5447WAT  MW   21788   4.214   5.147   4.201
 5448WAT  OW   21789   0.614   3.146   5.294
 5448WAT  HW1  21790   0.602   3.059   5.332
 5448WAT  HW2  21791   0.672   3.133   5.219
 5448WAT  MW   21792   0.620   3.133   5.289
 5449WAT  OW   21793   2.012   3.106   3.600
 5449WAT  HW1  21794   1.993   3.124   3.692
 5449WAT  HW2  21795   2.078   3.037   3.602
 5449WAT  MW   21796   2.018   3.099   3.612
 5450WAT  OW   21797   4.189   4.608   1.380
 5450WAT  HW1  21798   4.240   4.560   1.314
 5450WAT  HW2  21799   4.100   4.608   1.345
 5450WAT  MW   21800   4.184   4.601   1.367
 5451WAT  OW   21801   5.614   0.036   2.391
 5451WAT  HW1  21802   5.594   0.117   2.345
 5451WAT  HW2  21803   5.607  -0.032   2.324
 5451WAT  MW   21804   5.610   0.038   2.377
 5452WAT  OW   21805   0.083   2.430   5.539
 5452WAT  HW1  21806   0.149   2.472   5.483
 5452WAT  HW2  21807   0.124   2.423   5.624
 5452WAT  MW   21808   0.097   2.435   5.543
 5453WAT  OW   21809   2.981   0.558   2.065
 5453WAT  HW1  21810   2.890   0.571   2.038
 5453WAT  HW2  21811   3.031   0.613   2.004
 5453WAT  MW   21812   2.975   0.567   2.053
 5454WAT  OW   21813   0.417   5.967   5.783
 5454WAT  HW1  21814   0.321   5.975   5.786
 5454WAT  HW2  21815   0.448   6.057   5.780
 5454WAT  MW   21816   0.408   5.980   5.783
 5455WAT  OW   21817   5.896   3.853   4.709
 5455WAT  HW1  21818   5.864   3.796   4.779
 5455WAT  HW2  21819   5.818   3.900   4.679
 5455WAT  MW   21820   5.882   3.852   4.714
 5456WAT  OW   21821   0.838   6.499   2.373
 5456WAT  HW1  21822   0.880   6.583   2.353
 5456WAT  HW2  21823   0.789   6.477   2.294
 5456WAT  MW   21824   0.837   6.507   2.360
 5457WAT  OW   21825   2.910   3.653   5.343
 5457WAT  HW1  21826   2.962   3.589   5.294
 5457WAT  HW2  21827   2.927   3.633   5.435
 5457WAT  MW   21828   2.919   3.642   5.348
 5458WAT  OW   21829   4.053   3.961   5.232
 5458WAT  HW1  21830   4.014   3.899   5.294
 5458WAT  HW2  21831   4.041   4.046   5.274
 5458WAT  MW   21832   4.046   3.964   5.246
 5459WAT  OW   21833   4.782   4.780   1.616
 5459WAT  HW1  21834   4.849   4.719   1.586
 5459WAT  HW2  21835   4.780   4.769   1.711
 5459WAT  MW   21836   4.791   4.771   1.624
 5460WAT  OW   21837   3.367   0.121   1.142
 5460WAT  HW1  21838   3.370   0.035   1.184
 5460WAT  HW2  21839   3.366   0.102   1.048
 5460WAT  MW   21840   3.367   0.107   1.135
 5461WAT  OW   21841   1.171   4.414   2.879
 5461WAT  HW1  21842   1.076   4.414   2.869
 5461WAT  HW2  21843   1.200   4.333   2.838
 5461WAT  MW   21844   1.162   4.404   2.872
 5462WAT  OW   21845   3.673   4.372   3.191
 5462WAT  HW1  21846   3.649   4.461   3.217
 5462WAT  HW2  21847   3.648   4.366   3.099
 5462WAT  MW   21848   3.667   4.383   3.182
 5463WAT  OW   21849   1.172   0.711   1.646
 5463WAT  HW1  21850   1.096   0.659   1.620
 5463WAT  HW2  21851   1.172   0.709   1.742
 5463WAT  MW   21852   1.162   0.704   1.655
 5464WAT  OW   21853   0.841   6.627   4.347
 5464WAT  HW1  21854   0.773   6.559   4.346
 5464WAT  HW2  21855   0.920   6.581   4.317
 5464WAT  MW   21856   0.843   6.612   4.343
 5465WAT  OW   21857   4.780   2.609   2.512
 5465WAT  HW1  21858   4.826   2.633   2.592
 5465WAT  HW2  21859   4.689   2.634   2.528
 5465WAT  MW   21860   4.774   2.615   2.525
 5466WAT  OW   21861   4.990   1.692   0.225
 5466WAT  HW1  21862   4.936   1.629   0.273
 5466WAT  HW2  21863   4.938   1.772   0.223
 5466WAT  MW   21864   4.976   1.694   0.231
 5467WAT  OW   21865   4.672   5.084   5.680
 5467WAT  HW1  21866   4.638   5.002   5.717
 5467WAT  HW2  21867   4.594   5.134   5.656
 5467WAT  MW   21868   4.657   5.080   5.682
 5468WAT  OW   21869   2.634   4.022   1.789
 5468WAT  HW1  21870   2.681   3.949   1.828
 5468WAT  HW2  21871   2.554   3.982   1.754
 5468WAT  MW   21872   2.629   4.007   1.789
 5469WAT  OW   21873   5.750   5.074   6.040
 5469WAT  HW1  21874   5.794   5.106   5.962
 5469WAT  HW2  21875   5.662   5.113   6.037
 5469WAT  MW   21876   5.744   5.083   6.029
 5470WAT  OW   21877   1.954   6.487   5.385
 5470WAT  HW1  21878   1.879   6.542   5.406
 5470WAT  HW2  21879   2.014   6.500   5.459
 5470WAT  MW   21880   1.952   6.496   5.398
 5471WAT  OW   21881   5.034   1.515   2.481
 5471WAT  HW1  21882   5.045   1.422   2.461
 5471WAT  HW2  21883   5.015   1.517   2.574
 5471WAT  MW   21884   5.033   1.503   2.490
 5472WAT  OW   21885   6.091   4.638   0.720
 5472WAT  HW1  21886   6.016   4.652   0.779
 5472WAT  HW2  21887   6.163   4.616   0.778
 5472WAT  MW   21888   6.090   4.637   0.736
 5473WAT  OW   21889   3.580   2.911   0.794
 5473WAT  HW1  21890   3.559   2.825   0.758
 5473WAT  HW2  21891   3.649   2.945   0.737
 5473WAT  MW   21892   3.586   2.904   0.782
 5474WAT  OW   21893   4.112   2.098   1.090
 5474WAT  HW1  21894   4.131   2.022   1.145
 5474WAT  HW2  21895   4.115   2.173   1.150
 5474WAT  MW   21896   4.115   2.098   1.105
 5475WAT  OW   21897   3.470   5.897   0.334
 5475WAT  HW1  21898   3.529   5.911   0.261
 5475WAT  HW2  21899   3.439   5.807   0.323
 5475WAT  MW   21900   3.473   5.887   0.323
 5476WAT  OW   21901   4.043   3.742   6.234
 5476WAT  HW1  21902   4.058   3.740   6.140
 5476WAT  HW2  21903   4.089   3.665   6.268
 5476WAT  MW   21904   4.051   3.731   6.226
 5477WAT  OW   21905   4.830   0.216   6.533
 5477WAT  HW1  21906   4.901   0.265   6.492
 5477WAT  HW2  21907   4.875   0.150   6.586
 5477WAT  MW   21908   4.846   0.214   6.535
 5478WAT  OW   21909   1.217   3.972   4.068
 5478WAT  HW1  21910   1.127   3.947   4.050
 5478WAT  HW2  21911   1.270   3.909   4.019
 5478WAT  MW   21912   1.212   3.961   4.059
 5479WAT  OW   21913   6.125   5.922   2.341
 5479WAT  HW1  21914   6.057   5.867   2.301
 5479WAT  HW2  21915   6.185   5.860   2.382
 5479WAT  MW   21916   6.124   5.906   2.341
 5480WAT  OW   21917   3.088   5.809   5.238
 5480WAT  HW1  21918   3.008   5.769   5.204
 5480WAT  HW2  21919   3.094   5.894   5.194
 5480WAT  MW   21920   3.079   5.815   5.228
 5481WAT  OW   21921   4.774   1.271   2.741
 5481WAT  HW1  21922   4.773   1.224   2.658
 5481WAT  HW2  21923   4.861   1.253   2.778
 5481WAT  MW   21924   4.786   1.262   2.735
 5482WAT  OW   21925   2.926   4.106   6.498
 5482WAT  HW1  21926   3.008   4.126   6.544
 5482WAT  HW2  21927   2.883   4.042   6.554
 5482WAT  MW   21928   2.931   4.100   6.512
 5483WAT  OW   21929   1.522   6.172   1.857
 5483WAT  HW1  21930   1.549   6.221   1.934
 5483WAT  HW2  21931   1.533   6.233   1.784
 5483WAT  MW   21932   1.527   6.186   1.857
 5484WAT  OW   21933   3.589   6.065   0.795
 5484WAT  HW1  21934   3.629   6.104   0.873
 5484WAT  HW2  21935   3.533   6.135   0.760
 5484WAT  MW   21936   3.587   6.080   0.801
 5485WAT  OW   21937   0.636   0.760   2.774
 5485WAT  HW1  21938   0.603   0.772   2.863
 5485WAT  HW2  21939   0.641   0.848   2.738
 5485WAT  MW   21940   0.632   0.773   2.781
 5486WAT  OW   21941   1.586   0.453   4.583
 5486WAT  HW1  21942   1.526   0.490   4.647
 5486WAT  HW2  21943   1.574   0.358   4.590
 5486WAT  MW   21944   1.577   0.445   4.593
 5487WAT  OW   21945   2.411   2.390   5.281
 5487WAT  HW1  21946   2.398   2.437   5.199
 5487WAT  HW2  21947   2.440   2.457   5.343
 5487WAT  MW   21948   2.413   2.405   5.278
 5488WAT  OW   21949   0.615   5.108   6.408
 5488WAT  HW1  21950   0.679   5.115   6.479
 5488WAT  HW2  21951   0.633   5.184   6.353
 5488WAT  MW   21952   0.626   5.119   6.410
 5489WAT  OW   21953   5.169   2.778   4.746
 5489WAT  HW1  21954   5.073   2.774   4.739
 5489WAT  HW2  21955   5.186   2.789   4.840
 5489WAT  MW   21956   5.158   2.779   4.758
 5490WAT  OW   21957   5.374   1.865   0.191
 5490WAT  HW1  21958   5.466   1.881   0.209
 5490WAT  HW2  21959   5.354   1.783   0.237
 5490WAT  MW   21960   5.384   1.856   0.199
 5491WAT  OW   21961   1.508   3.693   2.145
 5491WAT  HW1  21962   1.442   3.717   2.209
 5491WAT  HW2  21963   1.575   3.761   2.153
 5491WAT  MW   21964   1.508   3.705   2.155
 5492WAT  OW   21965   2.539   0.670   3.424
 5492WAT  HW1  21966   2.629   0.643   3.442
 5492WAT  HW2  21967   2.509   0.610   3.357
 5492WAT  MW   21968   2.547   0.658   3.418
 5493WAT  OW   21969   3.718   5.424   2.166
 5493WAT  HW1  21970   3.624   5.429   2.183
 5493WAT  HW2  21971   3.752   5.362   2.230
 5493WAT  MW   21972   3.710   5.417   2.176
 5494WAT  OW   21973   2.789   0.458   6.556
 5494WAT  HW1  21974   2.780   0.463   6.651
 5494WAT  HW2  21975   2.707   0.495   6.522
 5494WAT  MW   21976   2.777   0.464   6.564
 5495WAT  OW   21977   1.281   3.053   6.554
 5495WAT  HW1  21978   1.243   3.131   6.594
 5495WAT  HW2  21979   1.246   3.052   6.465
 5495WAT  MW   21980   1.271   3.063   6.548
 5496WAT  OW   21981   0.565   3.779   0.459
 5496WAT  HW1  21982   0.660   3.781   0.473
 5496WAT  HW2  21983   0.550   3.845   0.391
 5496WAT  MW   21984   0.576   3.788   0.451
 5497WAT  OW   21985   4.069   4.000   6.340
 5497WAT  HW1  21986   4.068   3.909   6.311
 5497WAT  HW2  21987   4.116   3.998   6.424
 5497WAT  MW   21988   4.075   3.988   6.347
 5498WAT  OW   21989   5.570   3.054   6.579
 5498WAT  HW1  21990   5.564   2.959   6.574
 5498WAT  HW2  21991   5.646   3.076   6.524
 5498WAT  MW   21992   5.580   3.045   6.571
 5499WAT  OW   21993   0.371   6.443   0.576
 5499WAT  HW1  21994   0.390   6.503   0.504
 5499WAT  HW2  21995   0.310   6.379   0.538
 5499WAT  MW   21996   0.365   6.443   0.562
 5500WAT  OW   21997   3.172   5.609   3.669
 5500WAT  HW1  21998   3.136   5.635   3.584
 5500WAT  HW2  21999   3.130   5.524   3.687
 5500WAT  MW   22000   3.162   5.601   3.660
 5501WAT  OW   22001   5.165   4.066   5.373
 5501WAT  HW1  22002   5.158   3.971   5.369
 5501WAT  HW2  22003   5.230   4.082   5.442
 5501WAT  MW   22004   5.173   4.056   5.382
 5502WAT  OW   22005   5.704   4.517   3.269
 5502WAT  HW1  22006   5.766   4.448   3.293
 5502WAT  HW2  22007   5.737   4.550   3.185
 5502WAT  MW   22008   5.717   4.512   3.261
 5503WAT  OW   22009   4.738   5.379   5.761
 5503WAT  HW1  22010   4.644   5.360   5.759
 5503WAT  HW2  22011   4.749   5.440   5.834
 5503WAT  MW   22012   4.727   5.384   5.770
 5504WAT  OW   22013   4.077   3.071   2.166
 5504WAT  HW1  22014   3.997   3.118   2.188
 5504WAT  HW2  22015   4.110   3.115   2.088
 5504WAT  MW   22016   4.071   3.083   2.159
 5505WAT  OW   22017   5.785   2.511   2.247
 5505WAT  HW1  22018   5.798   2.557   2.163
 5505WAT  HW2  22019   5.713   2.451   2.230
 5505WAT  MW   22020   5.777   2.509   2.233
 5506WAT  OW   22021   1.601   3.633   1.482
 5506WAT  HW1  22022   1.640   3.719   1.498
 5506WAT  HW2  22023   1.522   3.633   1.535
 5506WAT  MW   22024   1.596   3.645   1.491
 5507WAT  OW   22025   2.952   1.673   0.554
 5507WAT  HW1  22026   2.897   1.683   0.631
 5507WAT  HW2  22027   3.038   1.648   0.589
 5507WAT  MW   22028   2.956   1.671   0.569
 5508WAT  OW   22029   4.970   1.929   6.630
 5508WAT  HW1  22030   4.958   1.837   6.653
 5508WAT  HW2  22031   5.064   1.945   6.642
 5508WAT  MW   22032   4.981   1.919   6.634
 5509WAT  OW   22033   2.449   5.162   5.157
 5509WAT  HW1  22034   2.365   5.136   5.119
 5509WAT  HW2  22035   2.438   5.254   5.178
 5509WAT  MW   22036   2.436   5.171   5.155
 5510WAT  OW   22037   1.967   1.763   0.911
 5510WAT  HW1  22038   2.004   1.696   0.969
 5510WAT  HW2  22039   1.910   1.715   0.851
 5510WAT  MW   22040   1.964   1.748   0.911
 5511WAT  OW   22041   0.890   2.441   0.434
 5511WAT  HW1  22042   0.944   2.485   0.500
 5511WAT  HW2  22043   0.824   2.506   0.410
 5511WAT  MW   22044   0.888   2.455   0.440
 5512WAT  OW   22045   1.442   4.826   0.161
 5512WAT  HW1  22046   1.467   4.845   0.070
 5512WAT  HW2  22047   1.515   4.775   0.196
 5512WAT  MW   22048   1.455   4.821   0.153
 5513WAT  OW   22049   4.339   4.640   0.356
 5513WAT  HW1  22050   4.414   4.614   0.411
 5513WAT  HW2  22051   4.295   4.708   0.407
 5513WAT  MW   22052   4.343   4.645   0.370
 5514WAT  OW   22053   4.607   4.698   2.095
 5514WAT  HW1  22054   4.521   4.675   2.062
 5514WAT  HW2  22055   4.643   4.616   2.128
 5514WAT  MW   22056   4.601   4.684   2.095
 5515WAT  OW   22057   5.317   2.451   4.322
 5515WAT  HW1  22058   5.261   2.450   4.244
 5515WAT  HW2  22059   5.340   2.543   4.334
 5515WAT  MW   22060   5.313   2.463   4.313
 5516WAT  OW   22061   0.388   3.504   4.729
 5516WAT  HW1  22062   0.321   3.485   4.794
 5516WAT  HW2  22063   0.394   3.425   4.676
 5516WAT  MW   22064   0.380   3.491   4.730
 5517WAT  OW   22065   5.335   2.181   1.029
 5517WAT  HW1  22066   5.352   2.274   1.043
 5517WAT  HW2  22067   5.297   2.176   0.941
 5517WAT  MW   22068   5.332   2.193   1.020
 5518WAT  OW   22069   0.696   2.526   3.839
 5518WAT  HW1  22070   0.666   2.436   3.829
 5518WAT  HW2  22071   0.638   2.562   3.906
 5518WAT  MW   22072   0.684   2.519   3.847
 5519WAT  OW   22073   0.022   3.187   0.126
 5519WAT  HW1  22074   0.049   3.276   0.148
 5519WAT  HW2  22075  -0.066   3.198   0.089
 5519WAT  MW   22076   0.014   3.200   0.124
 5520WAT  OW   22077   5.513   1.647   1.920
 5520WAT  HW1  22078   5.450   1.617   1.854
 5520WAT  HW2  22079   5.541   1.733   1.889
 5520WAT  MW   22080   5.509   1.654   1.907
 5521WAT  OW   22081   0.341   5.946   2.444
 5521WAT  HW1  22082   0.388   5.932   2.362
 5521WAT  HW2  22083   0.379   5.883   2.505
 5521WAT  MW   22084   0.352   5.936   2.441
 5522WAT  OW   22085   4.346   2.125   0.278
 5522WAT  HW1  22086   4.254   2.152   0.268
 5522WAT  HW2  22087   4.341   2.033   0.304
 5522WAT  MW   22088   4.333   2.116   0.280
 5523WAT  OW   22089   3.979   4.693   1.218
 5523WAT  HW1  22090   3.953   4.700   1.310
 5523WAT  HW2  22091   4.026   4.774   1.200
 5523WAT  MW   22092   3.982   4.705   1.228
 5524WAT  OW   22093   5.730   0.470   0.928
 5524WAT  HW1  22094   5.714   0.565   0.933
 5524WAT  HW2  22095   5.683   0.434   1.003
 5524WAT  MW   22096   5.721   0.478   0.938
 5525WAT  OW   22097   1.326   4.027   1.140
 5525WAT  HW1  22098   1.350   3.975   1.063
 5525WAT  HW2  22099   1.236   4.056   1.122
 5525WAT  MW   22100   1.317   4.024   1.127
 5526WAT  OW   22101   5.575   5.039   1.794
 5526WAT  HW1  22102   5.589   5.030   1.700
 5526WAT  HW2  22103   5.640   4.982   1.834
 5526WAT  MW   22104   5.585   5.030   1.787
 5527WAT  OW   22105   4.224   0.776   1.712
 5527WAT  HW1  22106   4.229   0.868   1.688
 5527WAT  HW2  22107   4.165   0.774   1.788
 5527WAT  MW   22108   4.217   0.788   1.719
 5528WAT  OW   22109   4.565   6.129   0.178
 5528WAT  HW1  22110   4.621   6.054   0.198
 5528WAT  HW2  22111   4.500   6.129   0.248
 5528WAT  MW   22112   4.564   6.119   0.190
 5529WAT  OW   22113   6.517   3.905   3.788
 5529WAT  HW1  22114   6.563   3.987   3.768
 5529WAT  HW2  22115   6.518   3.899   3.883
 5529WAT  MW   22116   6.523   3.915   3.798
 5530WAT  OW   22117   6.686   4.545   0.927
 5530WAT  HW1  22118   6.693   4.640   0.919
 5530WAT  HW2  22119   6.630   4.531   1.004
 5530WAT  MW   22120   6.680   4.556   0.936
 5531WAT  OW   22121   0.941   0.771   0.160
 5531WAT  HW1  22122   0.918   0.700   0.220
 5531WAT  HW2  22123   1.036   0.778   0.167
 5531WAT  MW   22124   0.951   0.763   0.169
 5532WAT  OW   22125   4.061   3.974   0.684
 5532WAT  HW1  22126   3.966   3.988   0.689
 5532WAT  HW2  22127   4.074   3.929   0.601
 5532WAT  MW   22128   4.050   3.970   0.674
 5533WAT  OW   22129   0.549   1.513   1.708
 5533WAT  HW1  22130   0.549   1.586   1.770
 5533WAT  HW2  22131   0.481   1.454   1.739
 5533WAT  MW   22132   0.540   1.515   1.720
 5534WAT  OW   22133   5.177   2.125   5.587
 5534WAT  HW1  22134   5.125   2.170   5.521
 5534WAT  HW2  22135   5.253   2.091   5.538
 5534WAT  MW   22136   5.180   2.126   5.572
 5535WAT  OW   22137   3.898   1.659   2.473
 5535WAT  HW1  22138   3.968   1.700   2.423
 5535WAT  HW2  22139   3.942   1.591   2.525
 5535WAT  MW   22140   3.913   1.655   2.474
 5536WAT  OW   22141   6.133   4.654   3.997
 5536WAT  HW1  22142   6.224   4.624   3.994
 5536WAT  HW2  22143   6.093   4.617   3.918
 5536WAT  MW   22144   6.140   4.645   3.986
 5537WAT  OW   22145   1.922   1.724   4.427
 5537WAT  HW1  22146   1.966   1.788   4.371
 5537WAT  HW2  22147   1.987   1.655   4.441
 5537WAT  MW   22148   1.937   1.723   4.422
 5538WAT  OW   22149   3.033   4.133   5.931
 5538WAT  HW1  22150   3.036   4.137   6.027
 5538WAT  HW2  22151   3.067   4.218   5.902
 5538WAT  MW   22152   3.038   4.145   5.940
 5539WAT  OW   22153   2.960   5.331   1.633
 5539WAT  HW1  22154   3.032   5.390   1.613
 5539WAT  HW2  22155   2.994   5.244   1.613
 5539WAT  MW   22156   2.974   5.327   1.627
 5540WAT  OW   22157   0.880   4.012   3.309
 5540WAT  HW1  22158   0.862   3.921   3.332
 5540WAT  HW2  22159   0.810   4.037   3.249
 5540WAT  MW   22160   0.869   4.003   3.304
 5541WAT  OW   22161   4.801   6.212   3.126
 5541WAT  HW1  22162   4.724   6.204   3.070
 5541WAT  HW2  22163   4.863   6.148   3.091
 5541WAT  MW   22164   4.799   6.203   3.114
 5542WAT  OW   22165   6.391   5.743   1.913
 5542WAT  HW1  22166   6.441   5.820   1.887
 5542WAT  HW2  22167   6.299   5.770   1.907
 5542WAT  MW   22168   6.385   5.756   1.909
 5543WAT  OW   22169   0.922   1.100   2.742
 5543WAT  HW1  22170   0.901   1.190   2.717
 5543WAT  HW2  22171   0.921   1.100   2.838
 5543WAT  MW   22172   0.919   1.112   2.751
 5544WAT  OW   22173   3.748   3.419   5.936
 5544WAT  HW1  22174   3.665   3.398   5.893
 5544WAT  HW2  22175   3.770   3.506   5.905
 5544WAT  MW   22176   3.740   3.427   5.926
 5545WAT  OW   22177   1.803   0.184   6.683
 5545WAT  HW1  22178   1.772   0.223   6.601
 5545WAT  HW2  22179   1.863   0.250   6.719
 5545WAT  MW   22180   1.807   0.198   6.677
 5546WAT  OW   22181   6.042   0.549   6.368
 5546WAT  HW1  22182   6.070   0.559   6.277
 5546WAT  HW2  22183   6.082   0.466   6.396
 5546WAT  MW   22184   6.051   0.539   6.360
 5547WAT  OW   22185   5.564   3.925   3.249
 5547WAT  HW1  22186   5.616   3.950   3.325
 5547WAT  HW2  22187   5.578   3.831   3.239
 5547WAT  MW   22188   5.573   3.916   3.257
 5548WAT  OW   22189   4.751   6.569   1.379
 5548WAT  HW1  22190   4.729   6.628   1.451
 5548WAT  HW2  22191   4.838   6.536   1.401
 5548WAT  MW   22192   4.759   6.572   1.392
 5549WAT  OW   22193   1.049   1.376   0.344
 5549WAT  HW1  22194   1.100   1.305   0.304
 5549WAT  HW2  22195   0.964   1.336   0.363
 5549WAT  MW   22196   1.045   1.361   0.341
 5550WAT  OW   22197   6.557   4.046   2.013
 5550WAT  HW1  22198   6.472   4.085   2.038
 5550WAT  HW2  22199   6.613   4.122   1.997
 5550WAT  MW   22200   6.553   4.061   2.015
 5551WAT  OW   22201   5.797   2.347   0.814
 5551WAT  HW1  22202   5.771   2.260   0.785
 5551WAT  HW2  22203   5.830   2.334   0.903
 5551WAT  MW   22204   5.798   2.334   0.822
 5552WAT  OW   22205   1.000   4.442   1.629
 5552WAT  HW1  22206   1.069   4.455   1.563
 5552WAT  HW2  22207   0.922   4.422   1.578
 5552WAT  MW   22208   0.999   4.441   1.614
 5553WAT  OW   22209   4.116   5.426   2.411
 5553WAT  HW1  22210   4.025   5.401   2.422
 5553WAT  HW2  22211   4.163   5.344   2.399
 5553WAT  MW   22212   4.110   5.412   2.411
 5554WAT  OW   22213   1.817   2.728   6.689
 5554WAT  HW1  22214   1.745   2.746   6.750
 5554WAT  HW2  22215   1.776   2.733   6.603
 5554WAT  MW   22216   1.802   2.731   6.686
 5555WAT  OW   22217   2.105   0.053   0.218
 5555WAT  HW1  22218   2.012   0.056   0.194
 5555WAT  HW2  22219   2.104   0.044   0.313
 5555WAT  MW   22220   2.092   0.052   0.228
 5556WAT  OW   22221   4.380   4.943   0.342
 5556WAT  HW1  22222   4.445   4.962   0.409
 5556WAT  HW2  22223   4.431   4.918   0.265
 5556WAT  MW   22224   4.395   4.942   0.341
 5557WAT  OW   22225   4.202   2.117   4.183
 5557WAT  HW1  22226   4.256   2.085   4.111
 5557WAT  HW2  22227   4.115   2.078   4.166
 5557WAT  MW   22228   4.197   2.107   4.171
 5558WAT  OW   22229   0.677   6.378   5.119
 5558WAT  HW1  22230   0.771   6.393   5.119
 5558WAT  HW2  22231   0.640   6.457   5.078
 5558WAT  MW   22232   0.684   6.390   5.114
 5559WAT  OW   22233   3.076   2.664   3.268
 5559WAT  HW1  22234   3.136   2.698   3.334
 5559WAT  HW2  22235   3.089   2.569   3.272
 5559WAT  MW   22236   3.086   2.656   3.277
 5560WAT  OW   22237   6.569   3.769   2.217
 5560WAT  HW1  22238   6.633   3.839   2.206
 5560WAT  HW2  22239   6.490   3.813   2.248
 5560WAT  MW   22240   6.567   3.784   2.220
 5561WAT  OW   22241   5.391   1.819   0.520
 5561WAT  HW1  22242   5.405   1.790   0.610
 5561WAT  HW2  22243   5.388   1.738   0.469
 5561WAT  MW   22244   5.392   1.804   0.525
 5562WAT  OW   22245   3.451   3.784   2.941
 5562WAT  HW1  22246   3.390   3.731   2.889
 5562WAT  HW2  22247   3.530   3.789   2.886
 5562WAT  MW   22248   3.454   3.778   2.927
 5563WAT  OW   22249   5.467   0.906   5.299
 5563WAT  HW1  22250   5.550   0.944   5.270
 5563WAT  HW2  22251   5.448   0.951   5.381
 5563WAT  MW   22252   5.475   0.917   5.306
 5564WAT  OW   22253   3.585   6.141   5.945
 5564WAT  HW1  22254   3.518   6.209   5.945
 5564WAT  HW2  22255   3.543   6.066   5.988
 5564WAT  MW   22256   3.570   6.140   5.951
 5565WAT  OW   22257   3.313   3.908   4.140
 5565WAT  HW1  22258   3.352   3.950   4.063
 5565WAT  HW2  22259   3.338   3.965   4.213
 5565WAT  MW   22260   3.322   3.921   4.140
 5566WAT  OW   22261   2.914   4.309   0.939
 5566WAT  HW1  22262   2.967   4.357   0.875
 5566WAT  HW2  22263   2.973   4.242   0.973
 5566WAT  MW   22264   2.929   4.307   0.935
 5567WAT  OW   22265   3.801   5.332   3.052
 5567WAT  HW1  22266   3.860   5.332   3.128
 5567WAT  HW2  22267   3.819   5.248   3.009
 5567WAT  MW   22268   3.811   5.321   3.056
 5568WAT  OW   22269   2.860   2.287   5.740
 5568WAT  HW1  22270   2.782   2.278   5.795
 5568WAT  HW2  22271   2.932   2.293   5.802
 5568WAT  MW   22272   2.859   2.287   5.756
 5569WAT  OW   22273   6.070   4.970   5.434
 5569WAT  HW1  22274   6.043   4.917   5.509
 5569WAT  HW2  22275   6.165   4.976   5.442
 5569WAT  MW   22276   6.079   4.964   5.445
 5570WAT  OW   22277   3.468   4.125   2.901
 5570WAT  HW1  22278   3.435   4.049   2.853
 5570WAT  HW2  22279   3.473   4.095   2.992
 5570WAT  MW   22280   3.464   4.111   2.907
 5571WAT  OW   22281   0.211   1.034   2.631
 5571WAT  HW1  22282   0.255   0.950   2.619
 5571WAT  HW2  22283   0.281   1.093   2.660
 5571WAT  MW   22284   0.226   1.030   2.633
 5572WAT  OW   22285   3.923   5.926   2.878
 5572WAT  HW1  22286   4.015   5.940   2.900
 5572WAT  HW2  22287   3.902   5.994   2.814
 5572WAT  MW   22288   3.932   5.937   2.873
 5573WAT  OW   22289   4.462   4.022   5.382
 5573WAT  HW1  22290   4.525   3.969   5.431
 5573WAT  HW2  22291   4.376   3.993   5.415
 5573WAT  MW   22292   4.459   4.011   5.393
 5574WAT  OW   22293   1.335   1.196   6.608
 5574WAT  HW1  22294   1.370   1.261   6.547
 5574WAT  HW2  22295   1.379   1.114   6.584
 5574WAT  MW   22296   1.345   1.194   6.597
 5575WAT  OW   22297   5.477   1.718   6.533
 5575WAT  HW1  22298   5.565   1.680   6.537
 5575WAT  HW2  22299   5.491   1.811   6.552
 5575WAT  MW   22300   5.491   1.726   6.536
 5576WAT  OW   22301   5.859   6.491   3.578
 5576WAT  HW1  22302   5.863   6.425   3.509
 5576WAT  HW2  22303   5.804   6.451   3.645
 5576WAT  MW   22304   5.852   6.477   3.578
 5577WAT  OW   22305   1.337   5.707   3.686
 5577WAT  HW1  22306   1.337   5.624   3.638
 5577WAT  HW2  22307   1.425   5.711   3.724
 5577WAT  MW   22308   1.349   5.696   3.684
 5578WAT  OW   22309   1.590   5.524   2.367
 5578WAT  HW1  22310   1.525   5.590   2.343
 5578WAT  HW2  22311   1.672   5.557   2.330
 5578WAT  MW   22312   1.592   5.537   2.359
 5579WAT  OW   22313   5.642   6.032   1.597
 5579WAT  HW1  22314   5.701   6.108   1.599
 5579WAT  HW2  22315   5.691   5.965   1.550
 5579WAT  MW   22316   5.656   6.034   1.591
 5580WAT  OW   22317   3.399   4.472   3.837
 5580WAT  HW1  22318   3.414   4.551   3.786
 5580WAT  HW2  22319   3.422   4.496   3.927
 5580WAT  MW   22320   3.404   4.485   3.842
 5581WAT  OW   22321   5.350   5.236   3.836
 5581WAT  HW1  22322   5.444   5.248   3.822
 5581WAT  HW2  22323   5.319   5.197   3.754
 5581WAT  MW   22324   5.358   5.233   3.823
 5582WAT  OW   22325   0.567   1.336   0.897
 5582WAT  HW1  22326   0.565   1.414   0.952
 5582WAT  HW2  22327   0.479   1.331   0.859
 5582WAT  MW   22328   0.555   1.346   0.900
 5583WAT  OW   22329   4.860   2.580   0.651
 5583WAT  HW1  22330   4.918   2.639   0.603
 5583WAT  HW2  22331   4.793   2.555   0.587
 5583WAT  MW   22332   4.858   2.585   0.636
 5584WAT  OW   22333   3.553   5.263   6.614
 5584WAT  HW1  22334   3.509   5.194   6.565
 5584WAT  HW2  22335   3.644   5.259   6.583
 5584WAT  MW   22336   3.559   5.254   6.603
 5585WAT  OW   22337   1.234   4.829   4.565
 5585WAT  HW1  22338   1.195   4.757   4.614
 5585WAT  HW2  22339   1.307   4.789   4.517
 5585WAT  MW   22340   1.239   4.815   4.565
 5586WAT  OW   22341   4.323   5.342   1.605
 5586WAT  HW1  22342   4.298   5.431   1.631
 5586WAT  HW2  22343   4.293   5.287   1.678
 5586WAT  MW   22344   4.316   5.347   1.618
 5587WAT  OW   22345   0.894   5.250   3.220
 5587WAT  HW1  22346   0.875   5.334   3.177
 5587WAT  HW2  22347   0.938   5.274   3.301
 5587WAT  MW   22348   0.897   5.264   3.225
 5588WAT  OW   22349   5.104   2.981   3.569
 5588WAT  HW1  22350   5.108   2.941   3.656
 5588WAT  HW2  22351   5.193   2.972   3.534
 5588WAT  MW   22352   5.116   2.974   3.575
 5589WAT  OW   22353   0.798   1.191   0.944
 5589WAT  HW1  22354   0.836   1.199   0.857
 5589WAT  HW2  22355   0.713   1.235   0.938
 5589WAT  MW   22356   0.792   1.198   0.932
 5590WAT  OW   22357   6.335   6.272   2.984
 5590WAT  HW1  22358   6.305   6.201   3.041
 5590WAT  HW2  22359   6.430   6.257   2.977
 5590WAT  MW   22360   6.344   6.260   2.991
 5591WAT  OW   22361   4.750   1.513   3.681
 5591WAT  HW1  22362   4.836   1.524   3.722
 5591WAT  HW2  22363   4.689   1.547   3.746
 5591WAT  MW   22364   4.754   1.519   3.695
 5592WAT  OW   22365   4.211   3.503   5.424
 5592WAT  HW1  22366   4.232   3.574   5.363
 5592WAT  HW2  22367   4.286   3.444   5.420
 5592WAT  MW   22368   4.223   3.505   5.415
 5593WAT  OW   22369   2.323   6.303   4.174
 5593WAT  HW1  22370   2.276   6.231   4.216
 5593WAT  HW2  22371   2.260   6.375   4.171
 5593WAT  MW   22372   2.309   6.303   4.179
 5594WAT  OW   22373   6.351   5.476   5.366
 5594WAT  HW1  22374   6.258   5.478   5.388
 5594WAT  HW2  22375   6.366   5.557   5.317
 5594WAT  MW   22376   6.341   5.487   5.362
 5595WAT  OW   22377   0.261   0.106   1.874
 5595WAT  HW1  22378   0.287   0.077   1.961
 5595WAT  HW2  22379   0.177   0.149   1.888
 5595WAT  MW   22380   0.253   0.108   1.887
 5596WAT  OW   22381   0.149   3.156   5.202
 5596WAT  HW1  22382   0.107   3.221   5.258
 5596WAT  HW2  22383   0.242   3.173   5.210
 5596WAT  MW   22384   0.156   3.167   5.210
 5597WAT  OW   22385   4.738   1.652   1.886
 5597WAT  HW1  22386   4.726   1.613   1.799
 5597WAT  HW2  22387   4.730   1.746   1.872
 5597WAT  MW   22388   4.735   1.659   1.872
 5598WAT  OW   22389   4.238   6.182   3.414
 5598WAT  HW1  22390   4.266   6.187   3.506
 5598WAT  HW2  22391   4.186   6.102   3.409
 5598WAT  MW   22392   4.235   6.172   3.426
 5599WAT  OW   22393   0.500   5.233   1.949
 5599WAT  HW1  22394   0.552   5.167   1.994
 5599WAT  HW2  22395   0.412   5.196   1.943
 5599WAT  MW   22396   0.495   5.220   1.954
 5600WAT  OW   22397   3.205   4.977   0.276
 5600WAT  HW1  22398   3.113   5.002   0.267
 5600WAT  HW2  22399   3.204   4.881   0.271
 5600WAT  MW   22400   3.192   4.968   0.274
 5601WAT  OW   22401   6.230   2.417   3.662
 5601WAT  HW1  22402   6.212   2.450   3.750
 5601WAT  HW2  22403   6.202   2.487   3.604
 5601WAT  MW   22404   6.224   2.431   3.666
 5602WAT  OW   22405   0.890   2.407   2.562
 5602WAT  HW1  22406   0.955   2.343   2.534
 5602WAT  HW2  22407   0.940   2.484   2.587
 5602WAT  MW   22408   0.905   2.409   2.562
 5603WAT  OW   22409   3.249   5.957   0.485
 5603WAT  HW1  22410   3.196   5.878   0.477
 5603WAT  HW2  22411   3.311   5.951   0.412
 5603WAT  MW   22412   3.250   5.946   0.474
 5604WAT  OW   22413   4.476   0.826   1.937
 5604WAT  HW1  22414   4.400   0.771   1.920
 5604WAT  HW2  22415   4.441   0.915   1.946
 5604WAT  MW   22416   4.461   0.830   1.936
 5605WAT  OW   22417   2.762   2.764   6.678
 5605WAT  HW1  22418   2.696   2.728   6.619
 5605WAT  HW2  22419   2.843   2.721   6.651
 5605WAT  MW   22420   2.764   2.754   6.667
 5606WAT  OW   22421   4.990   1.968   3.569
 5606WAT  HW1  22422   5.005   1.961   3.663
 5606WAT  HW2  22423   5.007   1.880   3.536
 5606WAT  MW   22424   4.994   1.955   3.577
 5607WAT  OW   22425   3.278   2.575   1.233
 5607WAT  HW1  22426   3.277   2.538   1.145
 5607WAT  HW2  22427   3.368   2.605   1.245
 5607WAT  MW   22428   3.290   2.574   1.223
 5608WAT  OW   22429   5.331   5.235   4.722
 5608WAT  HW1  22430   5.346   5.239   4.628
 5608WAT  HW2  22431   5.244   5.195   4.731
 5608WAT  MW   22432   5.321   5.230   4.711
 5609WAT  OW   22433   2.352   2.444   4.836
 5609WAT  HW1  22434   2.355   2.348   4.839
 5609WAT  HW2  22435   2.408   2.467   4.762
 5609WAT  MW   22436   2.360   2.434   4.827
 5610WAT  OW   22437   4.753   2.344   5.748
 5610WAT  HW1  22438   4.805   2.391   5.683
 5610WAT  HW2  22439   4.792   2.369   5.832
 5610WAT  MW   22440   4.765   2.354   5.751
 5611WAT  OW   22441   1.529   5.822   4.075
 5611WAT  HW1  22442   1.503   5.889   4.013
 5611WAT  HW2  22443   1.451   5.808   4.129
 5611WAT  MW   22444   1.515   5.829   4.074
 5612WAT  OW   22445   6.560   6.325   0.928
 5612WAT  HW1  22446   6.567   6.251   0.989
 5612WAT  HW2  22447   6.483   6.305   0.875
 5612WAT  MW   22448   6.551   6.313   0.929
 5613WAT  OW   22449   2.603   5.590   0.562
 5613WAT  HW1  22450   2.686   5.595   0.514
 5613WAT  HW2  22451   2.536   5.614   0.497
 5613WAT  MW   22452   2.605   5.594   0.547
 5614WAT  OW   22453   2.039   2.975   2.900
 5614WAT  HW1  22454   1.992   2.964   2.982
 5614WAT  HW2  22455   2.075   3.064   2.905
 5614WAT  MW   22456   2.038   2.985   2.911
 5615WAT  OW   22457   4.693   4.819   5.783
 5615WAT  HW1  22458   4.640   4.767   5.844
 5615WAT  HW2  22459   4.779   4.776   5.784
 5615WAT  MW   22460   4.697   4.806   5.791
 5616WAT  OW   22461   4.338   3.574   4.781
 5616WAT  HW1  22462   4.379   3.522   4.712
 5616WAT  HW2  22463   4.249   3.540   4.787
 5616WAT  MW   22464   4.332   3.562   4.773
 5617WAT  OW   22465   3.851   3.901   1.227
 5617WAT  HW1  22466   3.892   3.948   1.154
 5617WAT  HW2  22467   3.915   3.905   1.298
 5617WAT  MW   22468   3.865   3.908   1.227
 5618WAT  OW   22469   2.481   2.773   6.006
 5618WAT  HW1  22470   2.500   2.764   6.100
 5618WAT  HW2  22471   2.557   2.819   5.971
 5618WAT  MW   22472   2.493   2.778   6.014
 5619WAT  OW   22473   0.813   0.150   5.941
 5619WAT  HW1  22474   0.825   0.109   5.856
 5619WAT  HW2  22475   0.857   0.234   5.934
 5619WAT  MW   22476   0.821   0.155   5.929
 5620WAT  OW   22477   4.801   3.101   5.981
 5620WAT  HW1  22478   4.806   3.051   6.063
 5620WAT  HW2  22479   4.887   3.091   5.942
 5620WAT  MW   22480   4.813   3.093   5.987
 5621WAT  OW   22481   2.085   2.095   3.151
 5621WAT  HW1  22482   1.991   2.079   3.149
 5621WAT  HW2  22483   2.116   2.068   3.064
 5621WAT  MW   22484   2.077   2.089   3.139
 5622WAT  OW   22485   4.749   4.208   5.371
 5622WAT  HW1  22486   4.685   4.216   5.441
 5622WAT  HW2  22487   4.833   4.204   5.416
 5622WAT  MW   22488   4.752   4.208   5.386
 5623WAT  OW   22489   4.257   2.926   4.818
 5623WAT  HW1  22490   4.315   2.851   4.821
 5623WAT  HW2  22491   4.178   2.894   4.774
 5623WAT  MW   22492   4.254   2.912   4.813
 5624WAT  OW   22493   1.093   6.389   2.259
 5624WAT  HW1  22494   1.048   6.447   2.198
 5624WAT  HW2  22495   1.061   6.302   2.238
 5624WAT  MW   22496   1.083   6.385   2.249
 5625WAT  OW   22497   5.360   2.508   0.858
 5625WAT  HW1  22498   5.339   2.456   0.780
 5625WAT  HW2  22499   5.413   2.450   0.913
 5625WAT  MW   22500   5.364   2.494   0.855
 5626WAT  OW   22501   2.370   6.033   1.488
 5626WAT  HW1  22502   2.359   5.940   1.465
 5626WAT  HW2  22503   2.446   6.061   1.437
 5626WAT  MW   22504   2.379   6.024   1.478
 5627WAT  OW   22505   0.072   4.693   4.005
 5627WAT  HW1  22506   0.024   4.662   4.082
 5627WAT  HW2  22507   0.031   4.777   3.983
 5627WAT  MW   22508   0.060   4.700   4.012
 5628WAT  OW   22509   4.910   4.392   0.998
 5628WAT  HW1  22510   4.952   4.309   0.976
 5628WAT  HW2  22511   4.928   4.449   0.923
 5628WAT  MW   22512   4.918   4.389   0.985
 5629WAT  OW   22513   0.220   0.180   4.480
 5629WAT  HW1  22514   0.301   0.185   4.531
 5629WAT  HW2  22515   0.162   0.243   4.521
 5629WAT  MW   22516   0.223   0.189   4.492
 5630WAT  OW   22517   6.617   3.917   5.685
 5630WAT  HW1  22518   6.600   3.881   5.772
 5630WAT  HW2  22519   6.684   3.858   5.648
 5630WAT  MW   22520   6.624   3.904   5.691
 5631WAT  OW   22521   4.840   1.756   4.726
 5631WAT  HW1  22522   4.806   1.843   4.746
 5631WAT  HW2  22523   4.801   1.733   4.642
 5631WAT  MW   22524   4.831   1.765   4.718
 5632WAT  OW   22525   2.285   1.430   1.637
 5632WAT  HW1  22526   2.204   1.399   1.679
 5632WAT  HW2  22527   2.255   1.489   1.568
 5632WAT  MW   22528   2.270   1.434   1.633
 5633WAT  OW   22529   1.797   2.022   0.738
 5633WAT  HW1  22530   1.742   2.049   0.664
 5633WAT  HW2  22531   1.877   1.990   0.697
 5633WAT  MW   22532   1.800   2.021   0.723
 5634WAT  OW   22533   0.926   0.095   3.386
 5634WAT  HW1  22534   0.900   0.063   3.472
 5634WAT  HW2  22535   0.845   0.126   3.346
 5634WAT  MW   22536   0.912   0.095   3.392
 5635WAT  OW   22537   2.418   6.044   2.826
 5635WAT  HW1  22538   2.385   6.121   2.780
 5635WAT  HW2  22539   2.513   6.054   2.826
 5635WAT  MW   22540   2.426   6.055   2.820
 5636WAT  OW   22541   1.342   5.025   3.788
 5636WAT  HW1  22542   1.365   5.000   3.699
 5636WAT  HW2  22543   1.269   4.968   3.812
 5636WAT  MW   22544   1.335   5.014   3.780
 5637WAT  OW   22545   0.597   4.493   5.406
 5637WAT  HW1  22546   0.645   4.426   5.455
 5637WAT  HW2  22547   0.524   4.518   5.463
 5637WAT  MW   22548   0.594   4.488   5.420
 5638WAT  OW   22549   5.750   4.785   4.009
 5638WAT  HW1  22550   5.776   4.864   4.056
 5638WAT  HW2  22551   5.781   4.713   4.064
 5638WAT  MW   22552   5.757   4.786   4.022
 5639WAT  OW   22553   0.001   5.143   0.001
 5639WAT  HW1  22554   0.091   5.155  -0.029
 5639WAT  HW2  22555   0.007   5.077   0.070
 5639WAT  MW   22556   0.013   5.136   0.006
 5640WAT  OW   22557   1.818   0.337   3.063
 5640WAT  HW1  22558   1.727   0.332   3.093
 5640WAT  HW2  22559   1.836   0.430   3.056
 5640WAT  MW   22560   1.808   0.348   3.066
 5641WAT  OW   22561   2.070   3.200   1.412
 5641WAT  HW1  22562   2.156   3.167   1.384
 5641WAT  HW2  22563   2.090   3.277   1.464
 5641WAT  MW   22564   2.084   3.206   1.415
 5642WAT  OW   22565   2.697   1.921   5.952
 5642WAT  HW1  22566   2.687   1.896   6.044
 5642WAT  HW2  22567   2.791   1.916   5.935
 5642WAT  MW   22568   2.708   1.917   5.962
 5643WAT  OW   22569   1.792   5.910   0.242
 5643WAT  HW1  22570   1.794   5.982   0.306
 5643WAT  HW2  22571   1.742   5.841   0.285
 5643WAT  MW   22572   1.786   5.911   0.256
 5644WAT  OW   22573   3.892   6.400   2.064
 5644WAT  HW1  22574   3.966   6.381   2.121
 5644WAT  HW2  22575   3.904   6.491   2.038
 5644WAT  MW   22576   3.903   6.410   2.068
 5645WAT  OW   22577   2.793   0.409   4.776
 5645WAT  HW1  22578   2.733   0.484   4.780
 5645WAT  HW2  22579   2.765   0.361   4.698
 5645WAT  MW   22580   2.781   0.412   4.766
 5646WAT  OW   22581   2.725   2.516   5.647
 5646WAT  HW1  22582   2.707   2.520   5.741
 5646WAT  HW2  22583   2.754   2.426   5.632
 5646WAT  MW   22584   2.726   2.505   5.657
 5647WAT  OW   22585   4.173   2.205   6.036
 5647WAT  HW1  22586   4.257   2.190   6.080
 5647WAT  HW2  22587   4.115   2.236   6.105
 5647WAT  MW   22588   4.177   2.207   6.051
 5648WAT  OW   22589   0.553   4.227   3.319
 5648WAT  HW1  22590   0.599   4.175   3.253
 5648WAT  HW2  22591   0.487   4.276   3.269
 5648WAT  MW   22592   0.550   4.226   3.303
 5649WAT  OW   22593   5.340   4.038   3.132
 5649WAT  HW1  22594   5.368   4.108   3.072
 5649WAT  HW2  22595   5.420   4.013   3.178
 5649WAT  MW   22596   5.354   4.044   3.130
 5650WAT  OW   22597   5.870   0.833   3.074
 5650WAT  HW1  22598   5.799   0.878   3.029
 5650WAT  HW2  22599   5.882   0.882   3.155
 5650WAT  MW   22600   5.862   0.845   3.079
 5651WAT  OW   22601   5.355   3.412   4.396
 5651WAT  HW1  22602   5.279   3.436   4.449
 5651WAT  HW2  22603   5.349   3.469   4.320
 5651WAT  MW   22604   5.345   3.423   4.393
 5652WAT  OW   22605   0.809   1.567   1.622
 5652WAT  HW1  22606   0.799   1.621   1.544
 5652WAT  HW2  22607   0.720   1.556   1.655
 5652WAT  MW   22608   0.796   1.572   1.616
 5653WAT  OW   22609   5.336   4.805   3.348
 5653WAT  HW1  22610   5.341   4.713   3.375
 5653WAT  HW2  22611   5.426   4.830   3.328
 5653WAT  MW   22612   5.349   4.796   3.349
 5654WAT  OW   22613   4.219   1.891   1.743
 5654WAT  HW1  22614   4.292   1.940   1.783
 5654WAT  HW2  22615   4.173   1.956   1.690
 5654WAT  MW   22616   4.223   1.906   1.741
 5655WAT  OW   22617   2.924   4.458   5.391
 5655WAT  HW1  22618   2.852   4.420   5.341
 5655WAT  HW2  22619   3.002   4.440   5.337
 5655WAT  MW   22620   2.925   4.450   5.377
 5656WAT  OW   22621   5.845   4.470   5.560
 5656WAT  HW1  22622   5.803   4.384   5.559
 5656WAT  HW2  22623   5.937   4.451   5.541
 5656WAT  MW   22624   5.852   4.456   5.557
 5657WAT  OW   22625   1.435   5.441   5.698
 5657WAT  HW1  22626   1.487   5.511   5.658
 5657WAT  HW2  22627   1.344   5.466   5.682
 5657WAT  MW   22628   1.430   5.454   5.691
 5658WAT  OW   22629   2.361   2.191   6.293
 5658WAT  HW1  22630   2.441   2.190   6.345
 5658WAT  HW2  22631   2.373   2.263   6.232
 5658WAT  MW   22632   2.373   2.200   6.292
 5659WAT  OW   22633   2.845   4.640   5.589
 5659WAT  HW1  22634   2.864   4.734   5.585
 5659WAT  HW2  22635   2.886   4.603   5.512
 5659WAT  MW   22636   2.853   4.648   5.578
 5660WAT  OW   22637   3.370   4.731   2.048
 5660WAT  HW1  22638   3.299   4.683   2.091
 5660WAT  HW2  22639   3.393   4.800   2.110
 5660WAT  MW   22640   3.364   4.734   2.062
 5661WAT  OW   22641   1.046   1.236   4.498
 5661WAT  HW1  22642   1.031   1.142   4.507
 5661WAT  HW2  22643   1.065   1.249   4.405
 5661WAT  MW   22644   1.047   1.225   4.487
 5662WAT  OW   22645   1.170   3.364   4.381
 5662WAT  HW1  22646   1.211   3.419   4.315
 5662WAT  HW2  22647   1.082   3.401   4.393
 5662WAT  MW   22648   1.164   3.376   4.374
 5663WAT  OW   22649   1.793   4.462   2.887
 5663WAT  HW1  22650   1.706   4.455   2.927
 5663WAT  HW2  22651   1.847   4.503   2.954
 5663WAT  MW   22652   1.788   4.467   2.901
 5664WAT  OW   22653   1.367   6.472   0.420
 5664WAT  HW1  22654   1.405   6.446   0.504
 5664WAT  HW2  22655   1.380   6.567   0.416
 5664WAT  MW   22656   1.374   6.481   0.431
 5665WAT  OW   22657   0.526   4.221   0.947
 5665WAT  HW1  22658   0.484   4.164   0.883
 5665WAT  HW2  22659   0.572   4.286   0.895
 5665WAT  MW   22660   0.526   4.222   0.932
 5666WAT  OW   22661   4.342   2.411   0.924
 5666WAT  HW1  22662   4.259   2.374   0.895
 5666WAT  HW2  22663   4.340   2.502   0.891
 5666WAT  MW   22664   4.330   2.418   0.916
 5667WAT  OW   22665   4.394   1.695   3.245
 5667WAT  HW1  22666   4.401   1.603   3.270
 5667WAT  HW2  22667   4.476   1.715   3.200
 5667WAT  MW   22668   4.406   1.686   3.242
 5668WAT  OW   22669   5.664   6.420   2.204
 5668WAT  HW1  22670   5.652   6.377   2.120
 5668WAT  HW2  22671   5.748   6.465   2.197
 5668WAT  MW   22672   5.673   6.420   2.192
 5669WAT  OW   22673   4.797   0.840   2.934
 5669WAT  HW1  22674   4.718   0.867   2.888
 5669WAT  HW2  22675   4.855   0.808   2.866
 5669WAT  MW   22676   4.794   0.840   2.919
 5670WAT  OW   22677   2.178   4.042   0.746
 5670WAT  HW1  22678   2.142   4.106   0.808
 5670WAT  HW2  22679   2.175   3.958   0.793
 5670WAT  MW   22680   2.173   4.039   0.760
 5671WAT  OW   22681   5.048   3.133   4.836
 5671WAT  HW1  22682   5.105   3.143   4.913
 5671WAT  HW2  22683   4.959   3.135   4.871
 5671WAT  MW   22684   5.044   3.135   4.851
 5672WAT  OW   22685   4.968   2.422   2.833
 5672WAT  HW1  22686   5.020   2.375   2.899
 5672WAT  HW2  22687   4.899   2.360   2.809
 5672WAT  MW   22688   4.966   2.407   2.839
 5673WAT  OW   22689   6.154   2.629   0.026
 5673WAT  HW1  22690   6.238   2.607   0.066
 5673WAT  HW2  22691   6.103   2.549   0.031
 5673WAT  MW   22692   6.159   2.616   0.032
 5674WAT  OW   22693   6.078   5.418   1.003
 5674WAT  HW1  22694   6.135   5.342   1.017
 5674WAT  HW2  22695   6.049   5.443   1.090
 5674WAT  MW   22696   6.082   5.411   1.016
 5675WAT  OW   22697   1.686   4.962   2.370
 5675WAT  HW1  22698   1.747   5.000   2.433
 5675WAT  HW2  22699   1.606   5.014   2.379
 5675WAT  MW   22700   1.683   4.974   2.380
 5676WAT  OW   22701   2.365   6.466   1.027
 5676WAT  HW1  22702   2.330   6.525   1.094
 5676WAT  HW2  22703   2.432   6.517   0.982
 5676WAT  MW   22704   2.369   6.481   1.030
 5677WAT  OW   22705   6.274   4.028   0.660
 5677WAT  HW1  22706   6.324   4.109   0.663
 5677WAT  HW2  22707   6.207   4.043   0.593
 5677WAT  MW   22708   6.272   4.040   0.652
 5678WAT  OW   22709   4.176   6.368   0.763
 5678WAT  HW1  22710   4.100   6.423   0.782
 5678WAT  HW2  22711   4.240   6.428   0.725
 5678WAT  MW   22712   4.174   6.383   0.760
 5679WAT  OW   22713   4.232   2.300   3.849
 5679WAT  HW1  22714   4.286   2.244   3.904
 5679WAT  HW2  22715   4.182   2.240   3.794
 5679WAT  MW   22716   4.232   2.285   3.849
 5680WAT  OW   22717   4.353   2.969   2.525
 5680WAT  HW1  22718   4.376   2.879   2.501
 5680WAT  HW2  22719   4.379   2.977   2.616
 5680WAT  MW   22720   4.359   2.958   2.534
 5681WAT  OW   22721   5.099   3.847   6.155
 5681WAT  HW1  22722   5.049   3.834   6.236
 5681WAT  HW2  22723   5.041   3.898   6.099
 5681WAT  MW   22724   5.085   3.852   6.158
 5682WAT  OW   22725   4.282   6.273   6.322
 5682WAT  HW1  22726   4.314   6.306   6.406
 5682WAT  HW2  22727   4.215   6.209   6.346
 5682WAT  MW   22728   4.277   6.269   6.336
 5683WAT  OW   22729   4.179   6.659   4.879
 5683WAT  HW1  22730   4.160   6.566   4.866
 5683WAT  HW2  22731   4.244   6.679   4.812
 5683WAT  MW   22732   4.185   6.649   4.868
 5684WAT  OW   22733   1.470   0.465   0.420
 5684WAT  HW1  22734   1.541   0.478   0.483
 5684WAT  HW2  22735   1.506   0.496   0.337
 5684WAT  MW   22736   1.484   0.471   0.417
 5685WAT  OW   22737   6.444   3.245   4.964
 5685WAT  HW1  22738   6.414   3.189   5.035
 5685WAT  HW2  22739   6.420   3.197   4.884
 5685WAT  MW   22740   6.437   3.231   4.963
 5686WAT  OW   22741   2.100   4.041   5.585
 5686WAT  HW1  22742   2.119   4.103   5.655
 5686WAT  HW2  22743   2.174   4.050   5.524
 5686WAT  MW   22744   2.113   4.050   5.586
 5687WAT  OW   22745   0.337   5.868   6.382
 5687WAT  HW1  22746   0.354   5.852   6.475
 5687WAT  HW2  22747   0.242   5.868   6.374
 5687WAT  MW   22748   0.327   5.866   6.393
 5688WAT  OW   22749   2.594   0.646   5.946
 5688WAT  HW1  22750   2.585   0.585   5.873
 5688WAT  HW2  22751   2.677   0.692   5.929
 5688WAT  MW   22752   2.604   0.644   5.934
 5689WAT  OW   22753   5.083   0.805   1.708
 5689WAT  HW1  22754   5.044   0.815   1.621
 5689WAT  HW2  22755   5.174   0.781   1.691
 5689WAT  MW   22756   5.090   0.803   1.694
 5690WAT  OW   22757   4.285   2.415   1.900
 5690WAT  HW1  22758   4.279   2.379   1.811
 5690WAT  HW2  22759   4.202   2.389   1.941
 5690WAT  MW   22760   4.273   2.407   1.893
 5691WAT  OW   22761   1.509   0.990   6.510
 5691WAT  HW1  22762   1.531   0.897   6.516
 5691WAT  HW2  22763   1.594   1.034   6.504
 5691WAT  MW   22764   1.523   0.984   6.510
 5692WAT  OW   22765   0.943   2.071   3.399
 5692WAT  HW1  22766   1.019   2.084   3.342
 5692WAT  HW2  22767   0.883   2.016   3.348
 5692WAT  MW   22768   0.945   2.066   3.385
 5693WAT  OW   22769   4.949   3.217   2.581
 5693WAT  HW1  22770   4.975   3.309   2.589
 5693WAT  HW2  22771   5.006   3.170   2.642
 5693WAT  MW   22772   4.960   3.223   2.590
 5694WAT  OW   22773   6.024   1.708   4.783
 5694WAT  HW1  22774   6.031   1.803   4.781
 5694WAT  HW2  22775   5.940   1.690   4.827
 5694WAT  MW   22776   6.014   1.718   4.788
 5695WAT  OW   22777   4.056   0.067   2.247
 5695WAT  HW1  22778   4.052   0.044   2.154
 5695WAT  HW2  22779   3.970   0.102   2.267
 5695WAT  MW   22780   4.044   0.069   2.238
 5696WAT  OW   22781   0.710   3.719   6.204
 5696WAT  HW1  22782   0.762   3.720   6.285
 5696WAT  HW2  22783   0.736   3.798   6.158
 5696WAT  MW   22784   0.721   3.729   6.209
 5697WAT  OW   22785   0.523   4.418   0.272
 5697WAT  HW1  22786   0.482   4.412   0.359
 5697WAT  HW2  22787   0.615   4.395   0.287
 5697WAT  MW   22788   0.530   4.414   0.286
 5698WAT  OW   22789   6.005   5.254   5.117
 5698WAT  HW1  22790   5.989   5.246   5.211
 5698WAT  HW2  22791   6.016   5.348   5.102
 5698WAT  MW   22792   6.005   5.265   5.127
 5699WAT  OW   22793   4.789   6.419   5.481
 5699WAT  HW1  22794   4.795   6.352   5.413
 5699WAT  HW2  22795   4.840   6.492   5.446
 5699WAT  MW   22796   4.797   6.420   5.467
 5700WAT  OW   22797   0.330   0.923   5.081
 5700WAT  HW1  22798   0.264   0.873   5.131
 5700WAT  HW2  22799   0.327   1.010   5.119
 5700WAT  MW   22800   0.321   0.928   5.093
 5701WAT  OW   22801   1.210   3.133   3.411
 5701WAT  HW1  22802   1.172   3.046   3.398
 5701WAT  HW2  22803   1.250   3.129   3.498
 5701WAT  MW   22804   1.210   3.121   3.421
 5702WAT  OW   22805   2.259   0.846   0.538
 5702WAT  HW1  22806   2.176   0.813   0.573
 5702WAT  HW2  22807   2.261   0.815   0.448
 5702WAT  MW   22808   2.248   0.837   0.531
 5703WAT  OW   22809   2.869   3.058   3.825
 5703WAT  HW1  22810   2.796   3.105   3.784
 5703WAT  HW2  22811   2.827   2.987   3.874
 5703WAT  MW   22812   2.854   3.055   3.826
 5704WAT  OW   22813   1.312   4.212   3.954
 5704WAT  HW1  22814   1.288   4.293   3.998
 5704WAT  HW2  22815   1.274   4.142   4.007
 5704WAT  MW   22816   1.304   4.213   3.967
 5705WAT  OW   22817   1.599   3.569   3.417
 5705WAT  HW1  22818   1.590   3.477   3.443
 5705WAT  HW2  22819   1.509   3.602   3.416
 5705WAT  MW   22820   1.586   3.561   3.420
 5706WAT  OW   22821   1.444   6.406   1.218
 5706WAT  HW1  22822   1.364   6.455   1.238
 5706WAT  HW2  22823   1.514   6.454   1.264
 5706WAT  MW   22824   1.443   6.419   1.227
 5707WAT  OW   22825   4.194   6.086   2.762
 5707WAT  HW1  22826   4.228   6.000   2.738
 5707WAT  HW2  22827   4.270   6.144   2.758
 5707WAT  MW   22828   4.208   6.082   2.758
 5708WAT  OW   22829   2.915   1.308   6.219
 5708WAT  HW1  22830   2.827   1.272   6.226
 5708WAT  HW2  22831   2.969   1.250   6.274
 5708WAT  MW   22832   2.911   1.295   6.227
 5709WAT  OW   22833   4.927   5.209   0.087
 5709WAT  HW1  22834   4.966   5.200  -0.000
 5709WAT  HW2  22835   4.837   5.179   0.077
 5709WAT  MW   22836   4.920   5.204   0.074
 5710WAT  OW   22837   1.549   5.146   0.787
 5710WAT  HW1  22838   1.641   5.175   0.784
 5710WAT  HW2  22839   1.517   5.158   0.698
 5710WAT  MW   22840   1.557   5.152   0.775
 5711WAT  OW   22841   1.617   3.981   2.112
 5711WAT  HW1  22842   1.632   4.003   2.020
 5711WAT  HW2  22843   1.703   3.989   2.153
 5711WAT  MW   22844   1.630   3.985   2.105
 5712WAT  OW   22845   5.423   1.687   0.763
 5712WAT  HW1  22846   5.455   1.683   0.853
 5712WAT  HW2  22847   5.481   1.629   0.714
 5712WAT  MW   22848   5.435   1.679   0.769
 5713WAT  OW   22849   5.367   3.571   2.493
 5713WAT  HW1  22850   5.410   3.624   2.426
 5713WAT  HW2  22851   5.375   3.623   2.573
 5713WAT  MW   22852   5.374   3.585   2.495
 5714WAT  OW   22853   0.881   4.402   2.534
 5714WAT  HW1  22854   0.899   4.398   2.628
 5714WAT  HW2  22855   0.956   4.450   2.498
 5714WAT  MW   22856   0.893   4.408   2.542
 5715WAT  OW   22857   4.924   0.596   2.508
 5715WAT  HW1  22858   4.983   0.660   2.468
 5715WAT  HW2  22859   4.939   0.515   2.460
 5715WAT  MW   22860   4.934   0.594   2.497
 5716WAT  OW   22861   6.507   6.040   0.311
 5716WAT  HW1  22862   6.545   5.998   0.234
 5716WAT  HW2  22863   6.549   6.127   0.314
 5716WAT  MW   22864   6.518   6.046   0.302
 5717WAT  OW   22865   2.897   1.453   0.392
 5717WAT  HW1  22866   2.980   1.405   0.398
 5717WAT  HW2  22867   2.914   1.535   0.438
 5717WAT  MW   22868   2.910   1.458   0.399
 5718WAT  OW   22869   4.689   0.841   5.519
 5718WAT  HW1  22870   4.742   0.868   5.443
 5718WAT  HW2  22871   4.718   0.752   5.538
 5718WAT  MW   22872   4.700   0.833   5.511
 5719WAT  OW   22873   2.699   4.262   6.165
 5719WAT  HW1  22874   2.633   4.192   6.166
 5719WAT  HW2  22875   2.663   4.329   6.222
 5719WAT  MW   22876   2.685   4.261   6.172
 5720WAT  OW   22877   5.708   5.301   3.509
 5720WAT  HW1  22878   5.671   5.323   3.423
 5720WAT  HW2  22879   5.803   5.304   3.496
 5720WAT  MW   22880   5.716   5.304   3.496
 5721WAT  OW   22881   6.555   5.718   2.584
 5721WAT  HW1  22882   6.535   5.718   2.678
 5721WAT  HW2  22883   6.476   5.752   2.542
 5721WAT  MW   22884   6.542   5.723   2.591
 5722WAT  OW   22885   5.578   2.481   0.355
 5722WAT  HW1  22886   5.616   2.463   0.269
 5722WAT  HW2  22887   5.506   2.541   0.337
 5722WAT  MW   22888   5.573   2.486   0.341
 5723WAT  OW   22889   0.340   4.238   5.939
 5723WAT  HW1  22890   0.372   4.326   5.918
 5723WAT  HW2  22891   0.385   4.215   6.020
 5723WAT  MW   22892   0.350   4.246   5.947
 5724WAT  OW   22893   4.316   5.758   3.143
 5724WAT  HW1  22894   4.260   5.681   3.149
 5724WAT  HW2  22895   4.273   5.816   3.080
 5724WAT  MW   22896   4.303   5.756   3.136
 5725WAT  OW   22897   0.434   2.834   2.852
 5725WAT  HW1  22898   0.460   2.777   2.925
 5725WAT  HW2  22899   0.343   2.857   2.871
 5725WAT  MW   22900   0.426   2.829   2.865
 5726WAT  OW   22901   5.465   6.025   4.912
 5726WAT  HW1  22902   5.402   6.044   4.982
 5726WAT  HW2  22903   5.441   6.086   4.842
 5726WAT  MW   22904   5.453   6.036   4.912
 5727WAT  OW   22905   1.519   5.211   4.736
 5727WAT  HW1  22906   1.511   5.246   4.648
 5727WAT  HW2  22907   1.609   5.179   4.742
 5727WAT  MW   22908   1.530   5.211   4.726
 5728WAT  OW   22909   2.799   6.096   2.425
 5728WAT  HW1  22910   2.729   6.071   2.485
 5728WAT  HW2  22911   2.838   6.174   2.464
 5728WAT  MW   22912   2.795   6.103   2.438
 5729WAT  OW   22913   6.494   1.710   0.936
 5729WAT  HW1  22914   6.523   1.622   0.911
 5729WAT  HW2  22915   6.419   1.728   0.879
 5729WAT  MW   22916   6.488   1.701   0.925
 5730WAT  OW   22917   0.538   1.209   4.589
 5730WAT  HW1  22918   0.460   1.158   4.611
 5730WAT  HW2  22919   0.535   1.219   4.494
 5730WAT  MW   22920   0.528   1.203   4.579
 5731WAT  OW   22921   3.354   0.385   1.803
 5731WAT  HW1  22922   3.270   0.425   1.825
 5731WAT  HW2  22923   3.332   0.294   1.783
 5731WAT  MW   22924   3.340   0.378   1.803
 5732WAT  OW   22925   3.692   5.650   5.675
 5732WAT  HW1  22926   3.754   5.715   5.708
 5732WAT  HW2  22927   3.747   5.574   5.653
 5732WAT  MW   22928   3.708   5.649   5.676
 5733WAT  OW   22929   1.106   0.143   0.558
 5733WAT  HW1  22930   1.078   0.190   0.479
 5733WAT  HW2  22931   1.190   0.181   0.580
 5733WAT  MW   22932   1.113   0.154   0.550
 5734WAT  OW   22933   0.016   2.700   1.133
 5734WAT  HW1  22934   0.012   2.623   1.190
 5734WAT  HW2  22935   0.031   2.664   1.046
 5734WAT  MW   22936   0.017   2.685   1.129
 5735WAT  OW   22937   0.631   2.083   2.653
 5735WAT  HW1  22938   0.617   2.153   2.590
 5735WAT  HW2  22939   0.725   2.088   2.674
 5735WAT  MW   22940   0.642   2.093   2.648
 5736WAT  OW   22941   1.777   6.065   2.141
 5736WAT  HW1  22942   1.796   6.039   2.051
 5736WAT  HW2  22943   1.682   6.081   2.141
 5736WAT  MW   22944   1.767   6.063   2.129
 5737WAT  OW   22945   4.211   2.421   5.838
 5737WAT  HW1  22946   4.301   2.452   5.839
 5737WAT  HW2  22947   4.209   2.351   5.903
 5737WAT  MW   22948   4.223   2.416   5.847
 5738WAT  OW   22949   0.326   3.500   0.731
 5738WAT  HW1  22950   0.414   3.508   0.769
 5738WAT  HW2  22951   0.268   3.536   0.798
 5738WAT  MW   22952   0.330   3.506   0.745
 5739WAT  OW   22953   5.993   4.020   2.152
 5739WAT  HW1  22954   6.074   4.022   2.102
 5739WAT  HW2  22955   5.930   3.977   2.094
 5739WAT  MW   22956   5.995   4.015   2.138
 5740WAT  OW   22957   6.002   3.085   3.030
 5740WAT  HW1  22958   5.983   3.069   3.123
 5740WAT  HW2  22959   6.086   3.131   3.030
 5740WAT  MW   22960   6.011   3.089   3.042
 5741WAT  OW   22961   2.616   5.176   6.280
 5741WAT  HW1  22962   2.577   5.089   6.289
 5741WAT  HW2  22963   2.638   5.183   6.187
 5741WAT  MW   22964   2.614   5.166   6.269
 5742WAT  OW   22965   0.925   1.582   3.019
 5742WAT  HW1  22966   0.962   1.664   3.053
 5742WAT  HW2  22967   0.950   1.582   2.926
 5742WAT  MW   22968   0.933   1.593   3.011
 5743WAT  OW   22969   0.560   1.740   1.855
 5743WAT  HW1  22970   0.637   1.782   1.894
 5743WAT  HW2  22971   0.489   1.758   1.917
 5743WAT  MW   22972   0.561   1.748   1.868
 5744WAT  OW   22973   0.808   1.833   3.556
 5744WAT  HW1  22974   0.786   1.786   3.637
 5744WAT  HW2  22975   0.903   1.847   3.561
 5744WAT  MW   22976   0.818   1.828   3.567
 5745WAT  OW   22977   1.741   5.748   3.488
 5745WAT  HW1  22978   1.799   5.777   3.417
 5745WAT  HW2  22979   1.741   5.653   3.482
 5745WAT  MW   22980   1.749   5.740   3.478
 5746WAT  OW   22981   3.153   5.053   1.885
 5746WAT  HW1  22982   3.140   5.147   1.898
 5746WAT  HW2  22983   3.085   5.012   1.939
 5746WAT  MW   22984   3.142   5.060   1.894
 5747WAT  OW   22985   1.987   6.103   6.572
 5747WAT  HW1  22986   2.034   6.168   6.624
 5747WAT  HW2  22987   2.041   6.024   6.577
 5747WAT  MW   22988   2.001   6.101   6.579
 5748WAT  OW   22989   1.214   0.720   0.147
 5748WAT  HW1  22990   1.251   0.635   0.127
 5748WAT  HW2  22991   1.209   0.765   0.063
 5748WAT  MW   22992   1.218   0.715   0.133
 5749WAT  OW   22993   6.656   4.948   3.037
 5749WAT  HW1  22994   6.710   4.934   3.115
 5749WAT  HW2  22995   6.682   5.035   3.006
 5749WAT  MW   22996   6.666   4.958   3.043
 5750WAT  OW   22997   5.285   4.975   2.802
 5750WAT  HW1  22998   5.215   4.911   2.799
 5750WAT  HW2  22999   5.270   5.022   2.885
 5750WAT  MW   23000   5.274   4.973   2.813
 5751WAT  OW   23001   2.952   1.623   5.067
 5751WAT  HW1  23002   3.015   1.557   5.095
 5751WAT  HW2  23003   2.867   1.582   5.080
 5751WAT  MW   23004   2.949   1.609   5.072
 5752WAT  OW   23005   5.108   0.420   1.499
 5752WAT  HW1  23006   5.114   0.437   1.405
 5752WAT  HW2  23007   5.026   0.461   1.527
 5752WAT  MW   23008   5.098   0.427   1.491
 5753WAT  OW   23009   1.739   1.226   5.047
 5753WAT  HW1  23010   1.825   1.185   5.053
 5753WAT  HW2  23011   1.755   1.317   5.072
 5753WAT  MW   23012   1.753   1.233   5.051
 5754WAT  OW   23013   1.937   0.138   5.357
 5754WAT  HW1  23014   2.005   0.151   5.290
 5754WAT  HW2  23015   1.950   0.210   5.418
 5754WAT  MW   23016   1.948   0.149   5.356
 5755WAT  OW   23017   2.118   3.421   4.514
 5755WAT  HW1  23018   2.140   3.509   4.546
 5755WAT  HW2  23019   2.097   3.371   4.593
 5755WAT  MW   23020   2.118   3.426   4.529
 5756WAT  OW   23021   5.031   5.583   4.095
 5756WAT  HW1  23022   5.075   5.506   4.059
 5756WAT  HW2  23023   5.056   5.654   4.037
 5756WAT  MW   23024   5.040   5.582   4.083
 5757WAT  OW   23025   4.095   3.180   5.416
 5757WAT  HW1  23026   4.114   3.122   5.343
 5757WAT  HW2  23027   4.179   3.223   5.434
 5757WAT  MW   23028   4.109   3.178   5.409
 5758WAT  OW   23029   2.294   6.553   5.263
 5758WAT  HW1  23030   2.229   6.524   5.327
 5758WAT  HW2  23031   2.361   6.485   5.263
 5758WAT  MW   23032   2.294   6.541   5.271
 5759WAT  OW   23033   5.072   1.288   0.004
 5759WAT  HW1  23034   5.031   1.301  -0.081
 5759WAT  HW2  23035   5.003   1.251   0.059
 5759WAT  MW   23036   5.057   1.285   0.000
 5760WAT  OW   23037   2.287   3.426   1.868
 5760WAT  HW1  23038   2.228   3.444   1.941
 5760WAT  HW2  23039   2.351   3.497   1.870
 5760WAT  MW   23040   2.288   3.438   1.878
 5761WAT  OW   23041   4.629   5.119   6.503
 5761WAT  HW1  23042   4.695   5.063   6.462
 5761WAT  HW2  23043   4.546   5.078   6.483
 5761WAT  MW   23044   4.627   5.106   6.495
 5762WAT  OW   23045   1.028   4.661   5.400
 5762WAT  HW1  23046   0.986   4.700   5.477
 5762WAT  HW2  23047   0.955   4.639   5.343
 5762WAT  MW   23048   1.012   4.664   5.403
 5763WAT  OW   23049   5.596   5.343   2.558
 5763WAT  HW1  23050   5.506   5.321   2.534
 5763WAT  HW2  23051   5.620   5.280   2.625
 5763WAT  MW   23052   5.587   5.332   2.564
 5764WAT  OW   23053   5.364   5.789   0.400
 5764WAT  HW1  23054   5.383   5.787   0.307
 5764WAT  HW2  23055   5.286   5.844   0.408
 5764WAT  MW   23056   5.356   5.796   0.389
 5765WAT  OW   23057   2.377   2.573   3.045
 5765WAT  HW1  23058   2.325   2.636   2.995
 5765WAT  HW2  23059   2.356   2.488   3.006
 5765WAT  MW   23060   2.367   2.570   3.033
 5766WAT  OW   23061   3.344   2.659   0.447
 5766WAT  HW1  23062   3.283   2.733   0.446
 5766WAT  HW2  23063   3.388   2.663   0.362
 5766WAT  MW   23064   3.342   2.669   0.435
 5767WAT  OW   23065   5.524   5.390   1.230
 5767WAT  HW1  23066   5.554   5.440   1.154
 5767WAT  HW2  23067   5.602   5.345   1.261
 5767WAT  MW   23068   5.538   5.391   1.224
 5768WAT  OW   23069   4.034   2.357   2.013
 5768WAT  HW1  23070   4.046   2.262   2.018
 5768WAT  HW2  23071   4.037   2.387   2.103
 5768WAT  MW   23072   4.036   2.348   2.025
 5769WAT  OW   23073   2.048   5.732   4.013
 5769WAT  HW1  23074   2.123   5.703   3.961
 5769WAT  HW2  23075   2.072   5.819   4.044
 5769WAT  MW   23076   2.061   5.739   4.010
 5770WAT  OW   23077   2.245   5.787   4.420
 5770WAT  HW1  23078   2.193   5.726   4.474
 5770WAT  HW2  23079   2.257   5.864   4.475
 5770WAT  MW   23080   2.240   5.789   4.434
 5771WAT  OW   23081   6.027   1.650   0.085
 5771WAT  HW1  23082   5.976   1.660   0.004
 5771WAT  HW2  23083   5.976   1.588   0.137
 5771WAT  MW   23084   6.013   1.643   0.081
 5772WAT  OW   23085   3.140   3.445   4.374
 5772WAT  HW1  23086   3.106   3.446   4.284
 5772WAT  HW2  23087   3.145   3.353   4.397
 5772WAT  MW   23088   3.136   3.433   4.365
 5773WAT  OW   23089   6.454   3.793   4.382
 5773WAT  HW1  23090   6.480   3.871   4.332
 5773WAT  HW2  23091   6.364   3.812   4.408
 5773WAT  MW   23092   6.446   3.806   4.379
 5774WAT  OW   23093   5.758   1.118   5.717
 5774WAT  HW1  23094   5.797   1.085   5.636
 5774WAT  HW2  23095   5.799   1.203   5.730
 5774WAT  MW   23096   5.769   1.125   5.708
 5775WAT  OW   23097   0.213   0.804   1.297
 5775WAT  HW1  23098   0.127   0.829   1.265
 5775WAT  HW2  23099   0.274   0.857   1.247
 5775WAT  MW   23100   0.210   0.814   1.286
 5776WAT  OW   23101   4.893   6.546   5.062
 5776WAT  HW1  23102   4.837   6.513   4.993
 5776WAT  HW2  23103   4.848   6.624   5.095
 5776WAT  MW   23104   4.880   6.552   5.057
 5777WAT  OW   23105   5.658   2.782   2.153
 5777WAT  HW1  23106   5.699   2.841   2.217
 5777WAT  HW2  23107   5.581   2.748   2.198
 5777WAT  MW   23108   5.653   2.786   2.167
 5778WAT  OW   23109   1.135   4.067   0.116
 5778WAT  HW1  23110   1.133   4.098   0.206
 5778WAT  HW2  23111   1.184   3.985   0.119
 5778WAT  MW   23112   1.141   4.060   0.128
 5779WAT  OW   23113   5.051   0.033   0.739
 5779WAT  HW1  23114   5.038  -0.060   0.751
 5779WAT  HW2  23115   5.023   0.073   0.822
 5779WAT  MW   23116   5.046   0.026   0.752
 5780WAT  OW   23117   5.313   3.046   3.173
 5780WAT  HW1  23118   5.272   2.974   3.126
 5780WAT  HW2  23119   5.387   3.072   3.118
 5780WAT  MW   23120   5.317   3.040   3.159
 5781WAT  OW   23121   3.949   1.950   3.885
 5781WAT  HW1  23122   3.902   1.884   3.835
 5781WAT  HW2  23123   4.019   1.979   3.826
 5781WAT  MW   23124   3.952   1.945   3.871
 5782WAT  OW   23125   3.784   5.592   4.413
 5782WAT  HW1  23126   3.851   5.651   4.378
 5782WAT  HW2  23127   3.706   5.647   4.422
 5782WAT  MW   23128   3.783   5.607   4.409
 5783WAT  OW   23129   1.590   0.053   2.114
 5783WAT  HW1  23130   1.622   0.004   2.038
 5783WAT  HW2  23131   1.561  -0.014   2.176
 5783WAT  MW   23132   1.590   0.037   2.112
 5784WAT  OW   23133   0.477   5.886   3.534
 5784WAT  HW1  23134   0.405   5.949   3.534
 5784WAT  HW2  23135   0.461   5.832   3.456
 5784WAT  MW   23136   0.465   5.887   3.524
 5785WAT  OW   23137   2.042   1.305   3.040
 5785WAT  HW1  23138   2.044   1.225   2.986
 5785WAT  HW2  23139   2.058   1.273   3.129
 5785WAT  MW   23140   2.044   1.290   3.045
 5786WAT  OW   23141   6.038   4.961   0.949
 5786WAT  HW1  23142   6.101   4.922   0.888
 5786WAT  HW2  23143   5.993   5.028   0.898
 5786WAT  MW   23144   6.041   4.964   0.935
 5787WAT  OW   23145   3.895   4.448   4.338
 5787WAT  HW1  23146   3.976   4.436   4.288
 5787WAT  HW2  23147   3.896   4.541   4.363
 5787WAT  MW   23148   3.906   4.459   4.335
 5788WAT  OW   23149   5.921   4.631   1.776
 5788WAT  HW1  23150   6.010   4.602   1.796
 5788WAT  HW2  23151   5.932   4.695   1.705
 5788WAT  MW   23152   5.935   4.635   1.769
 5789WAT  OW   23153   4.715   4.149   3.960
 5789WAT  HW1  23154   4.658   4.095   3.905
 5789WAT  HW2  23155   4.657   4.216   3.996
 5789WAT  MW   23156   4.700   4.151   3.957
 5790WAT  OW   23157   3.413   0.870   0.927
 5790WAT  HW1  23158   3.462   0.864   0.846
 5790WAT  HW2  23159   3.351   0.941   0.913
 5790WAT  MW   23160   3.411   0.878   0.915
 5791WAT  OW   23161   2.651   4.264   0.360
 5791WAT  HW1  23162   2.685   4.350   0.335
 5791WAT  HW2  23163   2.578   4.249   0.301
 5791WAT  MW   23164   2.646   4.273   0.349
 5792WAT  OW   23165   5.579   3.589   4.771
 5792WAT  HW1  23166   5.559   3.644   4.695
 5792WAT  HW2  23167   5.631   3.645   4.828
 5792WAT  MW   23168   5.583   3.603   4.768
 5793WAT  OW   23169   3.950   1.141   0.308
 5793WAT  HW1  23170   3.867   1.177   0.276
 5793WAT  HW2  23171   3.926   1.055   0.344
 5793WAT  MW   23172   3.936   1.134   0.308
 5794WAT  OW   23173   4.797   6.605   0.989
 5794WAT  HW1  23174   4.777   6.541   1.058
 5794WAT  HW2  23175   4.731   6.589   0.922
 5794WAT  MW   23176   4.785   6.594   0.989
 5795WAT  OW   23177   4.083   0.190   2.880
 5795WAT  HW1  23178   4.134   0.188   2.799
 5795WAT  HW2  23179   4.031   0.110   2.877
 5795WAT  MW   23180   4.083   0.179   2.869
 5796WAT  OW   23181   2.258   4.850   6.054
 5796WAT  HW1  23182   2.217   4.837   6.140
 5796WAT  HW2  23183   2.232   4.939   6.029
 5796WAT  MW   23184   2.249   4.860   6.062
 5797WAT  OW   23185   3.382   6.144   1.708
 5797WAT  HW1  23186   3.411   6.228   1.744
 5797WAT  HW2  23187   3.289   6.157   1.690
 5797WAT  MW   23188   3.373   6.157   1.711
 5798WAT  OW   23189   5.035   6.067   3.180
 5798WAT  HW1  23190   5.019   5.978   3.213
 5798WAT  HW2  23191   5.114   6.095   3.225
 5798WAT  MW   23192   5.043   6.059   3.190
 5799WAT  OW   23193   1.373   3.720   5.472
 5799WAT  HW1  23194   1.378   3.738   5.378
 5799WAT  HW2  23195   1.309   3.649   5.479
 5799WAT  MW   23196   1.365   3.713   5.460
 5800WAT  OW   23197   5.753   2.106   0.696
 5800WAT  HW1  23198   5.750   2.024   0.746
 5800WAT  HW2  23199   5.678   2.099   0.636
 5800WAT  MW   23200   5.743   2.094   0.695
 5801WAT  OW   23201   5.053   0.112   6.274
 5801WAT  HW1  23202   4.989   0.111   6.203
 5801WAT  HW2  23203   5.002   0.091   6.352
 5801WAT  MW   23204   5.038   0.109   6.275
 5802WAT  OW   23205   2.636   4.407   1.974
 5802WAT  HW1  23206   2.550   4.394   2.013
 5802WAT  HW2  23207   2.628   4.487   1.923
 5802WAT  MW   23208   2.624   4.416   1.973
 5803WAT  OW   23209   0.418   0.232   1.688
 5803WAT  HW1  23210   0.439   0.312   1.738
 5803WAT  HW2  23211   0.361   0.183   1.746
 5803WAT  MW   23212   0.413   0.236   1.703
 5804WAT  OW   23213   5.166   6.641   1.554
 5804WAT  HW1  23214   5.122   6.568   1.511
 5804WAT  HW2  23215   5.257   6.636   1.523
 5804WAT  MW   23216   5.172   6.631   1.545
 5805WAT  OW   23217   2.398   6.660   5.845
 5805WAT  HW1  23218   2.352   6.643   5.927
 5805WAT  HW2  23219   2.479   6.610   5.852
 5805WAT  MW   23220   2.403   6.651   5.856
 5806WAT  OW   23221   5.008   1.733   1.240
 5806WAT  HW1  23222   5.024   1.663   1.303
 5806WAT  HW2  23223   5.015   1.691   1.155
 5806WAT  MW   23224   5.011   1.718   1.237
 5807WAT  OW   23225   5.006   0.193   0.390
 5807WAT  HW1  23226   5.041   0.224   0.474
 5807WAT  HW2  23227   5.076   0.141   0.352
 5807WAT  MW   23228   5.020   0.190   0.396
 5808WAT  OW   23229   0.596   5.768   2.092
 5808WAT  HW1  23230   0.520   5.746   2.038
 5808WAT  HW2  23231   0.602   5.697   2.155
 5808WAT  MW   23232   0.587   5.756   2.093
 5809WAT  OW   23233   3.718   1.263   0.218
 5809WAT  HW1  23234   3.645   1.291   0.273
 5809WAT  HW2  23235   3.681   1.194   0.162
 5809WAT  MW   23236   3.703   1.258   0.218
 5810WAT  OW   23237   4.035   4.232   5.328
 5810WAT  HW1  23238   3.957   4.265   5.283
 5810WAT  HW2  23239   4.033   4.275   5.414
 5810WAT  MW   23240   4.024   4.242   5.333
 5811WAT  OW   23241   5.687   4.625   2.205
 5811WAT  HW1  23242   5.722   4.668   2.283
 5811WAT  HW2  23243   5.646   4.545   2.238
 5811WAT  MW   23244   5.686   4.620   2.220
 5812WAT  OW   23245   3.879   0.275   6.448
 5812WAT  HW1  23246   3.829   0.211   6.498
 5812WAT  HW2  23247   3.890   0.349   6.507
 5812WAT  MW   23248   3.874   0.276   6.462
 5813WAT  OW   23249   0.141   1.612   1.565
 5813WAT  HW1  23250   0.228   1.633   1.532
 5813WAT  HW2  23251   0.095   1.575   1.490
 5813WAT  MW   23252   0.146   1.610   1.551
 5814WAT  OW   23253   6.530   1.748   0.052
 5814WAT  HW1  23254   6.537   1.803   0.131
 5814WAT  HW2  23255   6.542   1.659   0.084
 5814WAT  MW   23256   6.533   1.744   0.067
 5815WAT  OW   23257   5.034   6.186   4.539
 5815WAT  HW1  23258   4.979   6.207   4.614
 5815WAT  HW2  23259   5.021   6.092   4.525
 5815WAT  MW   23260   5.025   6.176   4.547
 5816WAT  OW   23261   3.340   0.879   1.490
 5816WAT  HW1  23262   3.389   0.903   1.412
 5816WAT  HW2  23263   3.358   0.785   1.502
 5816WAT  MW   23264   3.349   0.869   1.482
 5817WAT  OW   23265   0.901   1.680   0.963
 5817WAT  HW1  23266   0.963   1.707   0.895
 5817WAT  HW2  23267   0.878   1.762   1.008
 5817WAT  MW   23268   0.906   1.694   0.960
 5818WAT  OW   23269   3.714   2.380   5.361
 5818WAT  HW1  23270   3.664   2.309   5.322
 5818WAT  HW2  23271   3.702   2.369   5.455
 5818WAT  MW   23272   3.706   2.369   5.368
 5819WAT  OW   23273   2.527   3.685   0.659
 5819WAT  HW1  23274   2.513   3.640   0.576
 5819WAT  HW2  23275   2.568   3.768   0.635
 5819WAT  MW   23276   2.530   3.690   0.645
 5820WAT  OW   23277   1.805   4.568   4.836
 5820WAT  HW1  23278   1.866   4.638   4.859
 5820WAT  HW2  23279   1.768   4.595   4.753
 5820WAT  MW   23280   1.808   4.581   4.828
 5821WAT  OW   23281   1.817   3.074   1.998
 5821WAT  HW1  23282   1.868   3.153   1.983
 5821WAT  HW2  23283   1.726   3.104   1.998
 5821WAT  MW   23284   1.812   3.088   1.996
 5822WAT  OW   23285   0.113   3.945   2.190
 5822WAT  HW1  23286   0.059   3.992   2.254
 5822WAT  HW2  23287   0.164   3.883   2.242
 5822WAT  MW   23288   0.113   3.943   2.205
 5823WAT  OW   23289   3.246   5.096   6.220
 5823WAT  HW1  23290   3.277   5.009   6.196
 5823WAT  HW2  23291   3.152   5.094   6.204
 5823WAT  MW   23292   3.238   5.084   6.215
 5824WAT  OW   23293   2.092   0.160   6.131
 5824WAT  HW1  23294   2.107   0.201   6.216
 5824WAT  HW2  23295   2.154   0.087   6.128
 5824WAT  MW   23296   2.102   0.156   6.142
 5825WAT  OW   23297   5.094   5.117   6.568
 5825WAT  HW1  23298   5.061   5.029   6.585
 5825WAT  HW2  23299   5.183   5.117   6.604
 5825WAT  MW   23300   5.101   5.105   6.575
 5826WAT  OW   23301   6.260   6.136   1.470
 5826WAT  HW1  23302   6.323   6.191   1.423
 5826WAT  HW2  23303   6.289   6.139   1.561
 5826WAT  MW   23304   6.272   6.144   1.476
 5827WAT  OW   23305   1.075   3.526   1.065
 5827WAT  HW1  23306   0.983   3.533   1.090
 5827WAT  HW2  23307   1.107   3.448   1.111
 5827WAT  MW   23308   1.067   3.516   1.074
 5828WAT  OW   23309   2.465   3.052   5.383
 5828WAT  HW1  23310   2.425   3.051   5.470
 5828WAT  HW2  23311   2.535   2.986   5.388
 5828WAT  MW   23312   2.469   3.043   5.395
 5829WAT  OW   23313   2.914   6.428   1.730
 5829WAT  HW1  23314   2.979   6.487   1.769
 5829WAT  HW2  23315   2.923   6.442   1.636
 5829WAT  MW   23316   2.924   6.437   1.723
 5830WAT  OW   23317   6.590   2.198   6.049
 5830WAT  HW1  23318   6.558   2.267   6.108
 5830WAT  HW2  23319   6.653   2.242   5.992
 5830WAT  MW   23320   6.594   2.213   6.050
 5831WAT  OW   23321   2.823   3.049   2.569
 5831WAT  HW1  23322   2.836   3.055   2.664
 5831WAT  HW2  23323   2.732   3.024   2.559
 5831WAT  MW   23324   2.813   3.047   2.581
 5832WAT  OW   23325   6.198   3.872   4.431
 5832WAT  HW1  23326   6.165   3.922   4.356
 5832WAT  HW2  23327   6.180   3.927   4.507
 5832WAT  MW   23328   6.192   3.886   4.431
 5833WAT  OW   23329   3.355   5.482   5.506
 5833WAT  HW1  23330   3.292   5.450   5.442
 5833WAT  HW2  23331   3.303   5.531   5.570
 5833WAT  MW   23332   3.340   5.485   5.506
 5834WAT  OW   23333   1.199   0.415   0.468
 5834WAT  HW1  23334   1.194   0.434   0.562
 5834WAT  HW2  23335   1.289   0.435   0.444
 5834WAT  MW   23336   1.210   0.420   0.478
 5835WAT  OW   23337   1.278   3.908   1.388
 5835WAT  HW1  23338   1.263   3.823   1.347
 5835WAT  HW2  23339   1.276   3.971   1.316
 5835WAT  MW   23340   1.276   3.905   1.373
 5836WAT  OW   23341   0.976   2.237   1.240
 5836WAT  HW1  23342   0.901   2.185   1.212
 5836WAT  HW2  23343   1.028   2.176   1.293
 5836WAT  MW   23344   0.973   2.222   1.243
 5837WAT  OW   23345   3.629   0.632   3.378
 5837WAT  HW1  23346   3.541   0.654   3.408
 5837WAT  HW2  23347   3.615   0.572   3.305
 5837WAT  MW   23348   3.616   0.627   3.372
 5838WAT  OW   23349   0.331   2.807   1.429
 5838WAT  HW1  23350   0.236   2.798   1.429
 5838WAT  HW2  23351   0.363   2.726   1.468
 5838WAT  MW   23352   0.323   2.795   1.434
 5839WAT  OW   23353   5.653   0.981   2.989
 5839WAT  HW1  23354   5.637   0.924   2.914
 5839WAT  HW2  23355   5.568   0.986   3.034
 5839WAT  MW   23356   5.639   0.974   2.985
 5840WAT  OW   23357   5.159   2.902   6.459
 5840WAT  HW1  23358   5.134   2.811   6.476
 5840WAT  HW2  23359   5.148   2.946   6.544
 5840WAT  MW   23360   5.154   2.896   6.473
 5841WAT  OW   23361   5.526   0.266   5.301
 5841WAT  HW1  23362   5.594   0.334   5.302
 5841WAT  HW2  23363   5.576   0.184   5.303
 5841WAT  MW   23364   5.542   0.264   5.301
 5842WAT  OW   23365   0.904   5.953   5.192
 5842WAT  HW1  23366   0.905   6.021   5.125
 5842WAT  HW2  23367   0.816   5.958   5.230
 5842WAT  MW   23368   0.893   5.963   5.188
 5843WAT  OW   23369   3.815   2.866   5.582
 5843WAT  HW1  23370   3.724   2.864   5.611
 5843WAT  HW2  23371   3.822   2.948   5.533
 5843WAT  MW   23372   3.804   2.877   5.580
 5844WAT  OW   23373   1.074   6.105   3.625
 5844WAT  HW1  23374   1.167   6.095   3.642
 5844WAT  HW2  23375   1.034   6.104   3.712
 5844WAT  MW   23376   1.081   6.104   3.639
 5845WAT  OW   23377   2.085   1.072   2.905
 5845WAT  HW1  23378   2.179   1.074   2.889
 5845WAT  HW2  23379   2.051   1.011   2.841
 5845WAT  MW   23380   2.093   1.064   2.895
 5846WAT  OW   23381   3.566   0.061   1.395
 5846WAT  HW1  23382   3.595   0.151   1.375
 5846WAT  HW2  23383   3.486   0.073   1.446
 5846WAT  MW   23384   3.559   0.075   1.399
 5847WAT  OW   23385   1.235   6.132   4.620
 5847WAT  HW1  23386   1.232   6.190   4.696
 5847WAT  HW2  23387   1.303   6.068   4.641
 5847WAT  MW   23388   1.243   6.131   4.633
 5848WAT  OW   23389   6.566   5.144   0.412
 5848WAT  HW1  23390   6.638   5.186   0.365
 5848WAT  HW2  23391   6.525   5.215   0.461
 5848WAT  MW   23392   6.570   5.159   0.412
 5849WAT  OW   23393   5.582   0.877   2.234
 5849WAT  HW1  23394   5.544   0.823   2.165
 5849WAT  HW2  23395   5.627   0.816   2.292
 5849WAT  MW   23396   5.583   0.862   2.233
 5850WAT  OW   23397   3.769   4.289   6.355
 5850WAT  HW1  23398   3.744   4.349   6.285
 5850WAT  HW2  23399   3.704   4.303   6.423
 5850WAT  MW   23400   3.757   4.299   6.355
 5851WAT  OW   23401   1.826   4.648   1.645
 5851WAT  HW1  23402   1.845   4.742   1.638
 5851WAT  HW2  23403   1.898   4.612   1.696
 5851WAT  MW   23404   1.838   4.656   1.651
 5852WAT  OW   23405   2.763   4.910   1.790
 5852WAT  HW1  23406   2.732   4.820   1.802
 5852WAT  HW2  23407   2.719   4.959   1.859
 5852WAT  MW   23408   2.753   4.904   1.801
 5853WAT  OW   23409   5.648   2.840   4.265
 5853WAT  HW1  23410   5.602   2.877   4.190
 5853WAT  HW2  23411   5.671   2.751   4.237
 5853WAT  MW   23412   5.645   2.833   4.251
 5854WAT  OW   23413   2.123   2.880   3.978
 5854WAT  HW1  23414   2.205   2.906   4.020
 5854WAT  HW2  23415   2.078   2.963   3.960
 5854WAT  MW   23416   2.128   2.895   3.981
 5855WAT  OW   23417   3.175   5.350   2.355
 5855WAT  HW1  23418   3.213   5.345   2.443
 5855WAT  HW2  23419   3.093   5.397   2.368
 5855WAT  MW   23420   3.169   5.355   2.369
 5856WAT  OW   23421   4.213   2.323   0.515
 5856WAT  HW1  23422   4.167   2.380   0.454
 5856WAT  HW2  23423   4.279   2.380   0.555
 5856WAT  MW   23424   4.215   2.338   0.512
 5857WAT  OW   23425   3.868   3.469   0.236
 5857WAT  HW1  23426   3.838   3.507   0.154
 5857WAT  HW2  23427   3.862   3.540   0.300
 5857WAT  MW   23428   3.863   3.483   0.234
 5858WAT  OW   23429   2.563   1.145   4.290
 5858WAT  HW1  23430   2.468   1.152   4.289
 5858WAT  HW2  23431   2.581   1.051   4.279
 5858WAT  MW   23432   2.553   1.133   4.288
 5859WAT  OW   23433   3.794   1.503   1.432
 5859WAT  HW1  23434   3.848   1.518   1.510
 5859WAT  HW2  23435   3.769   1.591   1.403
 5859WAT  MW   23436   3.798   1.517   1.439
 5860WAT  OW   23437   2.345   4.344   1.068
 5860WAT  HW1  23438   2.285   4.404   1.113
 5860WAT  HW2  23439   2.339   4.370   0.976
 5860WAT  MW   23440   2.336   4.356   1.062
 5861WAT  OW   23441   5.251   1.911   0.816
 5861WAT  HW1  23442   5.299   1.831   0.795
 5861WAT  HW2  23443   5.166   1.882   0.846
 5861WAT  MW   23444   5.246   1.897   0.817
 5862WAT  OW   23445   4.694   3.048   2.421
 5862WAT  HW1  23446   4.699   2.962   2.379
 5862WAT  HW2  23447   4.619   3.091   2.379
 5862WAT  MW   23448   4.685   3.042   2.410
 5863WAT  OW   23449   3.916   6.455   0.366
 5863WAT  HW1  23450   4.009   6.477   0.361
 5863WAT  HW2  23451   3.915   6.360   0.378
 5863WAT  MW   23452   3.929   6.446   0.367
 5864WAT  OW   23453   2.631   2.256   0.059
 5864WAT  HW1  23454   2.549   2.217   0.087
 5864WAT  HW2  23455   2.672   2.287   0.140
 5864WAT  MW   23456   2.626   2.255   0.073
 5865WAT  OW   23457   3.036   3.015   0.096
 5865WAT  HW1  23458   3.125   3.048   0.111
 5865WAT  HW2  23459   2.981   3.069   0.153
 5865WAT  MW   23460   3.041   3.027   0.106
 5866WAT  OW   23461   6.287   3.015   4.221
 5866WAT  HW1  23462   6.223   3.085   4.234
 5866WAT  HW2  23463   6.244   2.936   4.254
 5866WAT  MW   23464   6.273   3.014   4.227
 5867WAT  OW   23465   3.558   1.832   2.260
 5867WAT  HW1  23466   3.572   1.754   2.207
 5867WAT  HW2  23467   3.638   1.883   2.248
 5867WAT  MW   23468   3.570   1.829   2.251
 5868WAT  OW   23469   2.452   3.898   5.725
 5868WAT  HW1  23470   2.365   3.875   5.694
 5868WAT  HW2  23471   2.507   3.894   5.646
 5868WAT  MW   23472   2.448   3.894   5.710
 5869WAT  OW   23473   6.225   1.186   2.265
 5869WAT  HW1  23474   6.277   1.177   2.345
 5869WAT  HW2  23475   6.146   1.135   2.282
 5869WAT  MW   23476   6.221   1.178   2.278
 5870WAT  OW   23477   3.862   2.342   1.687
 5870WAT  HW1  23478   3.801   2.381   1.750
 5870WAT  HW2  23479   3.936   2.402   1.685
 5870WAT  MW   23480   3.864   2.355   1.695
 5871WAT  OW   23481   3.915   4.461   3.543
 5871WAT  HW1  23482   3.937   4.371   3.568
 5871WAT  HW2  23483   3.820   4.463   3.543
 5871WAT  MW   23484   3.906   4.449   3.547
 5872WAT  OW   23485   2.103   6.186   5.234
 5872WAT  HW1  23486   2.081   6.186   5.328
 5872WAT  HW2  23487   2.094   6.277   5.207
 5872WAT  MW   23488   2.099   6.198   5.243
 5873WAT  OW   23489   1.709   0.594   0.819
 5873WAT  HW1  23490   1.724   0.517   0.875
 5873WAT  HW2  23491   1.781   0.654   0.840
 5873WAT  MW   23492   1.720   0.592   0.830
 5874WAT  OW   23493   5.771   3.148   0.211
 5874WAT  HW1  23494   5.783   3.062   0.171
 5874WAT  HW2  23495   5.692   3.183   0.170
 5874WAT  MW   23496   5.762   3.141   0.200
 5875WAT  OW   23497   4.687   3.708   1.459
 5875WAT  HW1  23498   4.668   3.628   1.411
 5875WAT  HW2  23499   4.630   3.774   1.418
 5875WAT  MW   23500   4.677   3.706   1.447
 5876WAT  OW   23501   4.803   6.016   2.026
 5876WAT  HW1  23502   4.819   6.109   2.039
 5876WAT  HW2  23503   4.802   6.004   1.931
 5876WAT  MW   23504   4.805   6.027   2.015
 5877WAT  OW   23505   5.093   5.600   4.608
 5877WAT  HW1  23506   5.140   5.679   4.580
 5877WAT  HW2  23507   5.153   5.557   4.669
 5877WAT  MW   23508   5.107   5.605   4.612
 5878WAT  OW   23509   1.200   1.138   1.572
 5878WAT  HW1  23510   1.258   1.209   1.599
 5878WAT  HW2  23511   1.152   1.173   1.497
 5878WAT  MW   23512   1.201   1.152   1.565
 5879WAT  OW   23513   0.826   0.912   6.343
 5879WAT  HW1  23514   0.794   0.821   6.348
 5879WAT  HW2  23515   0.808   0.939   6.253
 5879WAT  MW   23516   0.819   0.903   6.332
 5880WAT  OW   23517   3.789   3.239   5.648
 5880WAT  HW1  23518   3.794   3.202   5.736
 5880WAT  HW2  23519   3.781   3.333   5.661
 5880WAT  MW   23520   3.788   3.246   5.661
 5881WAT  OW   23521   4.914   1.351   4.924
 5881WAT  HW1  23522   4.920   1.348   5.019
 5881WAT  HW2  23523   4.823   1.329   4.905
 5881WAT  MW   23524   4.903   1.348   4.934
 5882WAT  OW   23525   0.020   1.097   4.941
 5882WAT  HW1  23526  -0.058   1.061   4.899
 5882WAT  HW2  23527   0.013   1.069   5.032
 5882WAT  MW   23528   0.009   1.088   4.948
 5883WAT  OW   23529   2.222   0.999   3.579
 5883WAT  HW1  23530   2.199   1.062   3.647
 5883WAT  HW2  23531   2.299   1.038   3.536
 5883WAT  MW   23532   2.229   1.012   3.582
 5884WAT  OW   23533   2.131   1.808   1.602
 5884WAT  HW1  23534   2.175   1.890   1.581
 5884WAT  HW2  23535   2.038   1.827   1.591
 5884WAT  MW   23536   2.124   1.821   1.598
 5885WAT  OW   23537   3.085   4.900   4.043
 5885WAT  HW1  23538   3.077   4.826   4.102
 5885WAT  HW2  23539   3.095   4.861   3.956
 5885WAT  MW   23540   3.085   4.885   4.039
 5886WAT  OW   23541   6.245   1.162   2.741
 5886WAT  HW1  23542   6.153   1.146   2.721
 5886WAT  HW2  23543   6.277   1.079   2.773
 5886WAT  MW   23544   6.237   1.149   2.742
 5887WAT  OW   23545   3.652   3.471   1.382
 5887WAT  HW1  23546   3.603   3.437   1.308
 5887WAT  HW2  23547   3.632   3.564   1.384
 5887WAT  MW   23548   3.643   3.479   1.373
 5888WAT  OW   23549   3.745   6.645   5.332
 5888WAT  HW1  23550   3.693   6.571   5.301
 5888WAT  HW2  23551   3.833   6.629   5.296
 5888WAT  MW   23552   3.750   6.633   5.323
 5889WAT  OW   23553   0.676   2.069   4.233
 5889WAT  HW1  23554   0.668   2.046   4.141
 5889WAT  HW2  23555   0.769   2.090   4.244
 5889WAT  MW   23556   0.687   2.069   4.223
 5890WAT  OW   23557   5.438   2.084   5.516
 5890WAT  HW1  23558   5.462   2.162   5.467
 5890WAT  HW2  23559   5.436   2.014   5.451
 5890WAT  MW   23560   5.441   2.085   5.501
 5891WAT  OW   23561   6.127   2.604   3.471
 5891WAT  HW1  23562   6.047   2.575   3.428
 5891WAT  HW2  23563   6.116   2.698   3.482
 5891WAT  MW   23564   6.115   2.612   3.467
 5892WAT  OW   23565   1.721   0.299   6.414
 5892WAT  HW1  23566   1.718   0.231   6.347
 5892WAT  HW2  23567   1.780   0.365   6.378
 5892WAT  MW   23568   1.729   0.299   6.400
 5893WAT  OW   23569   3.003   2.768   6.554
 5893WAT  HW1  23570   3.093   2.798   6.566
 5893WAT  HW2  23571   2.995   2.750   6.460
 5893WAT  MW   23572   3.014   2.770   6.543
 5894WAT  OW   23573   5.609   4.889   3.304
 5894WAT  HW1  23574   5.653   4.853   3.381
 5894WAT  HW2  23575   5.610   4.984   3.318
 5894WAT  MW   23576   5.615   4.897   3.316
 5895WAT  OW   23577   5.305   2.278   4.744
 5895WAT  HW1  23578   5.374   2.262   4.680
 5895WAT  HW2  23579   5.227   2.236   4.705
 5895WAT  MW   23580   5.304   2.270   4.730
 5896WAT  OW   23581   3.248   2.943   5.823
 5896WAT  HW1  23582   3.309   2.890   5.773
 5896WAT  HW2  23583   3.286   3.031   5.823
 5896WAT  MW   23584   3.261   2.948   5.817
 5897WAT  OW   23585   4.938   3.440   0.422
 5897WAT  HW1  23586   4.891   3.357   0.410
 5897WAT  HW2  23587   4.901   3.477   0.502
 5897WAT  MW   23588   4.927   3.434   0.431
 5898WAT  OW   23589   4.635   4.061   1.088
 5898WAT  HW1  23590   4.611   3.972   1.061
 5898WAT  HW2  23591   4.712   4.049   1.144
 5898WAT  MW   23592   4.642   4.047   1.092
 5899WAT  OW   23593   3.025   2.315   5.966
 5899WAT  HW1  23594   3.017   2.234   6.016
 5899WAT  HW2  23595   3.117   2.340   5.974
 5899WAT  MW   23596   3.036   2.308   5.974
 5900WAT  OW   23597   5.499   3.960   2.668
 5900WAT  HW1  23598   5.568   3.898   2.691
 5900WAT  HW2  23599   5.534   4.009   2.594
 5900WAT  MW   23600   5.513   3.958   2.662
 5901WAT  OW   23601   1.532   3.318   0.467
 5901WAT  HW1  23602   1.530   3.289   0.375
 5901WAT  HW2  23603   1.495   3.406   0.465
 5901WAT  MW   23604   1.527   3.326   0.454
 5902WAT  OW   23605   3.737   4.083   2.695
 5902WAT  HW1  23606   3.696   4.143   2.634
 5902WAT  HW2  23607   3.695   4.100   2.779
 5902WAT  MW   23608   3.726   4.093   2.698
 5903WAT  OW   23609   6.200   4.937   0.172
 5903WAT  HW1  23610   6.162   4.960   0.087
 5903WAT  HW2  23611   6.124   4.914   0.226
 5903WAT  MW   23612   6.185   4.937   0.168
 5904WAT  OW   23613   0.617   3.885   3.573
 5904WAT  HW1  23614   0.569   3.963   3.545
 5904WAT  HW2  23615   0.556   3.837   3.628
 5904WAT  MW   23616   0.603   3.889   3.576
 5905WAT  OW   23617   3.468   0.408   1.366
 5905WAT  HW1  23618   3.379   0.382   1.342
 5905WAT  HW2  23619   3.518   0.399   1.285
 5905WAT  MW   23620   3.463   0.403   1.352
 5906WAT  OW   23621   3.358   2.215   2.346
 5906WAT  HW1  23622   3.409   2.232   2.267
 5906WAT  HW2  23623   3.399   2.270   2.413
 5906WAT  MW   23624   3.370   2.224   2.345
 5907WAT  OW   23625   1.390   3.891   0.697
 5907WAT  HW1  23626   1.387   3.986   0.686
 5907WAT  HW2  23627   1.314   3.870   0.751
 5907WAT  MW   23628   1.380   3.900   0.702
 5908WAT  OW   23629   1.179   6.565   2.493
 5908WAT  HW1  23630   1.153   6.653   2.465
 5908WAT  HW2  23631   1.130   6.506   2.435
 5908WAT  MW   23632   1.169   6.569   2.482
 5909WAT  OW   23633   2.411   5.500   1.916
 5909WAT  HW1  23634   2.468   5.566   1.876
 5909WAT  HW2  23635   2.323   5.522   1.884
 5909WAT  MW   23636   2.407   5.512   1.906
 5910WAT  OW   23637   1.250   0.128   1.392
 5910WAT  HW1  23638   1.239   0.162   1.303
 5910WAT  HW2  23639   1.180   0.169   1.442
 5910WAT  MW   23640   1.239   0.138   1.387
 5911WAT  OW   23641   2.677   1.567   5.049
 5911WAT  HW1  23642   2.668   1.657   5.079
 5911WAT  HW2  23643   2.660   1.514   5.127
 5911WAT  MW   23644   2.674   1.572   5.064
 5912WAT  OW   23645   4.005   5.133   4.490
 5912WAT  HW1  23646   3.944   5.097   4.555
 5912WAT  HW2  23647   4.073   5.067   4.482
 5912WAT  MW   23648   4.006   5.120   4.498
 5913WAT  OW   23649   6.184   0.315   0.917
 5913WAT  HW1  23650   6.133   0.308   0.998
 5913WAT  HW2  23651   6.177   0.407   0.893
 5913WAT  MW   23652   6.176   0.326   0.925
 5914WAT  OW   23653   2.391   0.946   3.870
 5914WAT  HW1  23654   2.339   0.909   3.799
 5914WAT  HW2  23655   2.429   1.026   3.833
 5914WAT  MW   23656   2.389   0.952   3.856
 5915WAT  OW   23657   4.317   4.623   5.763
 5915WAT  HW1  23658   4.230   4.636   5.801
 5915WAT  HW2  23659   4.377   4.635   5.836
 5915WAT  MW   23660   4.314   4.627   5.777
 5916WAT  OW   23661   6.667   6.546   3.966
 5916WAT  HW1  23662   6.746   6.496   3.946
 5916WAT  HW2  23663   6.698   6.636   3.979
 5916WAT  MW   23664   6.682   6.552   3.965
 5917WAT  OW   23665   3.422   1.658   0.997
 5917WAT  HW1  23666   3.398   1.720   0.927
 5917WAT  HW2  23667   3.502   1.617   0.965
 5917WAT  MW   23668   3.429   1.661   0.983
 5918WAT  OW   23669   1.132   5.600   0.564
 5918WAT  HW1  23670   1.180   5.594   0.482
 5918WAT  HW2  23671   1.200   5.603   0.631
 5918WAT  MW   23672   1.147   5.600   0.562
 5919WAT  OW   23673   5.641   6.405   2.707
 5919WAT  HW1  23674   5.684   6.322   2.726
 5919WAT  HW2  23675   5.575   6.414   2.776
 5919WAT  MW   23676   5.638   6.395   2.718
 5920WAT  OW   23677   3.263   0.958   3.123
 5920WAT  HW1  23678   3.313   0.955   3.204
 5920WAT  HW2  23679   3.245   0.867   3.101
 5920WAT  MW   23680   3.267   0.946   3.130
 5921WAT  OW   23681   5.324   6.386   2.629
 5921WAT  HW1  23682   5.288   6.341   2.553
 5921WAT  HW2  23683   5.256   6.448   2.655
 5921WAT  MW   23684   5.310   6.388   2.622
 5922WAT  OW   23685   6.503   6.378   2.216
 5922WAT  HW1  23686   6.516   6.430   2.296
 5922WAT  HW2  23687   6.524   6.289   2.242
 5922WAT  MW   23688   6.508   6.373   2.230
 5923WAT  OW   23689   1.043   4.855   1.659
 5923WAT  HW1  23690   1.034   4.814   1.574
 5923WAT  HW2  23691   0.957   4.894   1.676
 5923WAT  MW   23692   1.030   4.855   1.650
 5924WAT  OW   23693   3.293   1.621   4.909
 5924WAT  HW1  23694   3.384   1.633   4.935
 5924WAT  HW2  23695   3.250   1.703   4.931
 5924WAT  MW   23696   3.299   1.633   4.915
 5925WAT  OW   23697   4.950   5.606   0.992
 5925WAT  HW1  23698   4.988   5.528   0.952
 5925WAT  HW2  23699   4.885   5.637   0.928
 5925WAT  MW   23700   4.946   5.600   0.978
 5926WAT  OW   23701   2.357   0.071   4.605
 5926WAT  HW1  23702   2.441   0.025   4.596
 5926WAT  HW2  23703   2.357   0.134   4.533
 5926WAT  MW   23704   2.368   0.073   4.594
 5927WAT  OW   23705   3.453   1.001   0.360
 5927WAT  HW1  23706   3.507   0.946   0.303
 5927WAT  HW2  23707   3.451   1.086   0.315
 5927WAT  MW   23708   3.460   1.005   0.346
 5928WAT  OW   23709   5.102   0.552   4.148
 5928WAT  HW1  23710   5.137   0.497   4.079
 5928WAT  HW2  23711   5.167   0.623   4.158
 5928WAT  MW   23712   5.115   0.554   4.140
 5929WAT  OW   23713   0.123   4.901   2.009
 5929WAT  HW1  23714   0.098   4.875   2.097
 5929WAT  HW2  23715   0.040   4.914   1.963
 5929WAT  MW   23716   0.109   4.899   2.014
 5930WAT  OW   23717   5.874   6.144   5.804
 5930WAT  HW1  23718   5.912   6.061   5.834
 5930WAT  HW2  23719   5.792   6.118   5.762
 5930WAT  MW   23720   5.868   6.129   5.803
 5931WAT  OW   23721   6.576   1.863   5.181
 5931WAT  HW1  23722   6.630   1.856   5.259
 5931WAT  HW2  23723   6.559   1.957   5.172
 5931WAT  MW   23724   6.581   1.874   5.190
 5932WAT  OW   23725   6.111   5.125   6.644
 5932WAT  HW1  23726   6.182   5.143   6.705
 5932WAT  HW2  23727   6.044   5.189   6.666
 5932WAT  MW   23728   6.112   5.136   6.655
 5933WAT  OW   23729   4.089   0.236   0.030
 5933WAT  HW1  23730   4.018   0.173   0.039
 5933WAT  HW2  23731   4.107   0.240  -0.064
 5933WAT  MW   23732   4.082   0.229   0.019
 5934WAT  OW   23733   1.344   2.531   0.880
 5934WAT  HW1  23734   1.259   2.489   0.865
 5934WAT  HW2  23735   1.408   2.461   0.865
 5934WAT  MW   23736   1.342   2.516   0.876
 5935WAT  OW   23737   1.532   3.609   4.228
 5935WAT  HW1  23738   1.560   3.539   4.170
 5935WAT  HW2  23739   1.604   3.672   4.228
 5935WAT  MW   23740   1.545   3.608   4.221
 5936WAT  OW   23741   6.278   3.060   4.737
 5936WAT  HW1  23742   6.320   3.055   4.651
 5936WAT  HW2  23743   6.191   3.096   4.719
 5936WAT  MW   23744   6.272   3.064   4.723
 5937WAT  OW   23745   5.776   5.442   6.147
 5937WAT  HW1  23746   5.813   5.527   6.170
 5937WAT  HW2  23747   5.687   5.461   6.117
 5937WAT  MW   23748   5.769   5.456   6.146
 5938WAT  OW   23749   3.039   3.844   6.588
 5938WAT  HW1  23750   3.028   3.766   6.643
 5938WAT  HW2  23751   2.965   3.842   6.527
 5938WAT  MW   23752   3.028   3.833   6.587
 5939WAT  OW   23753   6.118   2.127   0.525
 5939WAT  HW1  23754   6.070   2.203   0.559
 5939WAT  HW2  23755   6.084   2.115   0.436
 5939WAT  MW   23756   6.107   2.135   0.518
 5940WAT  OW   23757   4.701   3.346   1.668
 5940WAT  HW1  23758   4.762   3.345   1.594
 5940WAT  HW2  23759   4.653   3.263   1.660
 5940WAT  MW   23760   4.703   3.335   1.657
 5941WAT  OW   23761   5.266   5.869   5.789
 5941WAT  HW1  23762   5.220   5.804   5.843
 5941WAT  HW2  23763   5.358   5.862   5.814
 5941WAT  MW   23764   5.272   5.860   5.799
 5942WAT  OW   23765   3.714   1.235   4.215
 5942WAT  HW1  23766   3.675   1.307   4.265
 5942WAT  HW2  23767   3.735   1.168   4.280
 5942WAT  MW   23768   3.712   1.236   4.230
 5943WAT  OW   23769   1.779   4.446   5.251
 5943WAT  HW1  23770   1.775   4.380   5.182
 5943WAT  HW2  23771   1.701   4.429   5.305
 5943WAT  MW   23772   1.768   4.435   5.249
 5944WAT  OW   23773   0.354   0.874   1.721
 5944WAT  HW1  23774   0.379   0.951   1.670
 5944WAT  HW2  23775   0.391   0.800   1.673
 5944WAT  MW   23776   0.362   0.874   1.708
 5945WAT  OW   23777   1.675   4.874   0.496
 5945WAT  HW1  23778   1.664   4.968   0.482
 5945WAT  HW2  23779   1.586   4.842   0.513
 5945WAT  MW   23780   1.662   4.882   0.497
 5946WAT  OW   23781   6.097   2.981   2.588
 5946WAT  HW1  23782   6.108   3.074   2.570
 5946WAT  HW2  23783   6.071   2.943   2.504
 5946WAT  MW   23784   6.095   2.988   2.575
 5947WAT  OW   23785   0.509   6.279   5.785
 5947WAT  HW1  23786   0.499   6.267   5.691
 5947WAT  HW2  23787   0.604   6.290   5.798
 5947WAT  MW   23788   0.520   6.279   5.774
 5948WAT  OW   23789   1.271   6.145   5.271
 5948WAT  HW1  23790   1.282   6.239   5.285
 5948WAT  HW2  23791   1.178   6.129   5.290
 5948WAT  MW   23792   1.260   6.156   5.275
 5949WAT  OW   23793   5.658   3.171   5.707
 5949WAT  HW1  23794   5.612   3.211   5.780
 5949WAT  HW2  23795   5.590   3.127   5.657
 5949WAT  MW   23796   5.643   3.171   5.710
 5950WAT  OW   23797   1.968   2.979   5.112
 5950WAT  HW1  23798   2.015   2.948   5.034
 5950WAT  HW2  23799   1.924   2.901   5.145
 5950WAT  MW   23800   1.969   2.964   5.106
 5951WAT  OW   23801   0.624   4.088   1.516
 5951WAT  HW1  23802   0.529   4.091   1.517
 5951WAT  HW2  23803   0.647   4.068   1.426
 5951WAT  MW   23804   0.615   4.086   1.504
 5952WAT  OW   23805   4.174   5.974   3.027
 5952WAT  HW1  23806   4.198   6.008   2.941
 5952WAT  HW2  23807   4.130   6.047   3.071
 5952WAT  MW   23808   4.171   5.988   3.021
 5953WAT  OW   23809   4.635   6.515   2.208
 5953WAT  HW1  23810   4.729   6.525   2.221
 5953WAT  HW2  23811   4.599   6.602   2.227
 5953WAT  MW   23812   4.643   6.528   2.212
 5954WAT  OW   23813   5.283   1.372   3.563
 5954WAT  HW1  23814   5.273   1.430   3.639
 5954WAT  HW2  23815   5.308   1.431   3.492
 5954WAT  MW   23816   5.285   1.388   3.564
 5955WAT  OW   23817   0.102   3.090   2.311
 5955WAT  HW1  23818   0.161   3.120   2.380
 5955WAT  HW2  23819   0.032   3.044   2.357
 5955WAT  MW   23820   0.101   3.088   2.326
 5956WAT  OW   23821   2.478   4.203   2.627
 5956WAT  HW1  23822   2.569   4.172   2.627
 5956WAT  HW2  23823   2.481   4.281   2.684
 5956WAT  MW   23824   2.491   4.209   2.635
 5957WAT  OW   23825   4.189   1.335   5.351
 5957WAT  HW1  23826   4.264   1.276   5.361
 5957WAT  HW2  23827   4.204   1.377   5.266
 5957WAT  MW   23828   4.201   1.333   5.341
 5958WAT  OW   23829   5.333   3.004   1.344
 5958WAT  HW1  23830   5.396   3.016   1.415
 5958WAT  HW2  23831   5.253   2.974   1.389
 5958WAT  MW   23832   5.330   3.001   1.360
 5959WAT  OW   23833   6.182   5.857   0.896
 5959WAT  HW1  23834   6.137   5.915   0.958
 5959WAT  HW2  23835   6.217   5.786   0.949
 5959WAT  MW   23836   6.180   5.855   0.911
 5960WAT  OW   23837   1.161   1.755   3.895
 5960WAT  HW1  23838   1.133   1.704   3.971
 5960WAT  HW2  23839   1.087   1.751   3.835
 5960WAT  MW   23840   1.148   1.748   3.897
 5961WAT  OW   23841   6.617   5.297   2.158
 5961WAT  HW1  23842   6.548   5.326   2.099
 5961WAT  HW2  23843   6.672   5.374   2.171
 5961WAT  MW   23844   6.615   5.311   2.152
 5962WAT  OW   23845   2.685   1.762   3.487
 5962WAT  HW1  23846   2.674   1.736   3.578
 5962WAT  HW2  23847   2.694   1.679   3.439
 5962WAT  MW   23848   2.684   1.748   3.493
 5963WAT  OW   23849   6.593   1.093   1.458
 5963WAT  HW1  23850   6.502   1.067   1.475
 5963WAT  HW2  23851   6.626   1.027   1.397
 5963WAT  MW   23852   6.585   1.081   1.452
 5964WAT  OW   23853   3.775   5.113   5.139
 5964WAT  HW1  23854   3.704   5.068   5.093
 5964WAT  HW2  23855   3.852   5.057   5.125
 5964WAT  MW   23856   3.776   5.099   5.131
 5965WAT  OW   23857   0.870   2.756   2.392
 5965WAT  HW1  23858   0.823   2.791   2.316
 5965WAT  HW2  23859   0.915   2.678   2.358
 5965WAT  MW   23860   0.870   2.750   2.377
 5966WAT  OW   23861   3.042   3.499   5.166
 5966WAT  HW1  23862   2.998   3.509   5.081
 5966WAT  HW2  23863   3.024   3.408   5.191
 5966WAT  MW   23864   3.034   3.488   5.158
 5967WAT  OW   23865   5.603   2.323   2.150
 5967WAT  HW1  23866   5.512   2.349   2.135
 5967WAT  HW2  23867   5.646   2.339   2.066
 5967WAT  MW   23868   5.597   2.328   2.137
 5968WAT  OW   23869   5.622   3.325   0.498
 5968WAT  HW1  23870   5.699   3.362   0.454
 5968WAT  HW2  23871   5.588   3.397   0.550
 5968WAT  MW   23872   5.628   3.340   0.499
 5969WAT  OW   23873   4.790   6.239   5.692
 5969WAT  HW1  23874   4.786   6.308   5.625
 5969WAT  HW2  23875   4.839   6.168   5.651
 5969WAT  MW   23876   4.796   6.239   5.678
 5970WAT  OW   23877   2.434   6.354   1.658
 5970WAT  HW1  23878   2.431   6.438   1.705
 5970WAT  HW2  23879   2.464   6.377   1.570
 5970WAT  MW   23880   2.438   6.368   1.653
 5971WAT  OW   23881   2.891   0.090   0.051
 5971WAT  HW1  23882   2.903   0.053   0.139
 5971WAT  HW2  23883   2.819   0.151   0.061
 5971WAT  MW   23884   2.883   0.093   0.064
 5972WAT  OW   23885   6.443   4.589   2.827
 5972WAT  HW1  23886   6.480   4.639   2.755
 5972WAT  HW2  23887   6.425   4.653   2.895
 5972WAT  MW   23888   6.446   4.604   2.827
 5973WAT  OW   23889   1.303   2.823   3.916
 5973WAT  HW1  23890   1.240   2.885   3.954
 5973WAT  HW2  23891   1.283   2.740   3.958
 5973WAT  MW   23892   1.292   2.820   3.926
 5974WAT  OW   23893   5.032   2.612   1.583
 5974WAT  HW1  23894   5.107   2.624   1.642
 5974WAT  HW2  23895   4.976   2.688   1.600
 5974WAT  MW   23896   5.035   2.624   1.593
 5975WAT  OW   23897   1.855   5.027   1.141
 5975WAT  HW1  23898   1.872   4.994   1.052
 5975WAT  HW2  23899   1.922   4.985   1.195
 5975WAT  MW   23900   1.866   5.017   1.136
 5976WAT  OW   23901   2.597   5.958   1.726
 5976WAT  HW1  23902   2.618   6.050   1.744
 5976WAT  HW2  23903   2.528   5.962   1.660
 5976WAT  MW   23904   2.591   5.971   1.720
 5977WAT  OW   23905   4.672   0.696   2.404
 5977WAT  HW1  23906   4.612   0.741   2.464
 5977WAT  HW2  23907   4.753   0.686   2.454
 5977WAT  MW   23908   4.675   0.701   2.419
 5978WAT  OW   23909   0.372   0.611   1.605
 5978WAT  HW1  23910   0.408   0.575   1.524
 5978WAT  HW2  23911   0.278   0.591   1.600
 5978WAT  MW   23912   0.364   0.603   1.594
 5979WAT  OW   23913   3.471   4.532   2.396
 5979WAT  HW1  23914   3.504   4.459   2.343
 5979WAT  HW2  23915   3.529   4.605   2.374
 5979WAT  MW   23916   3.483   4.532   2.386
 5980WAT  OW   23917   1.369   3.784   3.951
 5980WAT  HW1  23918   1.395   3.820   3.867
 5980WAT  HW2  23919   1.446   3.734   3.981
 5980WAT  MW   23920   1.383   3.782   3.944
 5981WAT  OW   23921   3.905   5.811   4.669
 5981WAT  HW1  23922   3.961   5.875   4.714
 5981WAT  HW2  23923   3.958   5.732   4.665
 5981WAT  MW   23924   3.919   5.809   4.675
 5982WAT  OW   23925   2.424   1.592   3.483
 5982WAT  HW1  23926   2.377   1.667   3.520
 5982WAT  HW2  23927   2.504   1.586   3.535
 5982WAT  MW   23928   2.428   1.601   3.495
 5983WAT  OW   23929   5.831   2.225   0.467
 5983WAT  HW1  23930   5.804   2.169   0.394
 5983WAT  HW2  23931   5.808   2.175   0.546
 5983WAT  MW   23932   5.824   2.211   0.468
 5984WAT  OW   23933   5.045   4.828   2.009
 5984WAT  HW1  23934   5.129   4.827   2.054
 5984WAT  HW2  23935   5.035   4.917   1.976
 5984WAT  MW   23936   5.055   4.839   2.011
 5985WAT  OW   23937   2.028   4.779   2.153
 5985WAT  HW1  23938   1.972   4.805   2.080
 5985WAT  HW2  23939   2.116   4.777   2.116
 5985WAT  MW   23940   2.032   4.782   2.139
 5986WAT  OW   23941   3.330   0.047   4.249
 5986WAT  HW1  23942   3.256   0.076   4.303
 5986WAT  HW2  23943   3.292  -0.018   4.190
 5986WAT  MW   23944   3.315   0.042   4.248
 5987WAT  OW   23945   4.969   0.863   6.180
 5987WAT  HW1  23946   5.048   0.910   6.153
 5987WAT  HW2  23947   4.918   0.927   6.230
 5987WAT  MW   23948   4.972   0.878   6.183
 5988WAT  OW   23949   5.179   2.936   5.638
 5988WAT  HW1  23950   5.232   2.855   5.639
 5988WAT  HW2  23951   5.132   2.933   5.555
 5988WAT  MW   23952   5.180   2.925   5.627
 5989WAT  OW   23953   5.405   2.494   6.687
 5989WAT  HW1  23954   5.382   2.410   6.726
 5989WAT  HW2  23955   5.428   2.473   6.596
 5989WAT  MW   23956   5.405   2.480   6.680
 5990WAT  OW   23957   0.900   5.530   4.004
 5990WAT  HW1  23958   0.875   5.468   4.073
 5990WAT  HW2  23959   0.856   5.612   4.028
 5990WAT  MW   23960   0.891   5.532   4.016
 5991WAT  OW   23961   0.321   3.700   0.530
 5991WAT  HW1  23962   0.413   3.719   0.509
 5991WAT  HW2  23963   0.326   3.647   0.610
 5991WAT  MW   23964   0.334   3.696   0.538
 5992WAT  OW   23965   4.074   1.598   3.731
 5992WAT  HW1  23966   4.165   1.610   3.756
 5992WAT  HW2  23967   4.076   1.525   3.669
 5992WAT  MW   23968   4.086   1.590   3.726
 5993WAT  OW   23969   1.187   0.157   2.454
 5993WAT  HW1  23970   1.280   0.160   2.477
 5993WAT  HW2  23971   1.143   0.206   2.523
 5993WAT  MW   23972   1.194   0.164   2.466
 5994WAT  OW   23973   3.557   2.435   0.131
 5994WAT  HW1  23974   3.588   2.368   0.192
 5994WAT  HW2  23975   3.630   2.446   0.069
 5994WAT  MW   23976   3.571   2.428   0.131
 5995WAT  OW   23977   3.983   1.377   4.261
 5995WAT  HW1  23978   3.954   1.365   4.352
 5995WAT  HW2  23979   3.906   1.356   4.208
 5995WAT  MW   23980   3.969   1.373   4.266
 5996WAT  OW   23981   2.371   2.936   4.914
 5996WAT  HW1  23982   2.465   2.932   4.894
 5996WAT  HW2  23983   2.366   2.966   5.004
 5996WAT  MW   23984   2.383   2.939   4.923
 5997WAT  OW   23985   1.205   2.185   4.085
 5997WAT  HW1  23986   1.167   2.103   4.116
 5997WAT  HW2  23987   1.204   2.177   3.989
 5997WAT  MW   23988   1.200   2.173   4.076
 5998WAT  OW   23989   0.042   6.048   3.771
 5998WAT  HW1  23990  -0.024   6.104   3.730
 5998WAT  HW2  23991   0.045   6.077   3.862
 5998WAT  MW   23992   0.033   6.059   3.777
 5999WAT  OW   23993   6.469   5.831   5.993
 5999WAT  HW1  23994   6.475   5.921   5.963
 5999WAT  HW2  23995   6.439   5.837   6.084
 5999WAT  MW   23996   6.466   5.843   6.001
 6000WAT  OW   23997   5.892   3.794   4.411
 6000WAT  HW1  23998   5.903   3.699   4.414
 6000WAT  HW2  23999   5.896   3.821   4.502
 6000WAT  MW   24000   5.894   3.785   4.423
 6001WAT  OW   24001   6.532   2.515   5.425
 6001WAT  HW1  24002   6.598   2.583   5.410
 6001WAT  HW2  24003   6.582   2.434   5.430
 6001WAT  MW   24004   6.547   2.514   5.423
 6002WAT  OW   24005   1.821   0.601   0.101
 6002WAT  HW1  24006   1.852   0.660   0.170
 6002WAT  HW2  24007   1.844   0.645   0.020
 6002WAT  MW   24008   1.828   0.615   0.100
 6003WAT  OW   24009   2.984   0.746   5.193
 6003WAT  HW1  24010   3.073   0.719   5.218
 6003WAT  HW2  24011   2.930   0.670   5.213
 6003WAT  MW   24012   2.989   0.732   5.199
 6004WAT  OW   24013   2.926   0.235   1.452
 6004WAT  HW1  24014   2.950   0.257   1.542
 6004WAT  HW2  24015   2.997   0.180   1.420
 6004WAT  MW   24016   2.938   0.231   1.460
 6005WAT  OW   24017   3.173   5.304   5.845
 6005WAT  HW1  24018   3.199   5.382   5.895
 6005WAT  HW2  24019   3.099   5.334   5.791
 6005WAT  MW   24020   3.167   5.318   5.844
 6006WAT  OW   24021   2.519   1.669   0.310
 6006WAT  HW1  24022   2.462   1.647   0.383
 6006WAT  HW2  24023   2.555   1.585   0.282
 6006WAT  MW   24024   2.516   1.655   0.316
 6007WAT  OW   24025   4.994   4.229   2.016
 6007WAT  HW1  24026   4.987   4.322   1.991
 6007WAT  HW2  24027   4.912   4.190   1.985
 6007WAT  MW   24028   4.982   4.236   2.008
 6008WAT  OW   24029   4.240   3.760   0.187
 6008WAT  HW1  24030   4.320   3.812   0.192
 6008WAT  HW2  24031   4.171   3.823   0.168
 6008WAT  MW   24032   4.241   3.775   0.185
 6009WAT  OW   24033   1.712   1.602   6.197
 6009WAT  HW1  24034   1.769   1.570   6.128
 6009WAT  HW2  24035   1.771   1.633   6.265
 6009WAT  MW   24036   1.727   1.602   6.197
 6010WAT  OW   24037   3.739   6.010   2.008
 6010WAT  HW1  24038   3.729   6.036   2.100
 6010WAT  HW2  24039   3.829   5.979   2.001
 6010WAT  MW   24040   3.749   6.009   2.019
 6011WAT  OW   24041   2.246   2.849   1.211
 6011WAT  HW1  24042   2.194   2.810   1.141
 6011WAT  HW2  24043   2.262   2.777   1.272
 6011WAT  MW   24044   2.242   2.835   1.209
 6012WAT  OW   24045   1.916   1.657   2.301
 6012WAT  HW1  24046   1.864   1.620   2.372
 6012WAT  HW2  24047   1.869   1.633   2.221
 6012WAT  MW   24048   1.903   1.649   2.300
 6013WAT  OW   24049   6.455   3.879   2.660
 6013WAT  HW1  24050   6.364   3.908   2.661
 6013WAT  HW2  24051   6.481   3.877   2.752
 6013WAT  MW   24052   6.446   3.883   2.672
 6014WAT  OW   24053   2.774   3.421   6.190
 6014WAT  HW1  24054   2.750   3.344   6.242
 6014WAT  HW2  24055   2.821   3.385   6.115
 6014WAT  MW   24056   2.777   3.406   6.187
 6015WAT  OW   24057   4.898   2.762   4.696
 6015WAT  HW1  24058   4.908   2.854   4.669
 6015WAT  HW2  24059   4.874   2.767   4.789
 6015WAT  MW   24060   4.896   2.775   4.705
 6016WAT  OW   24061   5.277   0.009   1.973
 6016WAT  HW1  24062   5.204   0.040   2.027
 6016WAT  HW2  24063   5.235  -0.039   1.902
 6016WAT  MW   24064   5.262   0.007   1.971
 6017WAT  OW   24065   3.793   1.856   1.722
 6017WAT  HW1  24066   3.781   1.883   1.631
 6017WAT  HW2  24067   3.707   1.869   1.762
 6017WAT  MW   24068   3.780   1.862   1.716
 6018WAT  OW   24069   5.915   0.998   3.275
 6018WAT  HW1  24070   6.010   1.006   3.287
 6018WAT  HW2  24071   5.888   1.083   3.239
 6018WAT  MW   24072   5.924   1.010   3.272
 6019WAT  OW   24073   0.025   6.230   3.284
 6019WAT  HW1  24074  -0.034   6.215   3.357
 6019WAT  HW2  24075   0.112   6.211   3.319
 6019WAT  MW   24076   0.029   6.226   3.298
 6020WAT  OW   24077   3.968   4.568   3.795
 6020WAT  HW1  24078   3.929   4.554   3.709
 6020WAT  HW2  24079   3.980   4.663   3.801
 6020WAT  MW   24080   3.965   4.579   3.784
 6021WAT  OW   24081   5.065   6.169   1.485
 6021WAT  HW1  24082   5.109   6.087   1.510
 6021WAT  HW2  24083   5.004   6.187   1.556
 6021WAT  MW   24084   5.063   6.160   1.497
 6022WAT  OW   24085   3.799   0.269   4.974
 6022WAT  HW1  24086   3.819   0.265   5.067
 6022WAT  HW2  24087   3.883   0.251   4.931
 6022WAT  MW   24088   3.813   0.266   4.980
 6023WAT  OW   24089   3.460   3.973   0.998
 6023WAT  HW1  24090   3.382   3.932   1.035
 6023WAT  HW2  24091   3.439   4.067   0.998
 6023WAT  MW   24092   3.447   3.980   1.003
 6024WAT  OW   24093   5.390   2.322   6.218
 6024WAT  HW1  24094   5.467   2.266   6.213
 6024WAT  HW2  24095   5.320   2.265   6.250
 6024WAT  MW   24096   5.391   2.307   6.221
 6025WAT  OW   24097   5.028   5.382   3.511
 6025WAT  HW1  24098   5.118   5.415   3.516
 6025WAT  HW2  24099   5.038   5.288   3.495
 6025WAT  MW   24100   5.041   5.374   3.510
 6026WAT  OW   24101   6.526   5.210   6.038
 6026WAT  HW1  24102   6.524   5.298   6.076
 6026WAT  HW2  24103   6.619   5.191   6.027
 6026WAT  MW   24104   6.538   5.219   6.042
 6027WAT  OW   24105   5.483   5.119   6.368
 6027WAT  HW1  24106   5.428   5.197   6.363
 6027WAT  HW2  24107   5.571   5.152   6.386
 6027WAT  MW   24108   5.487   5.133   6.370
 6028WAT  OW   24109   1.786   5.109   1.648
 6028WAT  HW1  24110   1.739   5.096   1.565
 6028WAT  HW2  24111   1.847   5.036   1.653
 6028WAT  MW   24112   1.788   5.098   1.638
 6029WAT  OW   24113   1.254   3.058   6.272
 6029WAT  HW1  24114   1.194   3.002   6.223
 6029WAT  HW2  24115   1.224   3.147   6.254
 6029WAT  MW   24116   1.242   3.062   6.263
 6030WAT  OW   24117   5.970   2.640   3.763
 6030WAT  HW1  24118   5.983   2.615   3.671
 6030WAT  HW2  24119   6.019   2.722   3.772
 6030WAT  MW   24120   5.978   2.648   3.752
 6031WAT  OW   24121   4.501   3.440   0.374
 6031WAT  HW1  24122   4.518   3.394   0.456
 6031WAT  HW2  24123   4.531   3.529   0.390
 6031WAT  MW   24124   4.507   3.446   0.387
 6032WAT  OW   24125   6.519   2.295   4.465
 6032WAT  HW1  24126   6.497   2.323   4.555
 6032WAT  HW2  24127   6.493   2.369   4.411
 6032WAT  MW   24128   6.513   2.309   4.470
 6033WAT  OW   24129   4.515   5.887   6.442
 6033WAT  HW1  24130   4.500   5.974   6.405
 6033WAT  HW2  24131   4.429   5.861   6.477
 6033WAT  MW   24132   4.501   5.895   6.442
 6034WAT  OW   24133   2.341   1.528   4.558
 6034WAT  HW1  24134   2.346   1.621   4.538
 6034WAT  HW2  24135   2.388   1.486   4.486
 6034WAT  MW   24136   2.348   1.535   4.546
 6035WAT  OW   24137   2.574   2.774   6.296
 6035WAT  HW1  24138   2.486   2.809   6.306
 6035WAT  HW2  24139   2.632   2.844   6.325
 6035WAT  MW   24140   2.570   2.788   6.301
 6036WAT  OW   24141   1.069   0.101   0.176
 6036WAT  HW1  24142   0.994   0.128   0.228
 6036WAT  HW2  24143   1.082   0.009   0.197
 6036WAT  MW   24144   1.061   0.093   0.185
 6037WAT  OW   24145   1.200   1.571   5.057
 6037WAT  HW1  24146   1.115   1.526   5.061
 6037WAT  HW2  24147   1.177   1.664   5.052
 6037WAT  MW   24148   1.186   1.577   5.057
 6038WAT  OW   24149   4.361   0.538   6.014
 6038WAT  HW1  24150   4.360   0.597   5.938
 6038WAT  HW2  24151   4.433   0.476   5.995
 6038WAT  MW   24152   4.371   0.537   6.001
 6039WAT  OW   24153   5.949   6.463   1.332
 6039WAT  HW1  24154   6.012   6.512   1.384
 6039WAT  HW2  24155   5.875   6.522   1.320
 6039WAT  MW   24156   5.947   6.477   1.337
 6040WAT  OW   24157   3.369   1.587   4.492
 6040WAT  HW1  24158   3.459   1.561   4.507
 6040WAT  HW2  24159   3.370   1.683   4.499
 6040WAT  MW   24160   3.381   1.597   4.495
 6041WAT  OW   24161   4.889   1.372   0.942
 6041WAT  HW1  24162   4.804   1.370   0.898
 6041WAT  HW2  24163   4.946   1.318   0.889
 6041WAT  MW   24164   4.885   1.365   0.929
 6042WAT  OW   24165   3.712   4.339   5.521
 6042WAT  HW1  24166   3.742   4.406   5.582
 6042WAT  HW2  24167   3.747   4.366   5.436
 6042WAT  MW   24168   3.721   4.351   5.518
 6043WAT  OW   24169   0.523   0.177   4.003
 6043WAT  HW1  24170   0.573   0.096   4.009
 6043WAT  HW2  24171   0.446   0.162   4.058
 6043WAT  MW   24172   0.520   0.164   4.011
 6044WAT  OW   24173   0.937   2.380   6.487
 6044WAT  HW1  24174   1.015   2.323   6.491
 6044WAT  HW2  24175   0.906   2.383   6.577
 6044WAT  MW   24176   0.943   2.373   6.499
 6045WAT  OW   24177   6.364   2.508   4.600
 6045WAT  HW1  24178   6.275   2.532   4.573
 6045WAT  HW2  24179   6.351   2.449   4.674
 6045WAT  MW   24180   6.350   2.504   4.606
 6046WAT  OW   24181   6.335   3.414   5.480
 6046WAT  HW1  24182   6.246   3.433   5.449
 6046WAT  HW2  24183   6.337   3.449   5.569
 6046WAT  MW   24184   6.323   3.421   5.487
 6047WAT  OW   24185   2.296   0.914   0.202
 6047WAT  HW1  24186   2.316   0.959   0.120
 6047WAT  HW2  24187   2.366   0.941   0.261
 6047WAT  MW   24188   2.308   0.923   0.199
 6048WAT  OW   24189   5.027   3.645   2.913
 6048WAT  HW1  24190   5.046   3.602   2.830
 6048WAT  HW2  24191   5.092   3.610   2.974
 6048WAT  MW   24192   5.038   3.635   2.910
 6049WAT  OW   24193   2.323   6.423   6.485
 6049WAT  HW1  24194   2.302   6.402   6.576
 6049WAT  HW2  24195   2.337   6.338   6.443
 6049WAT  MW   24196   2.322   6.409   6.491
 6050WAT  OW   24197   3.036   2.983   4.967
 6050WAT  HW1  24198   3.115   3.000   5.018
 6050WAT  HW2  24199   3.068   2.971   4.877
 6050WAT  MW   24200   3.051   2.984   4.962
 6051WAT  OW   24201   4.903   1.410   0.337
 6051WAT  HW1  24202   4.911   1.329   0.387
 6051WAT  HW2  24203   4.835   1.459   0.382
 6051WAT  MW   24204   4.895   1.406   0.350
 6052WAT  OW   24205   6.659   5.369   6.531
 6052WAT  HW1  24206   6.673   5.339   6.621
 6052WAT  HW2  24207   6.564   5.379   6.523
 6052WAT  MW   24208   6.648   5.366   6.542
 6053WAT  OW   24209   5.847   4.223   3.767
 6053WAT  HW1  24210   5.929   4.191   3.729
 6053WAT  HW2  24211   5.874   4.286   3.833
 6053WAT  MW   24212   5.861   4.227   3.771
 6054WAT  OW   24213   5.405   6.636   2.547
 6054WAT  HW1  24214   5.388   6.543   2.560
 6054WAT  HW2  24215   5.485   6.639   2.495
 6054WAT  MW   24216   5.413   6.624   2.542
 6055WAT  OW   24217   2.994   1.528   3.981
 6055WAT  HW1  24218   3.005   1.449   3.929
 6055WAT  HW2  24219   2.963   1.497   4.066
 6055WAT  MW   24220   2.991   1.513   3.986
 6056WAT  OW   24221   0.658   3.071   1.554
 6056WAT  HW1  24222   0.641   3.158   1.519
 6056WAT  HW2  24223   0.591   3.060   1.622
 6056WAT  MW   24224   0.647   3.081   1.559
 6057WAT  OW   24225   0.460   2.570   1.517
 6057WAT  HW1  24226   0.472   2.626   1.593
 6057WAT  HW2  24227   0.409   2.496   1.551
 6057WAT  MW   24228   0.455   2.567   1.532
 6058WAT  OW   24229   3.444   0.398   0.613
 6058WAT  HW1  24230   3.434   0.428   0.523
 6058WAT  HW2  24231   3.474   0.307   0.604
 6058WAT  MW   24232   3.447   0.390   0.600
 6059WAT  OW   24233   6.104   4.001   4.647
 6059WAT  HW1  24234   6.047   4.055   4.593
 6059WAT  HW2  24235   6.044   3.950   4.702
 6059WAT  MW   24236   6.089   4.001   4.648
 6060WAT  OW   24237   6.677   4.152   6.476
 6060WAT  HW1  24238   6.692   4.161   6.571
 6060WAT  HW2  24239   6.582   4.144   6.467
 6060WAT  MW   24240   6.667   4.152   6.488
 6061WAT  OW   24241   3.304   3.214   2.327
 6061WAT  HW1  24242   3.342   3.297   2.299
 6061WAT  HW2  24243   3.232   3.199   2.266
 6061WAT  MW   24244   3.299   3.223   2.316
 6062WAT  OW   24245   4.502   3.155   6.037
 6062WAT  HW1  24246   4.596   3.134   6.038
 6062WAT  HW2  24247   4.475   3.148   6.129
 6062WAT  MW   24248   4.511   3.152   6.050
 6063WAT  OW   24249   3.053   3.978   2.382
 6063WAT  HW1  24250   3.030   3.912   2.448
 6063WAT  HW2  24251   3.141   3.956   2.355
 6063WAT  MW   24252   3.061   3.967   2.387
 6064WAT  OW   24253   3.044   1.486   2.913
 6064WAT  HW1  24254   3.135   1.495   2.885
 6064WAT  HW2  24255   2.994   1.483   2.831
 6064WAT  MW   24256   3.050   1.487   2.898
 6065WAT  OW   24257   0.206   3.186   3.158
 6065WAT  HW1  24258   0.268   3.125   3.200
 6065WAT  HW2  24259   0.262   3.246   3.109
 6065WAT  MW   24260   0.222   3.186   3.157
 6066WAT  OW   24261   6.265   0.989   3.575
 6066WAT  HW1  24262   6.251   1.038   3.494
 6066WAT  HW2  24263   6.277   0.898   3.546
 6066WAT  MW   24264   6.265   0.984   3.560
 6067WAT  OW   24265   5.529   3.522   2.133
 6067WAT  HW1  24266   5.484   3.440   2.153
 6067WAT  HW2  24267   5.466   3.571   2.079
 6067WAT  MW   24268   5.515   3.518   2.129
 6068WAT  OW   24269   0.988   3.503   5.716
 6068WAT  HW1  24270   1.061   3.494   5.655
 6068WAT  HW2  24271   1.005   3.584   5.763
 6068WAT  MW   24272   1.000   3.512   5.714
 6069WAT  OW   24273   1.234   3.173   2.212
 6069WAT  HW1  24274   1.293   3.117   2.162
 6069WAT  HW2  24275   1.146   3.148   2.183
 6069WAT  MW   24276   1.230   3.162   2.202
 6070WAT  OW   24277   3.008   0.318   5.207
 6070WAT  HW1  24278   3.068   0.379   5.165
 6070WAT  HW2  24279   2.936   0.373   5.239
 6070WAT  MW   24280   3.006   0.333   5.206
 6071WAT  OW   24281   0.999   0.196   5.115
 6071WAT  HW1  24282   1.092   0.193   5.090
 6071WAT  HW2  24283   0.980   0.108   5.148
 6071WAT  MW   24284   1.009   0.184   5.116
 6072WAT  OW   24285   2.050   2.949   0.679
 6072WAT  HW1  24286   1.968   2.953   0.727
 6072WAT  HW2  24287   2.026   2.925   0.590
 6072WAT  MW   24288   2.036   2.947   0.674
 6073WAT  OW   24289   6.296   0.006   3.046
 6073WAT  HW1  24290   6.327   0.096   3.042
 6073WAT  HW2  24291   6.298  -0.025   2.955
 6073WAT  MW   24292   6.300   0.014   3.034
 6074WAT  OW   24293   6.307   4.577   2.166
 6074WAT  HW1  24294   6.362   4.635   2.218
 6074WAT  HW2  24295   6.223   4.574   2.212
 6074WAT  MW   24296   6.303   4.584   2.179
 6075WAT  OW   24297   2.072   0.818   3.947
 6075WAT  HW1  24298   2.101   0.907   3.926
 6075WAT  HW2  24299   2.139   0.784   4.006
 6075WAT  MW   24300   2.085   0.825   3.952
 6076WAT  OW   24301   3.138   2.408   3.272
 6076WAT  HW1  24302   3.224   2.384   3.305
 6076WAT  HW2  24303   3.115   2.337   3.211
 6076WAT  MW   24304   3.146   2.395   3.268
 6077WAT  OW   24305   3.938   4.050   1.015
 6077WAT  HW1  24306   3.985   4.103   1.080
 6077WAT  HW2  24307   3.969   4.083   0.931
 6077WAT  MW   24308   3.948   4.061   1.012
 6078WAT  OW   24309   2.763   1.068   6.035
 6078WAT  HW1  24310   2.711   1.092   6.112
 6078WAT  HW2  24311   2.730   1.124   5.965
 6078WAT  MW   24312   2.752   1.079   6.036
 6079WAT  OW   24313   5.389   1.337   5.913
 6079WAT  HW1  24314   5.424   1.426   5.911
 6079WAT  HW2  24315   5.418   1.299   5.830
 6079WAT  MW   24316   5.397   1.344   5.901
 6080WAT  OW   24317   6.454   1.811   3.166
 6080WAT  HW1  24318   6.506   1.743   3.122
 6080WAT  HW2  24319   6.397   1.762   3.225
 6080WAT  MW   24320   6.454   1.795   3.168
 6081WAT  OW   24321   2.305   4.426   6.309
 6081WAT  HW1  24322   2.274   4.344   6.346
 6081WAT  HW2  24323   2.245   4.492   6.342
 6081WAT  MW   24324   2.293   4.424   6.318
 6082WAT  OW   24325   4.796   5.434   2.915
 6082WAT  HW1  24326   4.706   5.406   2.931
 6082WAT  HW2  24327   4.849   5.355   2.929
 6082WAT  MW   24328   4.791   5.420   2.919
 6083WAT  OW   24329   5.470   6.400   1.065
 6083WAT  HW1  24330   5.453   6.316   1.021
 6083WAT  HW2  24331   5.394   6.454   1.045
 6083WAT  MW   24332   5.458   6.396   1.057
 6084WAT  OW   24333   5.419   2.792   5.921
 6084WAT  HW1  24334   5.407   2.709   5.966
 6084WAT  HW2  24335   5.338   2.840   5.939
 6084WAT  MW   24336   5.407   2.788   5.929
 6085WAT  OW   24337   3.532   3.617   4.015
 6085WAT  HW1  24338   3.496   3.551   3.956
 6085WAT  HW2  24339   3.472   3.620   4.089
 6085WAT  MW   24340   3.519   3.609   4.017
 6086WAT  OW   24341   6.573   0.830   6.181
 6086WAT  HW1  24342   6.504   0.862   6.239
 6086WAT  HW2  24343   6.633   0.782   6.237
 6086WAT  MW   24344   6.572   0.828   6.196
 6087WAT  OW   24345   1.751   5.382   4.925
 6087WAT  HW1  24346   1.660   5.406   4.912
 6087WAT  HW2  24347   1.747   5.296   4.967
 6087WAT  MW   24348   1.739   5.374   4.929
 6088WAT  OW   24349   3.601   2.818   1.731
 6088WAT  HW1  24350   3.536   2.882   1.702
 6088WAT  HW2  24351   3.670   2.870   1.773
 6088WAT  MW   24352   3.602   2.833   1.733
 6089WAT  OW   24353   1.751   3.672   0.170
 6089WAT  HW1  24354   1.686   3.742   0.173
 6089WAT  HW2  24355   1.702   3.595   0.143
 6089WAT  MW   24356   1.736   3.671   0.167
 6090WAT  OW   24357   6.547   4.620   0.305
 6090WAT  HW1  24358   6.470   4.649   0.256
 6090WAT  HW2  24359   6.586   4.701   0.338
 6090WAT  MW   24360   6.542   4.634   0.303
 6091WAT  OW   24361   1.531   1.184   3.413
 6091WAT  HW1  24362   1.619   1.163   3.383
 6091WAT  HW2  24363   1.534   1.173   3.508
 6091WAT  MW   24364   1.543   1.180   3.421
 6092WAT  OW   24365   1.757   5.655   0.377
 6092WAT  HW1  24366   1.669   5.679   0.406
 6092WAT  HW2  24367   1.746   5.570   0.335
 6092WAT  MW   24368   1.744   5.647   0.376
 6093WAT  OW   24369   3.251   1.697   3.926
 6093WAT  HW1  24370   3.220   1.744   3.848
 6093WAT  HW2  24371   3.171   1.659   3.963
 6093WAT  MW   24372   3.236   1.698   3.920
 6094WAT  OW   24373   1.521   2.091   4.820
 6094WAT  HW1  24374   1.574   2.068   4.744
 6094WAT  HW2  24375   1.583   2.127   4.884
 6094WAT  MW   24376   1.536   2.093   4.819
 6095WAT  OW   24377   0.043   2.313   4.119
 6095WAT  HW1  24378   0.092   2.293   4.198
 6095WAT  HW2  24379   0.038   2.230   4.072
 6095WAT  MW   24380   0.049   2.299   4.123
 6096WAT  OW   24381   2.324   5.886   6.497
 6096WAT  HW1  24382   2.372   5.812   6.460
 6096WAT  HW2  24383   2.373   5.910   6.576
 6096WAT  MW   24384   2.336   5.879   6.503
 6097WAT  OW   24385   0.942   4.753   2.793
 6097WAT  HW1  24386   0.907   4.799   2.869
 6097WAT  HW2  24387   0.870   4.751   2.730
 6097WAT  MW   24388   0.928   4.759   2.795
 6098WAT  OW   24389   5.485   2.954   0.613
 6098WAT  HW1  24390   5.554   3.017   0.635
 6098WAT  HW2  24391   5.510   2.874   0.658
 6098WAT  MW   24392   5.497   2.952   0.622
 6099WAT  OW   24393   0.098   1.752   5.840
 6099WAT  HW1  24394   0.110   1.838   5.880
 6099WAT  HW2  24395   0.186   1.714   5.839
 6099WAT  MW   24396   0.111   1.758   5.845
 6100WAT  OW   24397   6.052   5.399   4.132
 6100WAT  HW1  24398   6.099   5.481   4.118
 6100WAT  HW2  24399   6.052   5.356   4.046
 6100WAT  MW   24400   6.058   5.404   4.119
 6101WAT  OW   24401   1.688   2.662   4.384
 6101WAT  HW1  24402   1.750   2.630   4.449
 6101WAT  HW2  24403   1.604   2.625   4.410
 6101WAT  MW   24404   1.685   2.653   4.396
 6102WAT  OW   24405   5.630   2.183   6.199
 6102WAT  HW1  24406   5.646   2.135   6.281
 6102WAT  HW2  24407   5.635   2.116   6.131
 6102WAT  MW   24408   5.633   2.168   6.201
 6103WAT  OW   24409   4.419   0.606   4.156
 6103WAT  HW1  24410   4.394   0.517   4.131
 6103WAT  HW2  24411   4.431   0.602   4.251
 6103WAT  MW   24412   4.417   0.594   4.165
 6104WAT  OW   24413   3.135   5.538   4.922
 6104WAT  HW1  24414   3.149   5.545   5.016
 6104WAT  HW2  24415   3.041   5.520   4.912
 6104WAT  MW   24416   3.124   5.536   4.933
 6105WAT  OW   24417   5.471   0.849   3.922
 6105WAT  HW1  24418   5.512   0.909   3.984
 6105WAT  HW2  24419   5.394   0.817   3.969
 6105WAT  MW   24420   5.466   0.853   3.937
 6106WAT  OW   24421   1.002   2.517   5.244
 6106WAT  HW1  24422   0.958   2.562   5.171
 6106WAT  HW2  24423   0.935   2.510   5.312
 6106WAT  MW   24424   0.987   2.522   5.243
 6107WAT  OW   24425   3.861   0.444   1.155
 6107WAT  HW1  24426   3.843   0.535   1.134
 6107WAT  HW2  24427   3.871   0.401   1.070
 6107WAT  MW   24428   3.860   0.450   1.141
 6108WAT  OW   24429   6.427   2.320   0.861
 6108WAT  HW1  24430   6.477   2.325   0.779
 6108WAT  HW2  24431   6.339   2.347   0.836
 6108WAT  MW   24432   6.422   2.324   0.847
 6109WAT  OW   24433   1.514   0.471   6.466
 6109WAT  HW1  24434   1.435   0.439   6.423
 6109WAT  HW2  24435   1.579   0.402   6.451
 6109WAT  MW   24436   1.512   0.458   6.458
 6110WAT  OW   24437   2.464   2.524   3.479
 6110WAT  HW1  24438   2.549   2.524   3.522
 6110WAT  HW2  24439   2.440   2.431   3.474
 6110WAT  MW   24440   2.472   2.511   3.484
 6111WAT  OW   24441   1.613   1.659   0.646
 6111WAT  HW1  24442   1.553   1.707   0.703
 6111WAT  HW2  24443   1.676   1.618   0.705
 6111WAT  MW   24444   1.613   1.660   0.661
 6112WAT  OW   24445   4.103   2.799   2.231
 6112WAT  HW1  24446   4.101   2.891   2.203
 6112WAT  HW2  24447   4.172   2.760   2.178
 6112WAT  MW   24448   4.112   2.806   2.220
 6113WAT  OW   24449   3.544   4.946   1.380
 6113WAT  HW1  24450   3.546   4.851   1.365
 6113WAT  HW2  24451   3.549   4.983   1.292
 6113WAT  MW   24452   3.545   4.938   1.366
 6114WAT  OW   24453   5.009   4.539   5.094
 6114WAT  HW1  24454   5.041   4.455   5.124
 6114WAT  HW2  24455   4.961   4.519   5.013
 6114WAT  MW   24456   5.007   4.526   5.087
 6115WAT  OW   24457   6.663   1.662   2.208
 6115WAT  HW1  24458   6.604   1.589   2.228
 6115WAT  HW2  24459   6.741   1.645   2.260
 6115WAT  MW   24460   6.665   1.650   2.217
 6116WAT  OW   24461   4.473   5.341   3.802
 6116WAT  HW1  24462   4.452   5.308   3.715
 6116WAT  HW2  24463   4.387   5.355   3.843
 6116WAT  MW   24464   4.459   5.339   3.796
 6117WAT  OW   24465   6.133   0.365   4.028
 6117WAT  HW1  24466   6.219   0.331   4.056
 6117WAT  HW2  24467   6.072   0.294   4.048
 6117WAT  MW   24468   6.137   0.351   4.034
 6118WAT  OW   24469   0.235   0.970   2.964
 6118WAT  HW1  24470   0.228   0.961   2.869
 6118WAT  HW2  24471   0.200   0.887   2.997
 6118WAT  MW   24472   0.229   0.958   2.956
 6119WAT  OW   24473   5.335   5.326   6.489
 6119WAT  HW1  24474   5.285   5.380   6.551
 6119WAT  HW2  24475   5.426   5.337   6.515
 6119WAT  MW   24476   5.340   5.334   6.501
 6120WAT  OW   24477   4.607   0.355   0.186
 6120WAT  HW1  24478   4.575   0.445   0.197
 6120WAT  HW2  24479   4.699   0.360   0.213
 6120WAT  MW   24480   4.615   0.368   0.191
 6121WAT  OW   24481   2.131   6.445   3.051
 6121WAT  HW1  24482   2.217   6.456   3.091
 6121WAT  HW2  24483   2.150   6.423   2.959
 6121WAT  MW   24484   2.145   6.444   3.044
 6122WAT  OW   24485   5.751   1.330   2.788
 6122WAT  HW1  24486   5.676   1.297   2.838
 6122WAT  HW2  24487   5.808   1.370   2.854
 6122WAT  MW   24488   5.749   1.331   2.803
 6123WAT  OW   24489   0.358   2.583   4.239
 6123WAT  HW1  24490   0.428   2.615   4.297
 6123WAT  HW2  24491   0.355   2.489   4.255
 6123WAT  MW   24492   0.367   2.575   4.249
 6124WAT  OW   24493   1.991   3.724   3.782
 6124WAT  HW1  24494   2.085   3.737   3.785
 6124WAT  HW2  24495   1.959   3.795   3.726
 6124WAT  MW   24496   1.999   3.735   3.775
 6125WAT  OW   24497   2.515   1.457   0.960
 6125WAT  HW1  24498   2.523   1.373   1.005
 6125WAT  HW2  24499   2.432   1.493   0.993
 6125WAT  MW   24500   2.505   1.451   0.971
 6126WAT  OW   24501   0.703   3.424   0.115
 6126WAT  HW1  24502   0.698   3.356   0.047
 6126WAT  HW2  24503   0.683   3.505   0.069
 6126WAT  MW   24504   0.699   3.425   0.100
 6127WAT  OW   24505   4.049   4.264   1.223
 6127WAT  HW1  24506   3.974   4.324   1.218
 6127WAT  HW2  24507   4.053   4.239   1.315
 6127WAT  MW   24508   4.039   4.269   1.235
 6128WAT  OW   24509   4.519   3.888   4.005
 6128WAT  HW1  24510   4.513   3.958   3.941
 6128WAT  HW2  24511   4.429   3.878   4.038
 6128WAT  MW   24512   4.506   3.896   4.001
 6129WAT  OW   24513   5.301   6.683   1.139
 6129WAT  HW1  24514   5.261   6.617   1.083
 6129WAT  HW2  24515   5.366   6.727   1.083
 6129WAT  MW   24516   5.305   6.681   1.124
 6130WAT  OW   24517   2.283   3.633   0.766
 6130WAT  HW1  24518   2.282   3.542   0.795
 6130WAT  HW2  24519   2.369   3.644   0.726
 6130WAT  MW   24520   2.294   3.622   0.765
 6131WAT  OW   24521   0.881   2.499   4.325
 6131WAT  HW1  24522   0.957   2.447   4.297
 6131WAT  HW2  24523   0.810   2.467   4.270
 6131WAT  MW   24524   0.882   2.488   4.314
 6132WAT  OW   24525   0.989   3.199   1.413
 6132WAT  HW1  24526   1.047   3.180   1.486
 6132WAT  HW2  24527   0.947   3.115   1.393
 6132WAT  MW   24528   0.991   3.185   1.420
 6133WAT  OW   24529   0.587   2.053   3.962
 6133WAT  HW1  24530   0.497   2.083   3.977
 6133WAT  HW2  24531   0.579   1.960   3.944
 6133WAT  MW   24532   0.574   2.045   3.961
 6134WAT  OW   24533   4.145   6.429   1.623
 6134WAT  HW1  24534   4.095   6.511   1.633
 6134WAT  HW2  24535   4.228   6.457   1.586
 6134WAT  MW   24536   4.149   6.444   1.620
 6135WAT  OW   24537   4.205   1.408   4.689
 6135WAT  HW1  24538   4.156   1.326   4.687
 6135WAT  HW2  24539   4.181   1.449   4.772
 6135WAT  MW   24540   4.195   1.402   4.699
 6136WAT  OW   24541   2.730   5.456   0.788
 6136WAT  HW1  24542   2.793   5.427   0.854
 6136WAT  HW2  24543   2.782   5.470   0.709
 6136WAT  MW   24544   2.745   5.454   0.786
 6137WAT  OW   24545   0.686   0.847   3.511
 6137WAT  HW1  24546   0.690   0.785   3.584
 6137WAT  HW2  24547   0.663   0.931   3.552
 6137WAT  MW   24548   0.684   0.850   3.526
 6138WAT  OW   24549   1.141   0.768   5.795
 6138WAT  HW1  24550   1.047   0.764   5.780
 6138WAT  HW2  24551   1.152   0.739   5.886
 6138WAT  MW   24552   1.130   0.764   5.805
 6139WAT  OW   24553   3.232   2.917   5.172
 6139WAT  HW1  24554   3.245   2.843   5.113
 6139WAT  HW2  24555   3.274   2.991   5.128
 6139WAT  MW   24556   3.239   2.917   5.159
 6140WAT  OW   24557   3.504   6.499   2.169
 6140WAT  HW1  24558   3.590   6.491   2.211
 6140WAT  HW2  24559   3.473   6.409   2.161
 6140WAT  MW   24560   3.511   6.486   2.174
 6141WAT  OW   24561   6.331   2.218   4.124
 6141WAT  HW1  24562   6.380   2.299   4.139
 6141WAT  HW2  24563   6.356   2.162   4.197
 6141WAT  MW   24564   6.341   2.221   4.136
 6142WAT  OW   24565   2.045   4.185   4.851
 6142WAT  HW1  24566   1.994   4.247   4.799
 6142WAT  HW2  24567   2.087   4.238   4.918
 6142WAT  MW   24568   2.044   4.200   4.853
 6143WAT  OW   24569   2.935   4.154   6.235
 6143WAT  HW1  24570   2.910   4.130   6.324
 6143WAT  HW2  24571   2.852   4.159   6.187
 6143WAT  MW   24572   2.921   4.151   6.240
 6144WAT  OW   24573   1.341   2.486   6.273
 6144WAT  HW1  24574   1.383   2.564   6.308
 6144WAT  HW2  24575   1.297   2.516   6.193
 6144WAT  MW   24576   1.341   2.500   6.267
 6145WAT  OW   24577   3.806   4.555   2.479
 6145WAT  HW1  24578   3.842   4.635   2.517
 6145WAT  HW2  24579   3.876   4.521   2.423
 6145WAT  MW   24580   3.820   4.561   2.477
 6146WAT  OW   24581   0.574   4.966   3.417
 6146WAT  HW1  24582   0.602   5.057   3.401
 6146WAT  HW2  24583   0.485   4.975   3.452
 6146WAT  MW   24584   0.566   4.979   3.420
 6147WAT  OW   24585   3.120   4.817   4.627
 6147WAT  HW1  24586   3.120   4.865   4.544
 6147WAT  HW2  24587   3.028   4.793   4.641
 6147WAT  MW   24588   3.108   4.820   4.618
 6148WAT  OW   24589   6.071   3.020   6.116
 6148WAT  HW1  24590   6.124   3.032   6.037
 6148WAT  HW2  24591   6.133   3.024   6.188
 6148WAT  MW   24592   6.086   3.022   6.115
 6149WAT  OW   24593   4.945   3.121   2.330
 6149WAT  HW1  24594   4.974   3.159   2.413
 6149WAT  HW2  24595   4.851   3.108   2.341
 6149WAT  MW   24596   4.937   3.124   2.343
 6150WAT  OW   24597   4.527   4.349   4.034
 6150WAT  HW1  24598   4.448   4.301   4.057
 6150WAT  HW2  24599   4.536   4.415   4.102
 6150WAT  MW   24600   4.518   4.352   4.046
 6151WAT  OW   24601   1.801   3.471   6.476
 6151WAT  HW1  24602   1.880   3.431   6.442
 6151WAT  HW2  24603   1.831   3.545   6.528
 6151WAT  MW   24604   1.815   3.475   6.479
 6152WAT  OW   24605   2.188   5.180   2.001
 6152WAT  HW1  24606   2.158   5.113   1.940
 6152WAT  HW2  24607   2.175   5.140   2.088
 6152WAT  MW   24608   2.182   5.166   2.005
 6153WAT  OW   24609   6.597   1.243   5.878
 6153WAT  HW1  24610   6.669   1.305   5.891
 6153WAT  HW2  24611   6.634   1.158   5.900
 6153WAT  MW   24612   6.611   1.240   5.883
 6154WAT  OW   24613   1.648   0.748   2.473
 6154WAT  HW1  24614   1.743   0.762   2.481
 6154WAT  HW2  24615   1.640   0.659   2.439
 6154WAT  MW   24616   1.660   0.738   2.470
 6155WAT  OW   24617   2.025   5.619   0.923
 6155WAT  HW1  24618   1.998   5.553   0.987
 6155WAT  HW2  24619   1.954   5.684   0.924
 6155WAT  MW   24620   2.012   5.619   0.931
 6156WAT  OW   24621   0.301   0.556   1.244
 6156WAT  HW1  24622   0.270   0.644   1.265
 6156WAT  HW2  24623   0.346   0.566   1.160
 6156WAT  MW   24624   0.303   0.569   1.236
 6157WAT  OW   24625   0.887   6.220   1.700
 6157WAT  HW1  24626   0.849   6.224   1.612
 6157WAT  HW2  24627   0.842   6.147   1.743
 6157WAT  MW   24628   0.876   6.211   1.694
 6158WAT  OW   24629   4.483   5.350   5.621
 6158WAT  HW1  24630   4.390   5.373   5.629
 6158WAT  HW2  24631   4.491   5.312   5.534
 6158WAT  MW   24632   4.472   5.348   5.611
 6159WAT  OW   24633   3.063   5.053   5.900
 6159WAT  HW1  24634   3.089   5.118   5.834
 6159WAT  HW2  24635   3.056   5.103   5.981
 6159WAT  MW   24636   3.065   5.069   5.902
 6160WAT  OW   24637   3.582   1.306   1.897
 6160WAT  HW1  24638   3.623   1.386   1.865
 6160WAT  HW2  24639   3.574   1.319   1.991
 6160WAT  MW   24640   3.586   1.318   1.905
 6161WAT  OW   24641   3.465   2.902   1.067
 6161WAT  HW1  24642   3.429   2.972   1.011
 6161WAT  HW2  24643   3.559   2.918   1.067
 6161WAT  MW   24644   3.473   2.914   1.059
 6162WAT  OW   24645   3.642   0.407   5.944
 6162WAT  HW1  24646   3.592   0.390   5.864
 6162WAT  HW2  24647   3.599   0.353   6.011
 6162WAT  MW   24648   3.630   0.397   5.942
 6163WAT  OW   24649   2.680   4.808   5.793
 6163WAT  HW1  24650   2.763   4.843   5.760
 6163WAT  HW2  24651   2.614   4.851   5.739
 6163WAT  MW   24652   2.683   4.818   5.782
 6164WAT  OW   24653   4.616   3.629   5.827
 6164WAT  HW1  24654   4.616   3.535   5.842
 6164WAT  HW2  24655   4.531   3.648   5.788
 6164WAT  MW   24656   4.605   3.619   5.824
 6165WAT  OW   24657   4.230   0.994   3.310
 6165WAT  HW1  24658   4.295   0.937   3.269
 6165WAT  HW2  24659   4.279   1.073   3.333
 6165WAT  MW   24660   4.245   0.997   3.307
 6166WAT  OW   24661   4.108   1.214   1.774
 6166WAT  HW1  24662   4.062   1.282   1.823
 6166WAT  HW2  24663   4.171   1.262   1.720
 6166WAT  MW   24664   4.110   1.230   1.773
 6167WAT  OW   24665   5.212   1.994   0.001
 6167WAT  HW1  24666   5.223   2.088   0.013
 6167WAT  HW2  24667   5.240   1.956   0.085
 6167WAT  MW   24668   5.217   2.002   0.014
 6168WAT  OW   24669   3.016   6.051   0.654
 6168WAT  HW1  24670   3.078   6.037   0.582
 6168WAT  HW2  24671   2.955   5.978   0.648
 6168WAT  MW   24672   3.016   6.040   0.644
 6169WAT  OW   24673   3.058   5.837   3.850
 6169WAT  HW1  24674   3.110   5.906   3.808
 6169WAT  HW2  24675   3.121   5.790   3.905
 6169WAT  MW   24676   3.073   5.840   3.852
 6170WAT  OW   24677   6.628   3.190   1.106
 6170WAT  HW1  24678   6.621   3.137   1.027
 6170WAT  HW2  24679   6.566   3.262   1.091
 6170WAT  MW   24680   6.619   3.193   1.093
 6171WAT  OW   24681   0.897   0.370   2.773
 6171WAT  HW1  24682   0.905   0.302   2.840
 6171WAT  HW2  24683   0.802   0.383   2.764
 6171WAT  MW   24684   0.885   0.362   2.781
 6172WAT  OW   24685   0.132   1.929   4.990
 6172WAT  HW1  24686   0.090   2.015   4.987
 6172WAT  HW2  24687   0.071   1.874   5.038
 6172WAT  MW   24688   0.119   1.933   4.996
 6173WAT  OW   24689   0.851   4.970   4.057
 6173WAT  HW1  24690   0.838   5.018   3.975
 6173WAT  HW2  24691   0.945   4.973   4.073
 6173WAT  MW   24692   0.861   4.977   4.049
 6174WAT  OW   24693   1.113   1.205   4.948
 6174WAT  HW1  24694   1.018   1.200   4.948
 6174WAT  HW2  24695   1.140   1.147   5.018
 6174WAT  MW   24696   1.104   1.197   4.957
 6175WAT  OW   24697   4.874   0.172   5.584
 6175WAT  HW1  24698   4.787   0.172   5.544
 6175WAT  HW2  24699   4.914   0.254   5.555
 6175WAT  MW   24700   4.867   0.183   5.575
 6176WAT  OW   24701   2.947   4.063   5.272
 6176WAT  HW1  24702   2.938   4.115   5.352
 6176WAT  HW2  24703   2.884   3.992   5.282
 6176WAT  MW   24704   2.937   4.061   5.284
 6177WAT  OW   24705   3.305   1.890   3.509
 6177WAT  HW1  24706   3.337   1.944   3.437
 6177WAT  HW2  24707   3.378   1.883   3.570
 6177WAT  MW   24708   3.319   1.896   3.507
 6178WAT  OW   24709   6.230   0.507   2.625
 6178WAT  HW1  24710   6.286   0.470   2.556
 6178WAT  HW2  24711   6.292   0.538   2.691
 6178WAT  MW   24712   6.246   0.506   2.625
 6179WAT  OW   24713   6.217   3.008   2.019
 6179WAT  HW1  24714   6.263   3.034   2.098
 6179WAT  HW2  24715   6.190   3.090   1.977
 6179WAT  MW   24716   6.219   3.022   2.024
 6180WAT  OW   24717   0.287   1.173   4.894
 6180WAT  HW1  24718   0.199   1.148   4.919
 6180WAT  HW2  24719   0.333   1.188   4.977
 6180WAT  MW   24720   0.282   1.172   4.908
 6181WAT  OW   24721   4.168   2.309   5.028
 6181WAT  HW1  24722   4.147   2.294   4.936
 6181WAT  HW2  24723   4.263   2.320   5.030
 6181WAT  MW   24724   4.178   2.308   5.016
 6182WAT  OW   24725   3.496   3.716   1.374
 6182WAT  HW1  24726   3.479   3.677   1.460
 6182WAT  HW2  24727   3.415   3.764   1.354
 6182WAT  MW   24728   3.483   3.717   1.382
 6183WAT  OW   24729   3.083   3.200   2.111
 6183WAT  HW1  24730   3.006   3.186   2.056
 6183WAT  HW2  24731   3.157   3.177   2.056
 6183WAT  MW   24732   3.083   3.195   2.097
 6184WAT  OW   24733   5.600   5.306   3.785
 6184WAT  HW1  24734   5.621   5.294   3.692
 6184WAT  HW2  24735   5.633   5.394   3.806
 6184WAT  MW   24736   5.607   5.316   3.775
 6185WAT  OW   24737   2.349   2.257   0.100
 6185WAT  HW1  24738   2.326   2.339   0.143
 6185WAT  HW2  24739   2.330   2.272   0.008
 6185WAT  MW   24740   2.343   2.270   0.094
 6186WAT  OW   24741   4.437   0.645   3.855
 6186WAT  HW1  24742   4.345   0.671   3.848
 6186WAT  HW2  24743   4.453   0.641   3.949
 6186WAT  MW   24744   4.427   0.648   3.867
 6187WAT  OW   24745   6.512   3.135   2.758
 6187WAT  HW1  24746   6.516   3.159   2.851
 6187WAT  HW2  24747   6.596   3.164   2.722
 6187WAT  MW   24748   6.523   3.142   2.766
 6188WAT  OW   24749   3.793   1.172   3.552
 6188WAT  HW1  24750   3.790   1.167   3.456
 6188WAT  HW2  24751   3.701   1.164   3.578
 6188WAT  MW   24752   3.780   1.170   3.543
 6189WAT  OW   24753   3.731   5.351   0.973
 6189WAT  HW1  24754   3.744   5.291   1.047
 6189WAT  HW2  24755   3.638   5.373   0.977
 6189WAT  MW   24756   3.720   5.346   0.983
 6190WAT  OW   24757   2.576   4.504   2.521
 6190WAT  HW1  24758   2.509   4.569   2.500
 6190WAT  HW2  24759   2.641   4.513   2.451
 6190WAT  MW   24760   2.576   4.514   2.509
 6191WAT  OW   24761   4.864   1.025   3.325
 6191WAT  HW1  24762   4.858   0.947   3.380
 6191WAT  HW2  24763   4.955   1.026   3.295
 6191WAT  MW   24764   4.875   1.015   3.328
 6192WAT  OW   24765   3.885   6.416   4.734
 6192WAT  HW1  24766   3.837   6.334   4.728
 6192WAT  HW2  24767   3.820   6.481   4.759
 6192WAT  MW   24768   3.870   6.414   4.736
 6193WAT  OW   24769   4.123   2.728   2.608
 6193WAT  HW1  24770   4.094   2.680   2.530
 6193WAT  HW2  24771   4.218   2.731   2.599
 6193WAT  MW   24772   4.132   2.722   2.596
 6194WAT  OW   24773   4.116   2.572   1.330
 6194WAT  HW1  24774   4.174   2.648   1.337
 6194WAT  HW2  24775   4.047   2.600   1.270
 6194WAT  MW   24776   4.114   2.585   1.323
 6195WAT  OW   24777   1.393   4.534   1.008
 6195WAT  HW1  24778   1.349   4.476   1.070
 6195WAT  HW2  24779   1.449   4.475   0.956
 6195WAT  MW   24780   1.395   4.518   1.009
 6196WAT  OW   24781   2.141   2.601   4.833
 6196WAT  HW1  24782   2.111   2.632   4.748
 6196WAT  HW2  24783   2.217   2.546   4.814
 6196WAT  MW   24784   2.147   2.598   4.820
 6197WAT  OW   24785   1.809   1.466   3.117
 6197WAT  HW1  24786   1.732   1.413   3.135
 6197WAT  HW2  24787   1.876   1.402   3.091
 6197WAT  MW   24788   1.808   1.450   3.116
 6198WAT  OW   24789   2.330   2.571   5.775
 6198WAT  HW1  24790   2.393   2.639   5.753
 6198WAT  HW2  24791   2.362   2.534   5.857
 6198WAT  MW   24792   2.342   2.575   5.783
 6199WAT  OW   24793   1.360   0.601   3.585
 6199WAT  HW1  24794   1.373   0.667   3.517
 6199WAT  HW2  24795   1.365   0.517   3.538
 6199WAT  MW   24796   1.362   0.599   3.570
 6200WAT  OW   24797   3.220   6.478   1.005
 6200WAT  HW1  24798   3.156   6.547   1.025
 6200WAT  HW2  24799   3.181   6.398   1.041
 6200WAT  MW   24800   3.207   6.477   1.013
 6201WAT  OW   24801   0.345   2.983   4.454
 6201WAT  HW1  24802   0.283   3.052   4.430
 6201WAT  HW2  24803   0.357   2.994   4.548
 6201WAT  MW   24804   0.338   2.993   4.463
 6202WAT  OW   24805   2.197   6.546   4.224
 6202WAT  HW1  24806   2.179   6.562   4.316
 6202WAT  HW2  24807   2.127   6.591   4.177
 6202WAT  MW   24808   2.185   6.554   4.230
 6203WAT  OW   24809   2.158   4.916   0.290
 6203WAT  HW1  24810   2.203   4.991   0.251
 6203WAT  HW2  24811   2.072   4.951   0.315
 6203WAT  MW   24812   2.152   4.931   0.288
 6204WAT  OW   24813   4.725   0.078   3.690
 6204WAT  HW1  24814   4.724   0.032   3.606
 6204WAT  HW2  24815   4.742   0.010   3.755
 6204WAT  MW   24816   4.727   0.063   3.688
 6205WAT  OW   24817   2.993   3.891   5.012
 6205WAT  HW1  24818   3.077   3.915   4.975
 6205WAT  HW2  24819   2.974   3.959   5.077
 6205WAT  MW   24820   3.001   3.903   5.016
 6206WAT  OW   24821   2.897   6.520   0.430
 6206WAT  HW1  24822   2.917   6.602   0.385
 6206WAT  HW2  24823   2.982   6.482   0.449
 6206WAT  MW   24824   2.911   6.526   0.426
 6207WAT  OW   24825   0.097   1.743   1.844
 6207WAT  HW1  24826   0.118   1.836   1.849
 6207WAT  HW2  24827   0.119   1.719   1.754
 6207WAT  MW   24828   0.103   1.752   1.833
 6208WAT  OW   24829   3.057   4.257   0.343
 6208WAT  HW1  24830   3.020   4.242   0.430
 6208WAT  HW2  24831   3.126   4.191   0.335
 6208WAT  MW   24832   3.061   4.246   0.354
 6209WAT  OW   24833   6.526   5.746   2.867
 6209WAT  HW1  24834   6.614   5.772   2.896
 6209WAT  HW2  24835   6.467   5.790   2.927
 6209WAT  MW   24836   6.530   5.755   2.878
 6210WAT  OW   24837   3.890   5.567   1.055
 6210WAT  HW1  24838   3.873   5.644   1.000
 6210WAT  HW2  24839   3.815   5.510   1.039
 6210WAT  MW   24840   3.878   5.570   1.045
 6211WAT  OW   24841   2.215   5.935   5.162
 6211WAT  HW1  24842   2.227   5.956   5.069
 6211WAT  HW2  24843   2.163   6.007   5.197
 6211WAT  MW   24844   2.210   5.947   5.154
 6212WAT  OW   24845   0.820   2.093   5.045
 6212WAT  HW1  24846   0.883   2.080   4.974
 6212WAT  HW2  24847   0.804   2.187   5.045
 6212WAT  MW   24848   0.827   2.103   5.035
 6213WAT  OW   24849   0.151   1.635   0.798
 6213WAT  HW1  24850   0.221   1.639   0.733
 6213WAT  HW2  24851   0.075   1.671   0.753
 6213WAT  MW   24852   0.150   1.640   0.784
 6214WAT  OW   24853   3.774   4.762   3.999
 6214WAT  HW1  24854   3.707   4.803   4.053
 6214WAT  HW2  24855   3.725   4.716   3.930
 6214WAT  MW   24856   3.759   4.761   3.997
 6215WAT  OW   24857   2.540   1.085   6.503
 6215WAT  HW1  24858   2.551   1.155   6.568
 6215WAT  HW2  24859   2.469   1.115   6.447
 6215WAT  MW   24860   2.532   1.098   6.504
 6216WAT  OW   24861   3.858   3.055   4.527
 6216WAT  HW1  24862   3.941   3.103   4.526
 6216WAT  HW2  24863   3.803   3.105   4.588
 6216WAT  MW   24864   3.862   3.068   4.535
 6217WAT  OW   24865   2.405   5.803   5.768
 6217WAT  HW1  24866   2.447   5.725   5.733
 6217WAT  HW2  24867   2.474   5.871   5.763
 6217WAT  MW   24868   2.420   5.802   5.763
 6218WAT  OW   24869   3.724   5.631   1.874
 6218WAT  HW1  24870   3.810   5.617   1.914
 6218WAT  HW2  24871   3.740   5.696   1.805
 6218WAT  MW   24872   3.738   5.638   1.870
 6219WAT  OW   24873   4.073   0.380   1.437
 6219WAT  HW1  24874   3.992   0.353   1.396
 6219WAT  HW2  24875   4.115   0.438   1.373
 6219WAT  MW   24876   4.068   0.384   1.423
 6220WAT  OW   24877   5.268   4.014   5.824
 6220WAT  HW1  24878   5.344   4.004   5.881
 6220WAT  HW2  24879   5.280   3.946   5.757
 6220WAT  MW   24880   5.280   4.003   5.822
 6221WAT  OW   24881   3.787   5.038   1.806
 6221WAT  HW1  24882   3.771   5.128   1.779
 6221WAT  HW2  24883   3.754   4.985   1.734
 6221WAT  MW   24884   3.781   5.043   1.793
 6222WAT  OW   24885   4.857   0.163   4.107
 6222WAT  HW1  24886   4.943   0.188   4.141
 6222WAT  HW2  24887   4.848   0.216   4.027
 6222WAT  MW   24888   4.867   0.174   4.101
 6223WAT  OW   24889   4.126   5.932   5.092
 6223WAT  HW1  24890   4.072   5.983   5.152
 6223WAT  HW2  24891   4.089   5.843   5.095
 6223WAT  MW   24892   4.114   5.927   5.101
 6224WAT  OW   24893   1.662   3.131   5.865
 6224WAT  HW1  24894   1.730   3.095   5.922
 6224WAT  HW2  24895   1.599   3.172   5.925
 6224WAT  MW   24896   1.663   3.132   5.881
 6225WAT  OW   24897   2.855   3.697   5.822
 6225WAT  HW1  24898   2.840   3.736   5.909
 6225WAT  HW2  24899   2.892   3.768   5.770
 6225WAT  MW   24900   2.858   3.712   5.827
 6226WAT  OW   24901   4.329   6.492   4.494
 6226WAT  HW1  24902   4.350   6.574   4.541
 6226WAT  HW2  24903   4.239   6.472   4.520
 6226WAT  MW   24904   4.320   6.500   4.504
 6227WAT  OW   24905   6.220   3.541   2.825
 6227WAT  HW1  24906   6.217   3.466   2.886
 6227WAT  HW2  24907   6.298   3.525   2.772
 6227WAT  MW   24908   6.230   3.529   2.826
 6228WAT  OW   24909   1.549   2.202   2.197
 6228WAT  HW1  24910   1.521   2.268   2.260
 6228WAT  HW2  24911   1.633   2.234   2.164
 6228WAT  MW   24912   1.556   2.215   2.201
 6229WAT  OW   24913   3.704   5.738   6.464
 6229WAT  HW1  24914   3.753   5.676   6.517
 6229WAT  HW2  24915   3.764   5.763   6.393
 6229WAT  MW   24916   3.718   5.733   6.462
 6230WAT  OW   24917   2.151   0.307   5.696
 6230WAT  HW1  24918   2.197   0.377   5.650
 6230WAT  HW2  24919   2.176   0.318   5.788
 6230WAT  MW   24920   2.160   0.318   5.702
 6231WAT  OW   24921   1.543   5.831   2.681
 6231WAT  HW1  24922   1.623   5.821   2.630
 6231WAT  HW2  24923   1.571   5.869   2.764
 6231WAT  MW   24924   1.557   5.834   2.685
 6232WAT  OW   24925   3.383   6.486   3.742
 6232WAT  HW1  24926   3.387   6.514   3.650
 6232WAT  HW2  24927   3.466   6.443   3.758
 6232WAT  MW   24928   3.394   6.484   3.732
 6233WAT  OW   24929   4.219   0.217   2.639
 6233WAT  HW1  24930   4.241   0.275   2.566
 6233WAT  HW2  24931   4.278   0.143   2.630
 6233WAT  MW   24932   4.230   0.215   2.628
 6234WAT  OW   24933   0.441   5.718   3.324
 6234WAT  HW1  24934   0.481   5.758   3.247
 6234WAT  HW2  24935   0.405   5.635   3.293
 6234WAT  MW   24936   0.441   5.713   3.310
 6235WAT  OW   24937   4.290   0.851   4.150
 6235WAT  HW1  24938   4.199   0.822   4.154
 6235WAT  HW2  24939   4.342   0.771   4.155
 6235WAT  MW   24940   4.285   0.837   4.151
 6236WAT  OW   24941   0.388   1.371   2.369
 6236WAT  HW1  24942   0.418   1.372   2.277
 6236WAT  HW2  24943   0.434   1.444   2.409
 6236WAT  MW   24944   0.398   1.381   2.362
 6237WAT  OW   24945   6.302   4.206   6.141
 6237WAT  HW1  24946   6.275   4.298   6.149
 6237WAT  HW2  24947   6.395   4.210   6.117
 6237WAT  MW   24948   6.311   4.219   6.139
 6238WAT  OW   24949   3.727   6.527   5.658
 6238WAT  HW1  24950   3.763   6.524   5.746
 6238WAT  HW2  24951   3.770   6.602   5.617
 6238WAT  MW   24952   3.737   6.536   5.664
 6239WAT  OW   24953   3.673   1.324   5.821
 6239WAT  HW1  24954   3.633   1.375   5.751
 6239WAT  HW2  24955   3.640   1.365   5.902
 6239WAT  MW   24956   3.663   1.337   5.822
 6240WAT  OW   24957   5.756   4.702   3.767
 6240WAT  HW1  24958   5.832   4.700   3.709
 6240WAT  HW2  24959   5.789   4.738   3.849
 6240WAT  MW   24960   5.770   4.706   3.770
 6241WAT  OW   24961   0.918   4.396   2.175
 6241WAT  HW1  24962   0.974   4.347   2.115
 6241WAT  HW2  24963   0.882   4.330   2.234
 6241WAT  MW   24964   0.921   4.381   2.175
 6242WAT  OW   24965   0.562   3.302   3.632
 6242WAT  HW1  24966   0.509   3.245   3.576
 6242WAT  HW2  24967   0.638   3.324   3.578
 6242WAT  MW   24968   0.565   3.297   3.617
 6243WAT  OW   24969   5.258   0.795   4.115
 6243WAT  HW1  24970   5.300   0.839   4.189
 6243WAT  HW2  24971   5.185   0.852   4.092
 6243WAT  MW   24972   5.254   0.808   4.122
 6244WAT  OW   24973   2.403   4.286   2.078
 6244WAT  HW1  24974   2.431   4.275   2.168
 6244WAT  HW2  24975   2.366   4.201   2.054
 6244WAT  MW   24976   2.402   4.273   2.086
 6245WAT  OW   24977   0.758   4.099   5.721
 6245WAT  HW1  24978   0.754   4.176   5.664
 6245WAT  HW2  24979   0.725   4.130   5.806
 6245WAT  MW   24980   0.753   4.113   5.725
 6246WAT  OW   24981   6.357   4.271   0.995
 6246WAT  HW1  24982   6.384   4.265   1.087
 6246WAT  HW2  24983   6.386   4.189   0.956
 6246WAT  MW   24984   6.365   4.259   1.002
 6247WAT  OW   24985   6.549   6.232   5.682
 6247WAT  HW1  24986   6.482   6.272   5.628
 6247WAT  HW2  24987   6.629   6.239   5.630
 6247WAT  MW   24988   6.551   6.238   5.668
 6248WAT  OW   24989   1.336   5.096   5.875
 6248WAT  HW1  24990   1.378   5.136   5.798
 6248WAT  HW2  24991   1.379   5.138   5.950
 6248WAT  MW   24992   1.347   5.107   5.875
 6249WAT  OW   24993   6.664   5.043   2.270
 6249WAT  HW1  24994   6.753   5.018   2.291
 6249WAT  HW2  24995   6.672   5.128   2.227
 6249WAT  MW   24996   6.676   5.051   2.267
 6250WAT  OW   24997   5.620   4.157   3.098
 6250WAT  HW1  24998   5.621   4.110   3.181
 6250WAT  HW2  24999   5.709   4.145   3.063
 6250WAT  MW   25000   5.632   4.149   3.104
 6251WAT  OW   25001   4.489   3.515   3.951
 6251WAT  HW1  25002   4.481   3.577   3.879
 6251WAT  HW2  25003   4.578   3.528   3.984
 6251WAT  MW   25004   4.500   3.525   3.946
 6252WAT  OW   25005   5.169   4.423   4.668
 6252WAT  HW1  25006   5.115   4.418   4.589
 6252WAT  HW2  25007   5.195   4.515   4.674
 6252WAT  MW   25008   5.165   4.435   4.658
 6253WAT  OW   25009   6.388   5.057   1.996
 6253WAT  HW1  25010   6.303   5.015   1.982
 6253WAT  HW2  25011   6.448   5.010   1.938
 6253WAT  MW   25012   6.384   5.045   1.987
 6254WAT  OW   25013   5.289   0.129   2.385
 6254WAT  HW1  25014   5.239   0.095   2.311
 6254WAT  HW2  25015   5.292   0.057   2.448
 6254WAT  MW   25016   5.283   0.115   2.384
 6255WAT  OW   25017   6.588   6.645   0.069
 6255WAT  HW1  25018   6.612   6.606   0.153
 6255WAT  HW2  25019   6.634   6.592   0.004
 6255WAT  MW   25020   6.597   6.633   0.071
 6256WAT  OW   25021   4.998   0.349   2.137
 6256WAT  HW1  25022   4.938   0.354   2.063
 6256WAT  HW2  25023   5.041   0.434   2.139
 6256WAT  MW   25024   4.996   0.361   2.128
 6257WAT  OW   25025   0.900   4.418   2.802
 6257WAT  HW1  25026   0.869   4.343   2.853
 6257WAT  HW2  25027   0.835   4.486   2.818
 6257WAT  MW   25028   0.887   4.417   2.811
 6258WAT  OW   25029   3.995   6.574   0.820
 6258WAT  HW1  25030   4.014   6.637   0.750
 6258WAT  HW2  25031   3.967   6.629   0.894
 6258WAT  MW   25032   3.994   6.590   0.821
 6259WAT  OW   25033   3.435   0.096   0.874
 6259WAT  HW1  25034   3.418   0.062   0.786
 6259WAT  HW2  25035   3.506   0.041   0.907
 6259WAT  MW   25036   3.442   0.084   0.866
 6260WAT  OW   25037   0.810   5.546   4.751
 6260WAT  HW1  25038   0.752   5.506   4.815
 6260WAT  HW2  25039   0.830   5.632   4.786
 6260WAT  MW   25040   0.805   5.552   4.764
 6261WAT  OW   25041   1.801   6.446   0.441
 6261WAT  HW1  25042   1.744   6.511   0.400
 6261WAT  HW2  25043   1.793   6.462   0.535
 6261WAT  MW   25044   1.792   6.456   0.448
 6262WAT  OW   25045   0.061   0.405   5.254
 6262WAT  HW1  25046   0.018   0.333   5.209
 6262WAT  HW2  25047   0.154   0.395   5.233
 6262WAT  MW   25048   0.068   0.395   5.245
 6263WAT  OW   25049   4.710   4.012   0.784
 6263WAT  HW1  25050   4.789   3.975   0.745
 6263WAT  HW2  25051   4.723   4.003   0.878
 6263WAT  MW   25052   4.722   4.006   0.791
 6264WAT  OW   25053   4.726   4.146   2.999
 6264WAT  HW1  25054   4.739   4.060   3.039
 6264WAT  HW2  25055   4.810   4.166   2.958
 6264WAT  MW   25056   4.739   4.137   2.999
 6265WAT  OW   25057   3.379   2.404   4.408
 6265WAT  HW1  25058   3.454   2.344   4.404
 6265WAT  HW2  25059   3.350   2.410   4.317
 6265WAT  MW   25060   3.385   2.397   4.395
 6266WAT  OW   25061   0.408   5.013   4.761
 6266WAT  HW1  25062   0.387   4.932   4.714
 6266WAT  HW2  25063   0.501   5.004   4.782
 6266WAT  MW   25064   0.417   5.001   4.758
 6267WAT  OW   25065   0.095   5.845   3.452
 6267WAT  HW1  25066   0.011   5.890   3.439
 6267WAT  HW2  25067   0.147   5.906   3.504
 6267WAT  MW   25068   0.091   5.859   3.457
 6268WAT  OW   25069   0.398   3.302   0.255
 6268WAT  HW1  25070   0.476   3.272   0.302
 6268WAT  HW2  25071   0.359   3.368   0.312
 6268WAT  MW   25072   0.403   3.306   0.268
 6269WAT  OW   25073   0.525   5.281   0.713
 6269WAT  HW1  25074   0.484   5.295   0.799
 6269WAT  HW2  25075   0.604   5.335   0.715
 6269WAT  MW   25076   0.530   5.290   0.725
 6270WAT  OW   25077   6.225   4.084   3.052
 6270WAT  HW1  25078   6.261   4.172   3.066
 6270WAT  HW2  25079   6.138   4.099   3.014
 6270WAT  MW   25080   6.218   4.098   3.049
 6271WAT  OW   25081   6.206   6.386   4.317
 6271WAT  HW1  25082   6.240   6.372   4.228
 6271WAT  HW2  25083   6.213   6.480   4.330
 6271WAT  MW   25084   6.212   6.396   4.307
 6272WAT  OW   25085   3.838   3.012   0.626
 6272WAT  HW1  25086   3.900   2.942   0.645
 6272WAT  HW2  25087   3.892   3.090   0.613
 6272WAT  MW   25088   3.853   3.013   0.627
 6273WAT  OW   25089   2.910   0.865   4.927
 6273WAT  HW1  25090   2.908   0.804   4.853
 6273WAT  HW2  25091   2.967   0.823   4.991
 6273WAT  MW   25092   2.917   0.851   4.925
 6274WAT  OW   25093   6.681   3.218   5.684
 6274WAT  HW1  25094   6.594   3.221   5.645
 6274WAT  HW2  25095   6.702   3.309   5.702
 6274WAT  MW   25096   6.672   3.230   5.682
 6275WAT  OW   25097   5.793   4.601   0.013
 6275WAT  HW1  25098   5.699   4.584   0.021
 6275WAT  HW2  25099   5.832   4.515  -0.002
 6275WAT  MW   25100   5.786   4.587   0.012
 6276WAT  OW   25101   0.729   3.458   5.095
 6276WAT  HW1  25102   0.713   3.543   5.053
 6276WAT  HW2  25103   0.713   3.394   5.025
 6276WAT  MW   25104   0.724   3.461   5.080
 6277WAT  OW   25105   3.111   1.191   6.373
 6277WAT  HW1  25106   3.122   1.110   6.323
 6277WAT  HW2  25107   3.166   1.178   6.450
 6277WAT  MW   25108   3.120   1.178   6.377
 6278WAT  OW   25109   5.067   3.749   3.583
 6278WAT  HW1  25110   5.011   3.824   3.561
 6278WAT  HW2  25111   5.156   3.778   3.560
 6278WAT  MW   25112   5.071   3.763   3.577
 6279WAT  OW   25113   1.477   6.636   6.055
 6279WAT  HW1  25114   1.429   6.597   6.129
 6279WAT  HW2  25115   1.550   6.575   6.040
 6279WAT  MW   25116   1.480   6.623   6.063
 6280WAT  OW   25117   2.989   0.675   3.660
 6280WAT  HW1  25118   2.999   0.618   3.737
 6280WAT  HW2  25119   2.915   0.637   3.612
 6280WAT  MW   25120   2.981   0.662   3.664
 6281WAT  OW   25121   3.065   3.431   4.855
 6281WAT  HW1  25122   2.997   3.367   4.835
 6281WAT  HW2  25123   3.020   3.515   4.855
 6281WAT  MW   25124   3.050   3.433   4.852
 6282WAT  OW   25125   2.870   3.223   4.854
 6282WAT  HW1  25126   2.847   3.233   4.946
 6282WAT  HW2  25127   2.955   3.178   4.855
 6282WAT  MW   25128   2.878   3.218   4.866
 6283WAT  OW   25129   1.040   6.418   5.832
 6283WAT  HW1  25130   1.094   6.343   5.857
 6283WAT  HW2  25131   1.063   6.486   5.896
 6283WAT  MW   25132   1.050   6.417   5.844
 6284WAT  OW   25133   5.661   0.500   0.429
 6284WAT  HW1  25134   5.683   0.489   0.522
 6284WAT  HW2  25135   5.643   0.412   0.397
 6284WAT  MW   25136   5.662   0.487   0.437
 6285WAT  OW   25137   5.769   1.804   0.464
 6285WAT  HW1  25138   5.702   1.739   0.485
 6285WAT  HW2  25139   5.730   1.860   0.397
 6285WAT  MW   25140   5.755   1.803   0.458
 6286WAT  OW   25141   2.125   4.806   4.296
 6286WAT  HW1  25142   2.217   4.782   4.310
 6286WAT  HW2  25143   2.103   4.769   4.211
 6286WAT  MW   25144   2.134   4.798   4.287
 6287WAT  OW   25145   6.123   4.569   1.051
 6287WAT  HW1  25146   6.134   4.480   1.083
 6287WAT  HW2  25147   6.039   4.569   1.006
 6287WAT  MW   25148   6.113   4.558   1.050
 6288WAT  OW   25149   6.490   5.016   6.254
 6288WAT  HW1  25150   6.511   5.077   6.183
 6288WAT  HW2  25151   6.571   4.968   6.270
 6288WAT  MW   25152   6.503   5.017   6.247
 6289WAT  OW   25153   1.723   0.898   1.295
 6289WAT  HW1  25154   1.712   0.987   1.262
 6289WAT  HW2  25155   1.680   0.843   1.229
 6289WAT  MW   25156   1.716   0.903   1.282
 6290WAT  OW   25157   6.421   4.341   2.475
 6290WAT  HW1  25158   6.486   4.346   2.405
 6290WAT  HW2  25159   6.343   4.305   2.433
 6290WAT  MW   25160   6.420   4.337   2.461
 6291WAT  OW   25161   0.481   1.542   4.077
 6291WAT  HW1  25162   0.472   1.543   4.172
 6291WAT  HW2  25163   0.396   1.572   4.045
 6291WAT  MW   25164   0.468   1.546   4.085
 6292WAT  OW   25165   5.197   6.518   3.125
 6292WAT  HW1  25166   5.292   6.525   3.134
 6292WAT  HW2  25167   5.167   6.609   3.120
 6292WAT  MW   25168   5.205   6.531   3.125
 6293WAT  OW   25169   1.275   6.301   1.795
 6293WAT  HW1  25170   1.358   6.252   1.792
 6293WAT  HW2  25171   1.216   6.246   1.846
 6293WAT  MW   25172   1.278   6.287   1.801
 6294WAT  OW   25173   1.524   3.220   3.941
 6294WAT  HW1  25174   1.591   3.152   3.952
 6294WAT  HW2  25175   1.460   3.201   4.010
 6294WAT  MW   25176   1.524   3.209   3.952
 6295WAT  OW   25177   6.445   0.348   4.705
 6295WAT  HW1  25178   6.452   0.364   4.799
 6295WAT  HW2  25179   6.398   0.425   4.671
 6295WAT  MW   25180   6.439   0.361   4.713
 6296WAT  OW   25181   3.223   4.715   6.008
 6296WAT  HW1  25182   3.129   4.731   6.012
 6296WAT  HW2  25183   3.251   4.752   5.925
 6296WAT  MW   25184   3.214   4.722   5.998
 6297WAT  OW   25185   1.113   1.221   4.240
 6297WAT  HW1  25186   1.068   1.163   4.178
 6297WAT  HW2  25187   1.187   1.169   4.271
 6297WAT  MW   25188   1.117   1.206   4.236
 6298WAT  OW   25189   3.816   2.460   2.164
 6298WAT  HW1  25190   3.811   2.397   2.236
 6298WAT  HW2  25191   3.807   2.545   2.205
 6298WAT  MW   25192   3.814   2.463   2.179
 6299WAT  OW   25193   4.467   3.124   5.728
 6299WAT  HW1  25194   4.457   3.165   5.814
 6299WAT  HW2  25195   4.505   3.192   5.673
 6299WAT  MW   25196   4.470   3.138   5.732
 6300WAT  OW   25197   3.369   0.537   2.979
 6300WAT  HW1  25198   3.462   0.558   2.993
 6300WAT  HW2  25199   3.362   0.521   2.885
 6300WAT  MW   25200   3.380   0.538   2.968
 6301WAT  OW   25201   3.585   3.956   1.492
 6301WAT  HW1  25202   3.552   3.877   1.448
 6301WAT  HW2  25203   3.513   3.982   1.550
 6301WAT  MW   25204   3.571   3.949   1.494
 6302WAT  OW   25205   0.507   0.629   5.169
 6302WAT  HW1  25206   0.567   0.603   5.100
 6302WAT  HW2  25207   0.501   0.725   5.161
 6302WAT  MW   25208   0.514   0.639   5.159
 6303WAT  OW   25209   3.261   0.589   0.267
 6303WAT  HW1  25210   3.321   0.519   0.292
 6303WAT  HW2  25211   3.246   0.637   0.349
 6303WAT  MW   25212   3.267   0.586   0.281
 6304WAT  OW   25213   0.492   4.398   2.383
 6304WAT  HW1  25214   0.577   4.363   2.358
 6304WAT  HW2  25215   0.471   4.354   2.466
 6304WAT  MW   25216   0.500   4.388   2.391
 6305WAT  OW   25217   0.554   1.515   4.624
 6305WAT  HW1  25218   0.520   1.425   4.614
 6305WAT  HW2  25219   0.506   1.550   4.699
 6305WAT  MW   25220   0.543   1.508   4.632
 6306WAT  OW   25221   5.245   2.962   0.488
 6306WAT  HW1  25222   5.328   2.949   0.534
 6306WAT  HW2  25223   5.178   2.952   0.555
 6306WAT  MW   25224   5.247   2.959   0.503
 6307WAT  OW   25225   2.898   3.673   2.197
 6307WAT  HW1  25226   2.840   3.662   2.273
 6307WAT  HW2  25227   2.958   3.599   2.202
 6307WAT  MW   25228   2.898   3.662   2.208
 6308WAT  OW   25229   2.078   0.833   4.742
 6308WAT  HW1  25230   2.158   0.841   4.794
 6308WAT  HW2  25231   2.072   0.916   4.695
 6308WAT  MW   25232   2.088   0.845   4.743
 6309WAT  OW   25233   4.626   4.564   5.451
 6309WAT  HW1  25234   4.599   4.653   5.474
 6309WAT  HW2  25235   4.709   4.576   5.404
 6309WAT  MW   25236   4.633   4.578   5.448
 6310WAT  OW   25237   4.416   1.967   5.862
 6310WAT  HW1  25238   4.400   2.020   5.784
 6310WAT  HW2  25239   4.468   2.023   5.919
 6310WAT  MW   25240   4.420   1.981   5.859
 6311WAT  OW   25241   1.727   0.564   0.494
 6311WAT  HW1  25242   1.720   0.659   0.479
 6311WAT  HW2  25243   1.719   0.555   0.589
 6311WAT  MW   25244   1.725   0.576   0.505
 6312WAT  OW   25245   6.210   6.211   5.211
 6312WAT  HW1  25246   6.272   6.280   5.190
 6312WAT  HW2  25247   6.260   6.149   5.264
 6312WAT  MW   25248   6.225   6.212   5.216
 6313WAT  OW   25249   6.437   0.492   2.146
 6313WAT  HW1  25250   6.487   0.416   2.115
 6313WAT  HW2  25251   6.470   0.565   2.094
 6313WAT  MW   25252   6.448   0.492   2.135
 6314WAT  OW   25253   5.923   6.412   3.853
 6314WAT  HW1  25254   5.874   6.416   3.935
 6314WAT  HW2  25255   6.005   6.368   3.876
 6314WAT  MW   25256   5.927   6.406   3.867
 6315WAT  OW   25257   4.191   0.042   1.318
 6315WAT  HW1  25258   4.102   0.007   1.316
 6315WAT  HW2  25259   4.231   0.011   1.237
 6315WAT  MW   25260   4.185   0.033   1.307
 6316WAT  OW   25261   4.258   5.556   3.922
 6316WAT  HW1  25262   4.339   5.574   3.969
 6316WAT  HW2  25263   4.191   5.606   3.968
 6316WAT  MW   25264   4.260   5.565   3.934
 6317WAT  OW   25265   3.128   0.888   6.368
 6317WAT  HW1  25266   3.131   0.856   6.277
 6317WAT  HW2  25267   3.056   0.840   6.408
 6317WAT  MW   25268   3.119   0.878   6.361
 6318WAT  OW   25269   5.145   0.578   2.208
 6318WAT  HW1  25270   5.187   0.587   2.123
 6318WAT  HW2  25271   5.217   0.574   2.271
 6318WAT  MW   25272   5.160   0.578   2.205
 6319WAT  OW   25273   1.658   4.666   0.241
 6319WAT  HW1  25274   1.661   4.659   0.337
 6319WAT  HW2  25275   1.664   4.576   0.210
 6319WAT  MW   25276   1.659   4.653   0.250
 6320WAT  OW   25277   2.812   3.669   2.819
 6320WAT  HW1  25278   2.848   3.663   2.731
 6320WAT  HW2  25279   2.888   3.689   2.874
 6320WAT  MW   25280   2.827   3.671   2.815
 6321WAT  OW   25281   4.354   4.240   0.379
 6321WAT  HW1  25282   4.442   4.211   0.400
 6321WAT  HW2  25283   4.359   4.270   0.288
 6321WAT  MW   25284   4.366   4.240   0.370
 6322WAT  OW   25285   0.571   0.230   3.457
 6322WAT  HW1  25286   0.656   0.266   3.432
 6322WAT  HW2  25287   0.582   0.205   3.549
 6322WAT  MW   25288   0.584   0.232   3.466
 6323WAT  OW   25289   1.939   1.700   3.089
 6323WAT  HW1  25290   1.924   1.618   3.136
 6323WAT  HW2  25291   2.002   1.748   3.143
 6323WAT  MW   25292   1.945   1.696   3.102
 6324WAT  OW   25293   0.548   4.754   1.992
 6324WAT  HW1  25294   0.623   4.702   2.019
 6324WAT  HW2  25295   0.529   4.811   2.067
 6324WAT  MW   25296   0.555   4.754   2.005
 6325WAT  OW   25297   3.241   2.818   2.352
 6325WAT  HW1  25298   3.160   2.852   2.390
 6325WAT  HW2  25299   3.309   2.846   2.412
 6325WAT  MW   25300   3.239   2.826   2.365
 6326WAT  OW   25301   4.042   6.010   1.983
 6326WAT  HW1  25302   4.072   6.078   1.922
 6326WAT  HW2  25303   4.122   5.980   2.027
 6326WAT  MW   25304   4.057   6.015   1.981
 6327WAT  OW   25305   0.034   5.180   5.541
 6327WAT  HW1  25306   0.036   5.265   5.586
 6327WAT  HW2  25307  -0.050   5.142   5.566
 6327WAT  MW   25308   0.023   5.186   5.550
 6328WAT  OW   25309   6.104   6.293   1.144
 6328WAT  HW1  25310   6.159   6.359   1.102
 6328WAT  HW2  25311   6.048   6.343   1.203
 6328WAT  MW   25312   6.104   6.309   1.146
 6329WAT  OW   25313   4.492   5.490   5.922
 6329WAT  HW1  25314   4.449   5.503   5.837
 6329WAT  HW2  25315   4.423   5.460   5.980
 6329WAT  MW   25316   4.477   5.488   5.918
 6330WAT  OW   25317   0.960   3.747   3.023
 6330WAT  HW1  25318   0.872   3.761   2.989
 6330WAT  HW2  25319   1.009   3.825   2.996
 6330WAT  MW   25320   0.955   3.759   3.015
 6331WAT  OW   25321   4.124   2.503   1.602
 6331WAT  HW1  25322   4.102   2.524   1.511
 6331WAT  HW2  25323   4.095   2.579   1.652
 6331WAT  MW   25324   4.117   2.516   1.597
 6332WAT  OW   25325   0.566   3.241   6.177
 6332WAT  HW1  25326   0.531   3.207   6.259
 6332WAT  HW2  25327   0.505   3.309   6.151
 6332WAT  MW   25328   0.553   3.245   6.185
 6333WAT  OW   25329   5.425   4.790   0.153
 6333WAT  HW1  25330   5.501   4.810   0.207
 6333WAT  HW2  25331   5.379   4.720   0.200
 6333WAT  MW   25332   5.429   4.783   0.166
 6334WAT  OW   25333   1.797   2.279   2.043
 6334WAT  HW1  25334   1.728   2.308   1.984
 6334WAT  HW2  25335   1.878   2.288   1.991
 6334WAT  MW   25336   1.799   2.284   2.028
 6335WAT  OW   25337   3.559   2.910   5.671
 6335WAT  HW1  25338   3.540   2.996   5.709
 6335WAT  HW2  25339   3.564   2.851   5.746
 6335WAT  MW   25340   3.557   2.914   5.686
 6336WAT  OW   25341   0.861   2.486   5.515
 6336WAT  HW1  25342   0.885   2.579   5.521
 6336WAT  HW2  25343   0.939   2.439   5.545
 6336WAT  MW   25344   0.875   2.492   5.520
 6337WAT  OW   25345   3.934   2.936   3.306
 6337WAT  HW1  25346   3.890   2.948   3.390
 6337WAT  HW2  25347   4.023   2.969   3.320
 6337WAT  MW   25348   3.940   2.942   3.319
 6338WAT  OW   25349   3.158   4.483   2.636
 6338WAT  HW1  25350   3.230   4.420   2.643
 6338WAT  HW2  25351   3.172   4.526   2.551
 6338WAT  MW   25352   3.169   4.481   2.625
 6339WAT  OW   25353   1.698   1.219   0.674
 6339WAT  HW1  25354   1.687   1.213   0.769
 6339WAT  HW2  25355   1.641   1.291   0.648
 6339WAT  MW   25356   1.689   1.227   0.683
 6340WAT  OW   25357   5.336   4.782   4.840
 6340WAT  HW1  25358   5.293   4.770   4.755
 6340WAT  HW2  25359   5.380   4.866   4.833
 6340WAT  MW   25360   5.336   4.791   4.828
 6341WAT  OW   25361   6.416   3.161   2.500
 6341WAT  HW1  25362   6.467   3.156   2.581
 6341WAT  HW2  25363   6.386   3.251   2.496
 6341WAT  MW   25364   6.419   3.172   2.510
 6342WAT  OW   25365   6.569   3.968   6.188
 6342WAT  HW1  25366   6.648   3.931   6.228
 6342WAT  HW2  25367   6.585   4.062   6.186
 6342WAT  MW   25368   6.581   3.975   6.193
 6343WAT  OW   25369   6.517   0.797   4.567
 6343WAT  HW1  25370   6.557   0.833   4.488
 6343WAT  HW2  25371   6.590   0.786   4.628
 6343WAT  MW   25372   6.532   0.800   4.564
 6344WAT  OW   25373   0.577   0.324   1.256
 6344WAT  HW1  25374   0.518   0.261   1.298
 6344WAT  HW2  25375   0.555   0.320   1.163
 6344WAT  MW   25376   0.567   0.315   1.249
 6345WAT  OW   25377   3.590   5.181   3.714
 6345WAT  HW1  25378   3.563   5.188   3.806
 6345WAT  HW2  25379   3.602   5.271   3.685
 6345WAT  MW   25380   3.588   5.194   3.722
 6346WAT  OW   25381   4.625   0.138   6.251
 6346WAT  HW1  25382   4.573   0.217   6.264
 6346WAT  HW2  25383   4.710   0.157   6.292
 6346WAT  MW   25384   4.629   0.151   6.258
 6347WAT  OW   25385   5.048   5.570   3.122
 6347WAT  HW1  25386   5.040   5.602   3.033
 6347WAT  HW2  25387   5.140   5.549   3.132
 6347WAT  MW   25388   5.059   5.572   3.112
 6348WAT  OW   25389   4.149   3.979   3.429
 6348WAT  HW1  25390   4.196   3.950   3.507
 6348WAT  HW2  25391   4.201   4.052   3.396
 6348WAT  MW   25392   4.162   3.985   3.435
 6349WAT  OW   25393   1.492   5.206   6.079
 6349WAT  HW1  25394   1.567   5.209   6.020
 6349WAT  HW2  25395   1.521   5.152   6.153
 6349WAT  MW   25396   1.506   5.199   6.081
 6350WAT  OW   25397   5.903   3.912   0.001
 6350WAT  HW1  25398   5.937   3.992  -0.039
 6350WAT  HW2  25399   5.828   3.942   0.053
 6350WAT  MW   25400   5.897   3.927   0.002
 6351WAT  OW   25401   5.458   2.055   1.387
 6351WAT  HW1  25402   5.473   2.037   1.295
 6351WAT  HW2  25403   5.389   1.994   1.413
 6351WAT  MW   25404   5.451   2.044   1.379
 6352WAT  OW   25405   2.374   3.746   2.810
 6352WAT  HW1  25406   2.305   3.782   2.866
 6352WAT  HW2  25407   2.442   3.718   2.871
 6352WAT  MW   25408   2.374   3.747   2.825
 6353WAT  OW   25409   6.402   1.652   3.779
 6353WAT  HW1  25410   6.449   1.713   3.836
 6353WAT  HW2  25411   6.452   1.652   3.698
 6353WAT  MW   25412   6.415   1.660   3.776
 6354WAT  OW   25413   0.982   2.749   1.673
 6354WAT  HW1  25414   0.964   2.843   1.677
 6354WAT  HW2  25415   1.043   2.739   1.599
 6354WAT  MW   25416   0.988   2.760   1.664
 6355WAT  OW   25417   2.042   6.526   1.371
 6355WAT  HW1  25418   2.013   6.494   1.285
 6355WAT  HW2  25419   2.062   6.447   1.420
 6355WAT  MW   25420   2.041   6.512   1.366
 6356WAT  OW   25421   6.059   5.966   6.002
 6356WAT  HW1  25422   6.013   6.024   6.063
 6356WAT  HW2  25423   6.100   6.026   5.939
 6356WAT  MW   25424   6.058   5.982   6.001
 6357WAT  OW   25425   2.119   1.569   5.767
 6357WAT  HW1  25426   2.157   1.560   5.679
 6357WAT  HW2  25427   2.086   1.659   5.770
 6357WAT  MW   25428   2.120   1.580   5.755
 6358WAT  OW   25429   3.259   0.327   4.902
 6358WAT  HW1  25430   3.279   0.393   4.967
 6358WAT  HW2  25431   3.343   0.283   4.885
 6358WAT  MW   25432   3.273   0.330   4.908
 6359WAT  OW   25433   0.918   3.418   0.271
 6359WAT  HW1  25434   0.843   3.378   0.227
 6359WAT  HW2  25435   0.899   3.512   0.268
 6359WAT  MW   25436   0.905   3.426   0.265
 6360WAT  OW   25437   5.008   5.776   5.624
 6360WAT  HW1  25438   5.065   5.771   5.700
 6360WAT  HW2  25439   5.022   5.693   5.578
 6360WAT  MW   25440   5.017   5.764   5.628
 6361WAT  OW   25441   3.062   6.483   5.507
 6361WAT  HW1  25442   3.094   6.421   5.572
 6361WAT  HW2  25443   3.140   6.528   5.475
 6361WAT  MW   25444   3.076   6.481   5.511
 6362WAT  OW   25445   6.143   2.077   6.529
 6362WAT  HW1  25446   6.116   2.010   6.467
 6362WAT  HW2  25447   6.209   2.035   6.584
 6362WAT  MW   25448   6.148   2.063   6.528
 6363WAT  OW   25449   2.709   3.514   6.646
 6363WAT  HW1  25450   2.691   3.436   6.698
 6363WAT  HW2  25451   2.728   3.582   6.709
 6363WAT  MW   25452   2.709   3.513   6.661
 6364WAT  OW   25453   1.821   3.933   2.397
 6364WAT  HW1  25454   1.759   3.931   2.470
 6364WAT  HW2  25455   1.858   4.021   2.400
 6364WAT  MW   25456   1.818   3.945   2.407
 6365WAT  OW   25457   0.560   2.174   4.519
 6365WAT  HW1  25458   0.652   2.195   4.530
 6365WAT  HW2  25459   0.554   2.081   4.543
 6365WAT  MW   25460   0.571   2.165   4.524
 6366WAT  OW   25461   0.262   5.073   5.474
 6366WAT  HW1  25462   0.313   5.092   5.552
 6366WAT  HW2  25463   0.179   5.118   5.488
 6366WAT  MW   25464   0.258   5.082   5.486
 6367WAT  OW   25465   3.123   5.320   5.438
 6367WAT  HW1  25466   3.158   5.255   5.498
 6367WAT  HW2  25467   3.160   5.296   5.353
 6367WAT  MW   25468   3.132   5.308   5.434
 6368WAT  OW   25469   1.855   0.711   5.824
 6368WAT  HW1  25470   1.921   0.659   5.869
 6368WAT  HW2  25471   1.863   0.686   5.732
 6368WAT  MW   25472   1.864   0.701   5.817
 6369WAT  OW   25473   4.916   3.435   4.425
 6369WAT  HW1  25474   4.939   3.421   4.333
 6369WAT  HW2  25475   4.957   3.363   4.471
 6369WAT  MW   25476   4.924   3.424   4.419
 6370WAT  OW   25477   4.726   0.366   0.771
 6370WAT  HW1  25478   4.670   0.336   0.842
 6370WAT  HW2  25479   4.671   0.424   0.719
 6370WAT  MW   25480   4.712   0.370   0.773
 6371WAT  OW   25481   0.780   5.616   1.277
 6371WAT  HW1  25482   0.734   5.621   1.193
 6371WAT  HW2  25483   0.757   5.530   1.312
 6371WAT  MW   25484   0.771   5.605   1.271
 6372WAT  OW   25485   0.202   4.948   3.250
 6372WAT  HW1  25486   0.248   4.959   3.333
 6372WAT  HW2  25487   0.184   4.854   3.245
 6372WAT  MW   25488   0.206   4.937   3.260
 6373WAT  OW   25489   3.310   1.711   1.424
 6373WAT  HW1  25490   3.311   1.619   1.396
 6373WAT  HW2  25491   3.223   1.742   1.401
 6373WAT  MW   25492   3.299   1.703   1.417
 6374WAT  OW   25493   1.554   1.718   4.893
 6374WAT  HW1  25494   1.616   1.708   4.821
 6374WAT  HW2  25495   1.515   1.631   4.904
 6374WAT  MW   25496   1.557   1.705   4.885
 6375WAT  OW   25497   2.457   1.383   5.203
 6375WAT  HW1  25498   2.514   1.334   5.262
 6375WAT  HW2  25499   2.424   1.455   5.257
 6375WAT  MW   25500   2.460   1.386   5.218
 6376WAT  OW   25501   5.322   4.885   1.743
 6376WAT  HW1  25502   5.368   4.803   1.727
 6376WAT  HW2  25503   5.390   4.951   1.746
 6376WAT  MW   25504   5.337   4.883   1.742
 6377WAT  OW   25505   5.610   4.202   0.878
 6377WAT  HW1  25506   5.685   4.171   0.828
 6377WAT  HW2  25507   5.543   4.221   0.812
 6377WAT  MW   25508   5.611   4.200   0.863
 6378WAT  OW   25509   5.181   1.168   2.131
 6378WAT  HW1  25510   5.268   1.204   2.147
 6378WAT  HW2  25511   5.131   1.191   2.210
 6378WAT  MW   25512   5.186   1.176   2.144
 6379WAT  OW   25513   1.476   0.900   2.001
 6379WAT  HW1  25514   1.466   0.929   1.911
 6379WAT  HW2  25515   1.567   0.870   2.006
 6379WAT  MW   25516   1.487   0.899   1.990
 6380WAT  OW   25517   5.859   5.625   1.600
 6380WAT  HW1  25518   5.820   5.669   1.675
 6380WAT  HW2  25519   5.833   5.534   1.609
 6380WAT  MW   25520   5.850   5.619   1.611
 6381WAT  OW   25521   4.611   4.580   4.775
 6381WAT  HW1  25522   4.565   4.550   4.696
 6381WAT  HW2  25523   4.577   4.667   4.791
 6381WAT  MW   25524   4.600   4.587   4.766
 6382WAT  OW   25525   0.482   0.836   3.847
 6382WAT  HW1  25526   0.426   0.815   3.773
 6382WAT  HW2  25527   0.454   0.776   3.916
 6382WAT  MW   25528   0.471   0.825   3.847
 6383WAT  OW   25529   6.406   5.347   1.993
 6383WAT  HW1  25530   6.430   5.377   1.905
 6383WAT  HW2  25531   6.393   5.252   1.983
 6383WAT  MW   25532   6.408   5.338   1.980
 6384WAT  OW   25533   3.042   5.356   3.716
 6384WAT  HW1  25534   3.065   5.285   3.776
 6384WAT  HW2  25535   3.035   5.314   3.630
 6384WAT  MW   25536   3.044   5.341   3.713
 6385WAT  OW   25537   3.410   6.531   5.668
 6385WAT  HW1  25538   3.501   6.502   5.671
 6385WAT  HW2  25539   3.360   6.452   5.649
 6385WAT  MW   25540   3.415   6.517   5.666
 6386WAT  OW   25541   6.579   2.663   4.531
 6386WAT  HW1  25542   6.563   2.667   4.437
 6386WAT  HW2  25543   6.498   2.630   4.569
 6386WAT  MW   25544   6.566   2.659   4.524
 6387WAT  OW   25545   3.941   0.075   1.027
 6387WAT  HW1  25546   4.006   0.144   1.041
 6387WAT  HW2  25547   3.864   0.120   0.992
 6387WAT  MW   25548   3.940   0.090   1.024
 6388WAT  OW   25549   3.605   0.118   2.677
 6388WAT  HW1  25550   3.542   0.148   2.742
 6388WAT  HW2  25551   3.680   0.178   2.687
 6388WAT  MW   25552   3.607   0.130   2.687
 6389WAT  OW   25553   4.799   0.953   4.814
 6389WAT  HW1  25554   4.713   0.912   4.808
 6389WAT  HW2  25555   4.804   1.010   4.737
 6389WAT  MW   25556   4.789   0.955   4.803
 6390WAT  OW   25557   6.076   1.316   4.516
 6390WAT  HW1  25558   6.136   1.342   4.446
 6390WAT  HW2  25559   5.994   1.362   4.496
 6390WAT  MW   25560   6.073   1.326   4.504
 6391WAT  OW   25561   3.100   4.330   3.696
 6391WAT  HW1  25562   3.082   4.262   3.761
 6391WAT  HW2  25563   3.165   4.292   3.637
 6391WAT  MW   25564   3.106   4.316   3.697
 6392WAT  OW   25565   5.457   6.625   5.872
 6392WAT  HW1  25566   5.427   6.677   5.798
 6392WAT  HW2  25567   5.380   6.575   5.899
 6392WAT  MW   25568   5.443   6.625   5.866
 6393WAT  OW   25569   0.963   5.116   5.569
 6393WAT  HW1  25570   0.868   5.115   5.574
 6393WAT  HW2  25571   0.984   5.056   5.496
 6393WAT  MW   25572   0.954   5.108   5.560
 6394WAT  OW   25573   6.124   1.652   3.715
 6394WAT  HW1  25574   6.219   1.645   3.711
 6394WAT  HW2  25575   6.105   1.686   3.802
 6394WAT  MW   25576   6.134   1.655   3.726
 6395WAT  OW   25577   3.765   6.237   0.954
 6395WAT  HW1  25578   3.847   6.192   0.977
 6395WAT  HW2  25579   3.710   6.227   1.032
 6395WAT  MW   25580   3.769   6.230   0.968
 6396WAT  OW   25581   0.878   5.264   1.246
 6396WAT  HW1  25582   0.901   5.201   1.314
 6396WAT  HW2  25583   0.794   5.300   1.275
 6396WAT  MW   25584   0.870   5.260   1.259
 6397WAT  OW   25585   4.383   3.073   1.350
 6397WAT  HW1  25586   4.331   3.097   1.427
 6397WAT  HW2  25587   4.321   3.075   1.277
 6397WAT  MW   25588   4.368   3.076   1.350
 6398WAT  OW   25589   2.927   5.352   4.698
 6398WAT  HW1  25590   2.852   5.333   4.640
 6398WAT  HW2  25591   2.896   5.422   4.755
 6398WAT  MW   25592   2.913   5.358   4.698
 6399WAT  OW   25593   1.931   2.156   4.571
 6399WAT  HW1  25594   1.889   2.095   4.510
 6399WAT  HW2  25595   1.965   2.226   4.515
 6399WAT  MW   25596   1.930   2.157   4.555
 6400WAT  OW   25597   2.158   4.060   1.212
 6400WAT  HW1  25598   2.144   3.968   1.236
 6400WAT  HW2  25599   2.092   4.108   1.263
 6400WAT  MW   25600   2.147   4.054   1.222
 6401WAT  OW   25601   0.009   6.493   6.572
 6401WAT  HW1  25602   0.043   6.404   6.567
 6401WAT  HW2  25603  -0.007   6.518   6.480
 6401WAT  MW   25604   0.011   6.485   6.559
 6402WAT  OW   25605   5.240   1.341   1.785
 6402WAT  HW1  25606   5.178   1.388   1.841
 6402WAT  HW2  25607   5.210   1.250   1.788
 6402WAT  MW   25608   5.228   1.335   1.793
 6403WAT  OW   25609   4.803   0.671   0.512
 6403WAT  HW1  25610   4.710   0.653   0.518
 6403WAT  HW2  25611   4.817   0.696   0.420
 6403WAT  MW   25612   4.793   0.672   0.501
 6404WAT  OW   25613   2.021   2.722   3.364
 6404WAT  HW1  25614   2.083   2.792   3.383
 6404WAT  HW2  25615   2.031   2.660   3.436
 6404WAT  MW   25616   2.030   2.723   3.376
 6405WAT  OW   25617   3.131   5.186   6.540
 6405WAT  HW1  25618   3.079   5.221   6.613
 6405WAT  HW2  25619   3.190   5.257   6.517
 6405WAT  MW   25620   3.132   5.200   6.547
 6406WAT  OW   25621   2.746   5.674   2.751
 6406WAT  HW1  25622   2.731   5.624   2.671
 6406WAT  HW2  25623   2.830   5.718   2.737
 6406WAT  MW   25624   2.755   5.673   2.739
 6407WAT  OW   25625   2.203   4.394   4.144
 6407WAT  HW1  25626   2.197   4.364   4.234
 6407WAT  HW2  25627   2.294   4.375   4.118
 6407WAT  MW   25628   2.214   4.387   4.152
 6408WAT  OW   25629   2.464   0.383   4.707
 6408WAT  HW1  25630   2.443   0.305   4.758
 6408WAT  HW2  25631   2.538   0.357   4.653
 6408WAT  MW   25632   2.471   0.369   4.706
 6409WAT  OW   25633   1.420   4.468   4.640
 6409WAT  HW1  25634   1.401   4.497   4.729
 6409WAT  HW2  25635   1.335   4.464   4.597
 6409WAT  MW   25636   1.406   4.471   4.646
 6410WAT  OW   25637   3.284   2.597   3.705
 6410WAT  HW1  25638   3.273   2.588   3.800
 6410WAT  HW2  25639   3.255   2.686   3.686
 6410WAT  MW   25640   3.278   2.607   3.715
 6411WAT  OW   25641   0.407   5.631   1.716
 6411WAT  HW1  25642   0.348   5.567   1.676
 6411WAT  HW2  25643   0.374   5.716   1.686
 6411WAT  MW   25644   0.395   5.634   1.706
 6412WAT  OW   25645   2.001   5.679   2.111
 6412WAT  HW1  25646   2.016   5.758   2.060
 6412WAT  HW2  25647   2.038   5.699   2.198
 6412WAT  MW   25648   2.008   5.692   2.116
 6413WAT  OW   25649   5.347   1.896   6.162
 6413WAT  HW1  25650   5.304   1.811   6.172
 6413WAT  HW2  25651   5.330   1.941   6.245
 6413WAT  MW   25652   5.339   1.891   6.174
 6414WAT  OW   25653   6.195   1.500   4.747
 6414WAT  HW1  25654   6.121   1.560   4.742
 6414WAT  HW2  25655   6.182   1.440   4.674
 6414WAT  MW   25656   6.183   1.500   4.737
 6415WAT  OW   25657   0.088   4.352   3.600
 6415WAT  HW1  25658   0.126   4.380   3.517
 6415WAT  HW2  25659   0.096   4.428   3.658
 6415WAT  MW   25660   0.094   4.366   3.597
 6416WAT  OW   25661   3.163   2.567   3.967
 6416WAT  HW1  25662   3.151   2.656   3.998
 6416WAT  HW2  25663   3.211   2.524   4.038
 6416WAT  MW   25664   3.168   2.573   3.980
 6417WAT  OW   25665   6.523   6.068   2.544
 6417WAT  HW1  25666   6.560   6.093   2.459
 6417WAT  HW2  25667   6.448   6.126   2.555
 6417WAT  MW   25668   6.518   6.079   2.534
 6418WAT  OW   25669   1.907   4.250   4.263
 6418WAT  HW1  25670   1.988   4.296   4.286
 6418WAT  HW2  25671   1.933   4.188   4.195
 6418WAT  MW   25672   1.922   4.248   4.257
 6419WAT  OW   25673   6.052   1.307   4.120
 6419WAT  HW1  25674   6.012   1.363   4.053
 6419WAT  HW2  25675   6.126   1.267   4.076
 6419WAT  MW   25676   6.056   1.309   4.105
 6420WAT  OW   25677   4.011   0.726   5.947
 6420WAT  HW1  25678   4.100   0.745   5.976
 6420WAT  HW2  25679   3.983   0.806   5.902
 6420WAT  MW   25680   4.019   0.739   5.945
 6421WAT  OW   25681   4.527   0.054   2.313
 6421WAT  HW1  25682   4.559   0.134   2.272
 6421WAT  HW2  25683   4.542   0.067   2.407
 6421WAT  MW   25684   4.533   0.066   2.320
 6422WAT  OW   25685   5.282   2.045   5.951
 6422WAT  HW1  25686   5.308   1.991   6.025
 6422WAT  HW2  25687   5.246   1.984   5.887
 6422WAT  MW   25688   5.281   2.030   5.952
 6423WAT  OW   25689   2.710   4.798   2.538
 6423WAT  HW1  25690   2.731   4.717   2.586
 6423WAT  HW2  25691   2.794   4.828   2.505
 6423WAT  MW   25692   2.724   4.791   2.540
 6424WAT  OW   25693   0.812   2.461   5.811
 6424WAT  HW1  25694   0.867   2.530   5.848
 6424WAT  HW2  25695   0.834   2.460   5.718
 6424WAT  MW   25696   0.822   2.470   5.804
 6425WAT  OW   25697   0.609   0.649   5.512
 6425WAT  HW1  25698   0.559   0.663   5.592
 6425WAT  HW2  25699   0.607   0.555   5.498
 6425WAT  MW   25700   0.602   0.639   5.520
 6426WAT  OW   25701   0.951   2.109   4.210
 6426WAT  HW1  25702   0.967   2.184   4.153
 6426WAT  HW2  25703   0.989   2.034   4.163
 6426WAT  MW   25704   0.958   2.109   4.196
 6427WAT  OW   25705   2.413   4.336   1.483
 6427WAT  HW1  25706   2.325   4.373   1.480
 6427WAT  HW2  25707   2.454   4.363   1.401
 6427WAT  MW   25708   2.407   4.344   1.472
 6428WAT  OW   25709   2.200   2.089   4.686
 6428WAT  HW1  25710   2.170   2.000   4.704
 6428WAT  HW2  25711   2.119   2.140   4.680
 6428WAT  MW   25712   2.185   2.084   4.688
 6429WAT  OW   25713   2.369   2.759   0.073
 6429WAT  HW1  25714   2.447   2.812   0.059
 6429WAT  HW2  25715   2.311   2.814   0.124
 6429WAT  MW   25716   2.372   2.773   0.078
 6430WAT  OW   25717   2.202   1.571   6.215
 6430WAT  HW1  25718   2.232   1.540   6.130
 6430WAT  HW2  25719   2.282   1.602   6.258
 6430WAT  MW   25720   2.217   1.571   6.210
 6431WAT  OW   25721   6.696   0.574   0.586
 6431WAT  HW1  25722   6.666   0.643   0.528
 6431WAT  HW2  25723   6.616   0.529   0.612
 6431WAT  MW   25724   6.682   0.577   0.582
 6432WAT  OW   25725   0.698   3.199   6.637
 6432WAT  HW1  25726   0.692   3.233   6.547
 6432WAT  HW2  25727   0.610   3.166   6.656
 6432WAT  MW   25728   0.686   3.199   6.627
 6433WAT  OW   25729   3.709   3.993   4.436
 6433WAT  HW1  25730   3.754   3.912   4.413
 6433WAT  HW2  25731   3.780   4.052   4.463
 6433WAT  MW   25732   3.724   3.990   4.436
 6434WAT  OW   25733   5.140   0.245   4.682
 6434WAT  HW1  25734   5.088   0.197   4.617
 6434WAT  HW2  25735   5.177   0.177   4.738
 6434WAT  MW   25736   5.138   0.230   4.681
 6435WAT  OW   25737   5.395   6.446   6.564
 6435WAT  HW1  25738   5.434   6.513   6.621
 6435WAT  HW2  25739   5.301   6.460   6.572
 6435WAT  MW   25740   5.388   6.457   6.573
 6436WAT  OW   25741   4.510   6.125   6.303
 6436WAT  HW1  25742   4.512   6.084   6.216
 6436WAT  HW2  25743   4.422   6.161   6.311
 6436WAT  MW   25744   4.499   6.124   6.293
 6437WAT  OW   25745   3.642   4.736   2.338
 6437WAT  HW1  25746   3.698   4.671   2.381
 6437WAT  HW2  25747   3.689   4.760   2.259
 6437WAT  MW   25748   3.655   4.731   2.333
 6438WAT  OW   25749   0.383   2.919   6.492
 6438WAT  HW1  25750   0.475   2.901   6.515
 6438WAT  HW2  25751   0.367   2.865   6.415
 6438WAT  MW   25752   0.393   2.910   6.485
 6439WAT  OW   25753   0.028   1.833   5.392
 6439WAT  HW1  25754  -0.009   1.822   5.480
 6439WAT  HW2  25755   0.089   1.907   5.401
 6439WAT  MW   25756   0.031   1.841   5.405
 6440WAT  OW   25757   0.860   2.960   1.375
 6440WAT  HW1  25758   0.766   2.964   1.393
 6440WAT  HW2  25759   0.867   2.967   1.280
 6440WAT  MW   25760   0.849   2.962   1.365
 6441WAT  OW   25761   5.073   0.077   6.617
 6441WAT  HW1  25762   5.103   0.164   6.593
 6441WAT  HW2  25763   5.150   0.036   6.658
 6441WAT  MW   25764   5.087   0.083   6.619
 6442WAT  OW   25765   2.492   0.117   6.309
 6442WAT  HW1  25766   2.535   0.032   6.299
 6442WAT  HW2  25767   2.549   0.167   6.367
 6442WAT  MW   25768   2.505   0.112   6.315
 6443WAT  OW   25769   3.901   3.264   3.136
 6443WAT  HW1  25770   3.828   3.321   3.161
 6443WAT  HW2  25771   3.858   3.186   3.100
 6443WAT  MW   25772   3.886   3.261   3.135
 6444WAT  OW   25773   1.425   3.971   2.455
 6444WAT  HW1  25774   1.370   3.893   2.446
 6444WAT  HW2  25775   1.382   4.022   2.524
 6444WAT  MW   25776   1.412   3.967   2.463
 6445WAT  OW   25777   5.601   2.794   1.745
 6445WAT  HW1  25778   5.587   2.701   1.761
 6445WAT  HW2  25779   5.695   2.806   1.753
 6445WAT  MW   25780   5.611   2.783   1.748
 6446WAT  OW   25781   4.967   2.230   1.091
 6446WAT  HW1  25782   5.033   2.293   1.065
 6446WAT  HW2  25783   4.948   2.251   1.182
 6446WAT  MW   25784   4.974   2.241   1.100
 6447WAT  OW   25785   3.211   3.986   4.891
 6447WAT  HW1  25786   3.221   3.954   4.802
 6447WAT  HW2  25787   3.170   4.072   4.882
 6447WAT  MW   25788   3.207   3.993   4.878
 6448WAT  OW   25789   2.233   3.859   6.542
 6448WAT  HW1  25790   2.187   3.859   6.626
 6448WAT  HW2  25791   2.190   3.927   6.491
 6448WAT  MW   25792   2.222   3.868   6.546
 6449WAT  OW   25793   2.395   0.238   0.008
 6449WAT  HW1  25794   2.483   0.238   0.045
 6449WAT  HW2  25795   2.341   0.276   0.077
 6449WAT  MW   25796   2.399   0.243   0.022
 6450WAT  OW   25797   0.586   2.361   5.710
 6450WAT  HW1  25798   0.602   2.305   5.634
 6450WAT  HW2  25799   0.673   2.387   5.741
 6450WAT  MW   25800   0.599   2.357   5.704
 6451WAT  OW   25801   4.473   1.750   1.322
 6451WAT  HW1  25802   4.445   1.757   1.413
 6451WAT  HW2  25803   4.563   1.782   1.322
 6451WAT  MW   25804   4.481   1.755   1.334
 6452WAT  OW   25805   2.767   6.537   1.377
 6452WAT  HW1  25806   2.772   6.556   1.283
 6452WAT  HW2  25807   2.744   6.621   1.417
 6452WAT  MW   25808   2.765   6.551   1.370
 6453WAT  OW   25809   4.635   1.821   2.818
 6453WAT  HW1  25810   4.589   1.883   2.761
 6453WAT  HW2  25811   4.718   1.806   2.774
 6453WAT  MW   25812   4.640   1.827   2.804
 6454WAT  OW   25813   1.411   4.311   3.702
 6454WAT  HW1  25814   1.416   4.396   3.747
 6454WAT  HW2  25815   1.374   4.251   3.767
 6454WAT  MW   25816   1.407   4.315   3.717
 6455WAT  OW   25817   1.802   2.860   2.317
 6455WAT  HW1  25818   1.895   2.880   2.302
 6455WAT  HW2  25819   1.803   2.803   2.394
 6455WAT  MW   25820   1.815   2.855   2.325
 6456WAT  OW   25821   1.742   5.487   1.298
 6456WAT  HW1  25822   1.728   5.457   1.388
 6456WAT  HW2  25823   1.838   5.493   1.289
 6456WAT  MW   25824   1.753   5.484   1.308
 6457WAT  OW   25825   4.218   0.058   3.538
 6457WAT  HW1  25826   4.140   0.038   3.590
 6457WAT  HW2  25827   4.185   0.063   3.448
 6457WAT  MW   25828   4.203   0.056   3.533
 6458WAT  OW   25829   6.437   5.221   5.277
 6458WAT  HW1  25830   6.383   5.288   5.319
 6458WAT  HW2  25831   6.448   5.251   5.187
 6458WAT  MW   25832   6.432   5.234   5.270
 6459WAT  OW   25833   6.236   2.336   2.033
 6459WAT  HW1  25834   6.160   2.283   2.055
 6459WAT  HW2  25835   6.310   2.275   2.034
 6459WAT  MW   25836   6.236   2.321   2.036
 6460WAT  OW   25837   5.645   4.034   3.805
 6460WAT  HW1  25838   5.713   4.094   3.776
 6460WAT  HW2  25839   5.583   4.089   3.852
 6460WAT  MW   25840   5.646   4.049   3.807
 6461WAT  OW   25841   2.396   6.268   3.662
 6461WAT  HW1  25842   2.440   6.353   3.669
 6461WAT  HW2  25843   2.349   6.271   3.579
 6461WAT  MW   25844   2.396   6.279   3.652
 6462WAT  OW   25845   4.853   4.586   4.524
 6462WAT  HW1  25846   4.842   4.500   4.566
 6462WAT  HW2  25847   4.767   4.626   4.528
 6462WAT  MW   25848   4.840   4.580   4.530
 6463WAT  OW   25849   2.799   1.721   0.788
 6463WAT  HW1  25850   2.786   1.737   0.882
 6463WAT  HW2  25851   2.711   1.705   0.754
 6463WAT  MW   25852   2.785   1.721   0.796
 6464WAT  OW   25853   2.244   0.537   2.167
 6464WAT  HW1  25854   2.172   0.525   2.229
 6464WAT  HW2  25855   2.251   0.632   2.157
 6464WAT  MW   25856   2.235   0.548   2.174
 6465WAT  OW   25857   0.123   5.109   4.443
 6465WAT  HW1  25858   0.040   5.119   4.397
 6465WAT  HW2  25859   0.185   5.081   4.376
 6465WAT  MW   25860   0.121   5.107   4.428
 6466WAT  OW   25861   5.028   4.709   4.752
 6466WAT  HW1  25862   4.996   4.781   4.806
 6466WAT  HW2  25863   4.954   4.690   4.693
 6466WAT  MW   25864   5.014   4.716   4.751
 6467WAT  OW   25865   5.083   4.035   1.834
 6467WAT  HW1  25866   5.002   3.990   1.810
 6467WAT  HW2  25867   5.059   4.090   1.908
 6467WAT  MW   25868   5.069   4.036   1.841
 6468WAT  OW   25869   6.230   3.047   5.892
 6468WAT  HW1  25870   6.300   3.112   5.884
 6468WAT  HW2  25871   6.274   2.963   5.876
 6468WAT  MW   25872   6.245   3.045   5.889
 6469WAT  OW   25873   5.145   2.430   2.041
 6469WAT  HW1  25874   5.111   2.343   2.065
 6469WAT  HW2  25875   5.191   2.459   2.120
 6469WAT  MW   25876   5.147   2.422   2.055
 6470WAT  OW   25877   5.291   2.962   4.394
 6470WAT  HW1  25878   5.283   2.988   4.486
 6470WAT  HW2  25879   5.330   3.038   4.351
 6470WAT  MW   25880   5.295   2.975   4.401
 6471WAT  OW   25881   5.461   3.822   3.723
 6471WAT  HW1  25882   5.527   3.890   3.710
 6471WAT  HW2  25883   5.401   3.858   3.788
 6471WAT  MW   25884   5.462   3.835   3.730
 6472WAT  OW   25885   2.234   0.500   3.602
 6472WAT  HW1  25886   2.258   0.444   3.675
 6472WAT  HW2  25887   2.253   0.589   3.632
 6472WAT  MW   25888   2.239   0.504   3.615
 6473WAT  OW   25889   4.129   6.491   2.437
 6473WAT  HW1  25890   4.175   6.574   2.428
 6473WAT  HW2  25891   4.122   6.459   2.347
 6473WAT  MW   25892   4.134   6.498   2.424
 6474WAT  OW   25893   3.253   6.114   1.969
 6474WAT  HW1  25894   3.168   6.152   1.946
 6474WAT  HW2  25895   3.299   6.104   1.886
 6474WAT  MW   25896   3.248   6.118   1.955
 6475WAT  OW   25897   1.496   4.417   2.087
 6475WAT  HW1  25898   1.427   4.372   2.038
 6475WAT  HW2  25899   1.472   4.405   2.178
 6475WAT  MW   25900   1.484   4.409   2.092
 6476WAT  OW   25901   4.288   4.708   4.844
 6476WAT  HW1  25902   4.211   4.651   4.840
 6476WAT  HW2  25903   4.305   4.720   4.938
 6476WAT  MW   25904   4.280   4.702   4.856
 6477WAT  OW   25905   0.311   5.011   3.530
 6477WAT  HW1  25906   0.337   5.006   3.622
 6477WAT  HW2  25907   0.265   5.095   3.523
 6477WAT  MW   25908   0.309   5.022   3.541
 6478WAT  OW   25909   5.364   5.997   4.217
 6478WAT  HW1  25910   5.420   5.934   4.262
 6478WAT  HW2  25911   5.401   6.003   4.128
 6478WAT  MW   25912   5.377   5.990   4.211
 6479WAT  OW   25913   1.943   3.383   2.568
 6479WAT  HW1  25914   1.850   3.361   2.577
 6479WAT  HW2  25915   1.943   3.475   2.540
 6479WAT  MW   25916   1.931   3.393   2.566
 6480WAT  OW   25917   6.087   4.356   5.020
 6480WAT  HW1  25918   6.159   4.293   5.023
 6480WAT  HW2  25919   6.028   4.329   5.090
 6480WAT  MW   25920   6.089   4.345   5.029
 6481WAT  OW   25921   5.539   3.866   5.477
 6481WAT  HW1  25922   5.465   3.812   5.447
 6481WAT  HW2  25923   5.511   3.956   5.458
 6481WAT  MW   25924   5.525   3.871   5.470
 6482WAT  OW   25925   2.953   4.756   6.003
 6482WAT  HW1  25926   2.938   4.836   5.951
 6482WAT  HW2  25927   2.948   4.685   5.939
 6482WAT  MW   25928   2.950   4.757   5.988
 6483WAT  OW   25929   1.317   4.284   3.286
 6483WAT  HW1  25930   1.236   4.251   3.326
 6483WAT  HW2  25931   1.287   4.344   3.217
 6483WAT  MW   25932   1.302   4.287   3.282
 6484WAT  OW   25933   3.609   0.088   6.271
 6484WAT  HW1  25934   3.657   0.061   6.193
 6484WAT  HW2  25935   3.574   0.174   6.250
 6484WAT  MW   25936   3.610   0.096   6.258
 6485WAT  OW   25937   5.641   1.707   5.422
 6485WAT  HW1  25938   5.731   1.678   5.441
 6485WAT  HW2  25939   5.632   1.790   5.470
 6485WAT  MW   25940   5.652   1.714   5.431
 6486WAT  OW   25941   0.595   5.603   2.361
 6486WAT  HW1  25942   0.560   5.514   2.352
 6486WAT  HW2  25943   0.690   5.591   2.363
 6486WAT  MW   25944   0.603   5.590   2.360
 6487WAT  OW   25945   6.356   1.609   2.085
 6487WAT  HW1  25946   6.288   1.598   2.019
 6487WAT  HW2  25947   6.341   1.696   2.121
 6487WAT  MW   25948   6.345   1.619   2.081
 6488WAT  OW   25949   1.551   4.166   3.489
 6488WAT  HW1  25950   1.499   4.205   3.559
 6488WAT  HW2  25951   1.605   4.238   3.456
 6488WAT  MW   25952   1.551   4.181   3.494
 6489WAT  OW   25953   2.746   3.674   2.425
 6489WAT  HW1  25954   2.823   3.694   2.479
 6489WAT  HW2  25955   2.672   3.709   2.475
 6489WAT  MW   25956   2.747   3.681   2.439
 6490WAT  OW   25957   0.866   0.462   0.074
 6490WAT  HW1  25958   0.866   0.490   0.166
 6490WAT  HW2  25959   0.777   0.477   0.044
 6490WAT  MW   25960   0.854   0.468   0.082
 6491WAT  OW   25961   3.205   2.107   1.639
 6491WAT  HW1  25962   3.247   2.113   1.725
 6491WAT  HW2  25963   3.236   2.185   1.592
 6491WAT  MW   25964   3.215   2.118   1.644
 6492WAT  OW   25965   3.188   5.119   2.207
 6492WAT  HW1  25966   3.264   5.125   2.149
 6492WAT  HW2  25967   3.180   5.206   2.245
 6492WAT  MW   25968   3.197   5.131   2.204
 6493WAT  OW   25969   5.330   3.999   6.290
 6493WAT  HW1  25970   5.284   3.961   6.215
 6493WAT  HW2  25971   5.306   3.944   6.364
 6493WAT  MW   25972   5.321   3.987   6.290
 6494WAT  OW   25973   0.204   6.687   6.641
 6494WAT  HW1  25974   0.141   6.617   6.625
 6494WAT  HW2  25975   0.166   6.764   6.599
 6494WAT  MW   25976   0.191   6.688   6.634
 6495WAT  OW   25977   0.619   0.518   6.622
 6495WAT  HW1  25978   0.575   0.579   6.681
 6495WAT  HW2  25979   0.638   0.570   6.544
 6495WAT  MW   25980   0.615   0.533   6.619
 6496WAT  OW   25981   5.832   5.109   4.947
 6496WAT  HW1  25982   5.818   5.024   4.988
 6496WAT  HW2  25983   5.873   5.162   5.016
 6496WAT  MW   25984   5.836   5.105   4.962
 6497WAT  OW   25985   1.358   5.506   3.493
 6497WAT  HW1  25986   1.314   5.521   3.409
 6497WAT  HW2  25987   1.330   5.419   3.520
 6497WAT  MW   25988   1.348   5.497   3.486
 6498WAT  OW   25989   2.612   5.102   1.955
 6498WAT  HW1  25990   2.672   5.172   1.929
 6498WAT  HW2  25991   2.531   5.121   1.908
 6498WAT  MW   25992   2.609   5.113   1.945
 6499WAT  OW   25993   0.925   3.246   5.316
 6499WAT  HW1  25994   0.950   3.330   5.355
 6499WAT  HW2  25995   1.009   3.202   5.300
 6499WAT  MW   25996   0.940   3.252   5.319
 6500WAT  OW   25997   4.339   4.888   3.934
 6500WAT  HW1  25998   4.356   4.795   3.916
 6500WAT  HW2  25999   4.425   4.923   3.958
 6500WAT  MW   26000   4.353   4.880   3.935
 6501WAT  OW   26001   4.750   0.034   1.588
 6501WAT  HW1  26002   4.840   0.036   1.622
 6501WAT  HW2  26003   4.721   0.125   1.591
 6501WAT  MW   26004   4.758   0.046   1.593
 6502WAT  OW   26005   0.874   2.917   4.690
 6502WAT  HW1  26006   0.869   2.836   4.640
 6502WAT  HW2  26007   0.849   2.891   4.779
 6502WAT  MW   26008   0.870   2.903   4.695
 6503WAT  OW   26009   4.358   6.565   1.501
 6503WAT  HW1  26010   4.409   6.499   1.455
 6503WAT  HW2  26011   4.322   6.620   1.431
 6503WAT  MW   26012   4.360   6.564   1.486
 6504WAT  OW   26013   6.339   5.649   4.400
 6504WAT  HW1  26014   6.331   5.677   4.491
 6504WAT  HW2  26015   6.364   5.557   4.406
 6504WAT  MW   26016   6.342   5.640   4.413
 6505WAT  OW   26017   2.542   0.154   2.734
 6505WAT  HW1  26018   2.482   0.202   2.792
 6505WAT  HW2  26019   2.620   0.139   2.787
 6505WAT  MW   26020   2.544   0.159   2.749
 6506WAT  OW   26021   4.282   4.453   6.554
 6506WAT  HW1  26022   4.222   4.485   6.487
 6506WAT  HW2  26023   4.225   4.408   6.617
 6506WAT  MW   26024   4.267   4.452   6.554
 6507WAT  OW   26025   2.854   5.726   4.656
 6507WAT  HW1  26026   2.819   5.813   4.635
 6507WAT  HW2  26027   2.947   5.741   4.670
 6507WAT  MW   26028   2.861   5.740   4.655
 6508WAT  OW   26029   2.870   3.892   1.608
 6508WAT  HW1  26030   2.808   3.963   1.592
 6508WAT  HW2  26031   2.948   3.915   1.557
 6508WAT  MW   26032   2.872   3.904   1.599
 6509WAT  OW   26033   6.585   4.524   1.549
 6509WAT  HW1  26034   6.571   4.608   1.505
 6509WAT  HW2  26035   6.501   4.478   1.541
 6509WAT  MW   26036   6.572   4.529   1.542
 6510WAT  OW   26037   5.285   3.786   5.650
 6510WAT  HW1  26038   5.292   3.730   5.572
 6510WAT  HW2  26039   5.348   3.748   5.712
 6510WAT  MW   26040   5.294   3.774   5.648
 6511WAT  OW   26041   2.938   3.972   4.229
 6511WAT  HW1  26042   2.965   3.920   4.153
 6511WAT  HW2  26043   3.010   4.035   4.241
 6511WAT  MW   26044   2.951   3.974   4.220
 6512WAT  OW   26045   1.237   5.682   6.525
 6512WAT  HW1  26046   1.192   5.640   6.452
 6512WAT  HW2  26047   1.308   5.731   6.485
 6512WAT  MW   26048   1.240   5.683   6.510
 6513WAT  OW   26049   0.847   1.487   5.822
 6513WAT  HW1  26050   0.850   1.562   5.763
 6513WAT  HW2  26051   0.865   1.523   5.908
 6513WAT  MW   26052   0.850   1.501   5.826
 6514WAT  OW   26053   2.896   6.103   3.667
 6514WAT  HW1  26054   2.891   6.087   3.573
 6514WAT  HW2  26055   2.986   6.080   3.690
 6514WAT  MW   26056   2.907   6.098   3.658
 6515WAT  OW   26057   5.738   4.507   2.481
 6515WAT  HW1  26058   5.647   4.482   2.497
 6515WAT  HW2  26059   5.786   4.475   2.557
 6515WAT  MW   26060   5.733   4.500   2.493
 6516WAT  OW   26061   1.337   0.901   3.698
 6516WAT  HW1  26062   1.432   0.889   3.694
 6516WAT  HW2  26063   1.316   0.952   3.620
 6516WAT  MW   26064   1.347   0.907   3.687
 6517WAT  OW   26065   6.085   4.813   1.195
 6517WAT  HW1  26066   6.036   4.860   1.128
 6517WAT  HW2  26067   6.122   4.738   1.149
 6517WAT  MW   26068   6.083   4.809   1.180
 6518WAT  OW   26069   0.953   2.022   2.125
 6518WAT  HW1  26070   1.036   1.979   2.148
 6518WAT  HW2  26071   0.977   2.113   2.107
 6518WAT  MW   26072   0.967   2.028   2.126
 6519WAT  OW   26073   0.667   1.372   2.422
 6519WAT  HW1  26074   0.708   1.370   2.336
 6519WAT  HW2  26075   0.635   1.283   2.436
 6519WAT  MW   26076   0.669   1.360   2.413
 6520WAT  OW   26077   2.243   5.174   0.169
 6520WAT  HW1  26078   2.328   5.160   0.128
 6520WAT  HW2  26079   2.263   5.196   0.260
 6520WAT  MW   26080   2.257   5.175   0.175
 6521WAT  OW   26081   5.645   4.329   2.097
 6521WAT  HW1  26082   5.669   4.279   2.175
 6521WAT  HW2  26083   5.725   4.331   2.044
 6521WAT  MW   26084   5.659   4.323   2.100
 6522WAT  OW   26085   0.646   0.063   6.689
 6522WAT  HW1  26086   0.732   0.073   6.647
 6522WAT  HW2  26087   0.591   0.129   6.646
 6522WAT  MW   26088   0.650   0.073   6.677
 6523WAT  OW   26089   0.684   5.943   5.343
 6523WAT  HW1  26090   0.592   5.933   5.368
 6523WAT  HW2  26091   0.732   5.934   5.426
 6523WAT  MW   26092   0.678   5.940   5.358
 6524WAT  OW   26093   3.853   0.704   5.172
 6524WAT  HW1  26094   3.769   0.690   5.130
 6524WAT  HW2  26095   3.832   0.721   5.264
 6524WAT  MW   26096   3.839   0.705   5.178
 6525WAT  OW   26097   1.804   4.160   0.901
 6525WAT  HW1  26098   1.807   4.075   0.858
 6525WAT  HW2  26099   1.889   4.168   0.944
 6525WAT  MW   26100   1.816   4.150   0.901
 6526WAT  OW   26101   0.365   1.451   3.747
 6526WAT  HW1  26102   0.326   1.407   3.672
 6526WAT  HW2  26103   0.433   1.507   3.709
 6526WAT  MW   26104   0.369   1.453   3.732
 6527WAT  OW   26105   3.531   1.665   5.070
 6527WAT  HW1  26106   3.571   1.748   5.043
 6527WAT  HW2  26107   3.491   1.684   5.155
 6527WAT  MW   26108   3.531   1.679   5.078
 6528WAT  OW   26109   5.449   4.734   6.212
 6528WAT  HW1  26110   5.392   4.806   6.181
 6528WAT  HW2  26111   5.533   4.750   6.169
 6528WAT  MW   26112   5.452   4.746   6.202
 6529WAT  OW   26113   5.120   2.125   0.339
 6529WAT  HW1  26114   5.119   2.031   0.359
 6529WAT  HW2  26115   5.210   2.153   0.357
 6529WAT  MW   26116   5.132   2.116   0.344
 6530WAT  OW   26117   5.067   1.185   0.818
 6530WAT  HW1  26118   5.153   1.225   0.804
 6530WAT  HW2  26119   5.050   1.135   0.738
 6530WAT  MW   26120   5.076   1.184   0.806
 6531WAT  OW   26121   0.990   4.099   6.548
 6531WAT  HW1  26122   1.050   4.123   6.619
 6531WAT  HW2  26123   0.995   4.003   6.543
 6531WAT  MW   26124   0.999   4.089   6.556
 6532WAT  OW   26125   0.748   0.430   3.348
 6532WAT  HW1  26126   0.838   0.431   3.382
 6532WAT  HW2  26127   0.759   0.432   3.253
 6532WAT  MW   26128   0.761   0.430   3.340
 6533WAT  OW   26129   4.555   5.579   3.365
 6533WAT  HW1  26130   4.627   5.616   3.417
 6533WAT  HW2  26131   4.517   5.654   3.320
 6533WAT  MW   26132   4.560   5.594   3.366
 6534WAT  OW   26133   6.021   0.040   2.997
 6534WAT  HW1  26134   6.112   0.035   3.026
 6534WAT  HW2  26135   6.023   0.097   2.921
 6534WAT  MW   26136   6.033   0.047   2.991
 6535WAT  OW   26137   4.108   1.805   0.614
 6535WAT  HW1  26138   4.117   1.872   0.546
 6535WAT  HW2  26139   4.090   1.724   0.565
 6535WAT  MW   26140   4.106   1.803   0.598
 6536WAT  OW   26141   3.193   2.156   3.669
 6536WAT  HW1  26142   3.278   2.190   3.697
 6536WAT  HW2  26143   3.129   2.205   3.720
 6536WAT  MW   26144   3.196   2.167   3.679
 6537WAT  OW   26145   2.746   1.538   2.337
 6537WAT  HW1  26146   2.769   1.602   2.270
 6537WAT  HW2  26147   2.675   1.486   2.298
 6537WAT  MW   26148   2.740   1.539   2.323
 6538WAT  OW   26149   5.033   2.885   3.866
 6538WAT  HW1  26150   5.048   2.902   3.959
 6538WAT  HW2  26151   5.102   2.823   3.841
 6538WAT  MW   26152   5.044   2.879   3.875
 6539WAT  OW   26153   5.486   1.996   6.578
 6539WAT  HW1  26154   5.398   1.986   6.615
 6539WAT  HW2  26155   5.535   2.044   6.645
 6539WAT  MW   26156   5.481   2.001   6.592
 6540WAT  OW   26157   4.997   4.383   2.747
 6540WAT  HW1  26158   5.000   4.293   2.779
 6540WAT  HW2  26159   4.904   4.400   2.733
 6540WAT  MW   26160   4.985   4.374   2.749
 6541WAT  OW   26161   1.882   1.950   4.807
 6541WAT  HW1  26162   1.833   1.872   4.781
 6541WAT  HW2  26163   1.873   2.011   4.734
 6541WAT  MW   26164   1.875   1.948   4.794
 6542WAT  OW   26165   2.404   4.778   4.272
 6542WAT  HW1  26166   2.401   4.844   4.202
 6542WAT  HW2  26167   2.427   4.696   4.227
 6542WAT  MW   26168   2.407   4.776   4.257
 6543WAT  OW   26169   6.283   6.005   4.344
 6543WAT  HW1  26170   6.215   5.937   4.347
 6543WAT  HW2  26171   6.340   5.984   4.418
 6543WAT  MW   26172   6.282   5.993   4.354
 6544WAT  OW   26173   0.368   6.183   2.567
 6544WAT  HW1  26174   0.382   6.104   2.514
 6544WAT  HW2  26175   0.445   6.237   2.551
 6544WAT  MW   26176   0.380   6.180   2.558
 6545WAT  OW   26177   0.348   2.536   6.205
 6545WAT  HW1  26178   0.368   2.503   6.292
 6545WAT  HW2  26179   0.349   2.631   6.214
 6545WAT  MW   26180   0.351   2.544   6.217
 6546WAT  OW   26181   1.932   5.470   5.365
 6546WAT  HW1  26182   1.869   5.400   5.382
 6546WAT  HW2  26183   1.961   5.456   5.275
 6546WAT  MW   26184   1.928   5.459   5.356
 6547WAT  OW   26185   1.195   2.018   1.044
 6547WAT  HW1  26186   1.125   1.952   1.039
 6547WAT  HW2  26187   1.154   2.099   1.015
 6547WAT  MW   26188   1.180   2.020   1.039
 6548WAT  OW   26189   1.678   1.033   4.665
 6548WAT  HW1  26190   1.738   1.024   4.738
 6548WAT  HW2  26191   1.688   0.951   4.616
 6548WAT  MW   26192   1.687   1.021   4.668
 6549WAT  OW   26193   0.866   4.419   0.512
 6549WAT  HW1  26194   0.913   4.455   0.437
 6549WAT  HW2  26195   0.890   4.476   0.585
 6549WAT  MW   26196   0.875   4.432   0.512
 6550WAT  OW   26197   4.966   3.223   5.491
 6550WAT  HW1  26198   4.885   3.270   5.514
 6550WAT  HW2  26199   4.966   3.223   5.395
 6550WAT  MW   26200   4.955   3.229   5.481
 6551WAT  OW   26201   6.198   1.875   3.975
 6551WAT  HW1  26202   6.171   1.899   4.064
 6551WAT  HW2  26203   6.254   1.798   3.987
 6551WAT  MW   26204   6.202   1.868   3.988
 6552WAT  OW   26205   0.455   2.204   0.609
 6552WAT  HW1  26206   0.385   2.232   0.668
 6552WAT  HW2  26207   0.508   2.282   0.596
 6552WAT  MW   26208   0.453   2.218   0.615
 6553WAT  OW   26209   5.252   0.101   0.302
 6553WAT  HW1  26210   5.239   0.106   0.208
 6553WAT  HW2  26211   5.347   0.098   0.313
 6553WAT  MW   26212   5.263   0.101   0.291
 6554WAT  OW   26213   2.792   5.689   1.282
 6554WAT  HW1  26214   2.881   5.688   1.317
 6554WAT  HW2  26215   2.804   5.693   1.187
 6554WAT  MW   26216   2.805   5.689   1.274
 6555WAT  OW   26217   4.481   2.481   5.445
 6555WAT  HW1  26218   4.394   2.507   5.415
 6555WAT  HW2  26219   4.465   2.408   5.504
 6555WAT  MW   26220   4.467   2.475   5.448
 6556WAT  OW   26221   2.911   6.104   3.387
 6556WAT  HW1  26222   2.820   6.103   3.356
 6556WAT  HW2  26223   2.935   6.196   3.388
 6556WAT  MW   26224   2.902   6.116   3.383
 6557WAT  OW   26225   5.407   3.186   4.272
 6557WAT  HW1  26226   5.379   3.263   4.322
 6557WAT  HW2  26227   5.370   3.200   4.185
 6557WAT  MW   26228   5.398   3.198   4.267
 6558WAT  OW   26229   6.626   2.877   3.373
 6558WAT  HW1  26230   6.569   2.867   3.449
 6558WAT  HW2  26231   6.597   2.808   3.313
 6558WAT  MW   26232   6.615   2.866   3.375
 6559WAT  OW   26233   0.257   5.021   4.236
 6559WAT  HW1  26234   0.328   5.085   4.242
 6559WAT  HW2  26235   0.194   5.060   4.176
 6559WAT  MW   26236   0.258   5.035   4.229
 6560WAT  OW   26237   4.119   3.200   6.158
 6560WAT  HW1  26238   4.100   3.282   6.112
 6560WAT  HW2  26239   4.147   3.140   6.089
 6560WAT  MW   26240   4.120   3.202   6.143
 6561WAT  OW   26241   1.111   3.601   3.633
 6561WAT  HW1  26242   1.060   3.663   3.582
 6561WAT  HW2  26243   1.108   3.520   3.582
 6561WAT  MW   26244   1.104   3.598   3.620
 6562WAT  OW   26245   4.408   4.631   3.910
 6562WAT  HW1  26246   4.434   4.638   3.818
 6562WAT  HW2  26247   4.328   4.578   3.908
 6562WAT  MW   26248   4.401   4.625   3.898
 6563WAT  OW   26249   2.112   0.032   0.487
 6563WAT  HW1  26250   2.146  -0.055   0.507
 6563WAT  HW2  26251   2.043   0.047   0.551
 6563WAT  MW   26252   2.108   0.023   0.498
 6564WAT  OW   26253   1.981   3.677   6.162
 6564WAT  HW1  26254   1.933   3.714   6.236
 6564WAT  HW2  26255   2.043   3.615   6.201
 6564WAT  MW   26256   1.983   3.674   6.177
 6565WAT  OW   26257   3.646   1.613   3.159
 6565WAT  HW1  26258   3.627   1.697   3.200
 6565WAT  HW2  26259   3.583   1.607   3.087
 6565WAT  MW   26260   3.635   1.623   3.155
 6566WAT  OW   26261   0.196   0.800   5.514
 6566WAT  HW1  26262   0.178   0.775   5.424
 6566WAT  HW2  26263   0.215   0.718   5.559
 6566WAT  MW   26264   0.196   0.786   5.508
 6567WAT  OW   26265   3.446   1.251   4.759
 6567WAT  HW1  26266   3.485   1.313   4.821
 6567WAT  HW2  26267   3.360   1.289   4.739
 6567WAT  MW   26268   3.440   1.264   4.765
 6568WAT  OW   26269   2.097   2.550   0.416
 6568WAT  HW1  26270   2.015   2.516   0.380
 6568WAT  HW2  26271   2.091   2.532   0.510
 6568WAT  MW   26272   2.086   2.543   0.424
 6569WAT  OW   26273   4.439   0.518   3.111
 6569WAT  HW1  26274   4.403   0.571   3.041
 6569WAT  HW2  26275   4.367   0.458   3.135
 6569WAT  MW   26276   4.424   0.517   3.105
 6570WAT  OW   26277   4.868   4.598   5.322
 6570WAT  HW1  26278   4.894   4.593   5.230
 6570WAT  HW2  26279   4.875   4.691   5.345
 6570WAT  MW   26280   4.873   4.609   5.313
 6571WAT  OW   26281   4.821   1.406   1.409
 6571WAT  HW1  26282   4.890   1.350   1.373
 6571WAT  HW2  26283   4.810   1.476   1.345
 6571WAT  MW   26284   4.829   1.408   1.396
 6572WAT  OW   26285   0.517   1.852   0.924
 6572WAT  HW1  26286   0.570   1.923   0.885
 6572WAT  HW2  26287   0.437   1.896   0.953
 6572WAT  MW   26288   0.514   1.867   0.923
 6573WAT  OW   26289   1.991   5.802   5.669
 6573WAT  HW1  26290   2.051   5.869   5.702
 6573WAT  HW2  26291   2.015   5.723   5.717
 6573WAT  MW   26292   2.002   5.800   5.680
 6574WAT  OW   26293   2.916   6.472   0.698
 6574WAT  HW1  26294   2.897   6.499   0.608
 6574WAT  HW2  26295   2.863   6.393   0.711
 6574WAT  MW   26296   2.906   6.465   0.688
 6575WAT  OW   26297   6.621   5.876   2.185
 6575WAT  HW1  26298   6.557   5.805   2.180
 6575WAT  HW2  26299   6.698   5.837   2.226
 6575WAT  MW   26300   6.623   5.862   2.189
 6576WAT  OW   26301   4.533   1.015   0.626
 6576WAT  HW1  26302   4.550   0.966   0.707
 6576WAT  HW2  26303   4.603   1.080   0.622
 6576WAT  MW   26304   4.545   1.017   0.637
 6577WAT  OW   26305   5.642   4.950   3.719
 6577WAT  HW1  26306   5.558   4.925   3.681
 6577WAT  HW2  26307   5.699   4.875   3.702
 6577WAT  MW   26308   5.638   4.936   3.712
 6578WAT  OW   26309   1.949   6.284   1.858
 6578WAT  HW1  26310   1.917   6.194   1.855
 6578WAT  HW2  26311   2.044   6.276   1.842
 6578WAT  MW   26312   1.958   6.271   1.855
 6579WAT  OW   26313   0.778   3.407   3.471
 6579WAT  HW1  26314   0.857   3.360   3.495
 6579WAT  HW2  26315   0.776   3.483   3.530
 6579WAT  MW   26316   0.788   3.411   3.482
 6580WAT  OW   26317   0.091   4.117   2.797
 6580WAT  HW1  26318   0.129   4.151   2.878
 6580WAT  HW2  26319  -0.003   4.124   2.811
 6580WAT  MW   26320   0.084   4.123   2.809
 6581WAT  OW   26321   0.956   6.688   1.335
 6581WAT  HW1  26322   0.989   6.666   1.247
 6581WAT  HW2  26323   0.894   6.760   1.320
 6581WAT  MW   26324   0.952   6.694   1.321
 6582WAT  OW   26325   4.736   4.151   6.139
 6582WAT  HW1  26326   4.649   4.143   6.178
 6582WAT  HW2  26327   4.750   4.067   6.094
 6582WAT  MW   26328   4.727   4.139   6.138
 6583WAT  OW   26329   4.992   0.357   0.813
 6583WAT  HW1  26330   4.997   0.288   0.878
 6583WAT  HW2  26331   4.898   0.366   0.795
 6583WAT  MW   26332   4.980   0.349   0.819
 6584WAT  OW   26333   3.877   0.443   2.287
 6584WAT  HW1  26334   3.961   0.409   2.256
 6584WAT  HW2  26335   3.830   0.467   2.208
 6584WAT  MW   26336   3.882   0.441   2.273
 6585WAT  OW   26337   6.673   3.065   0.353
 6585WAT  HW1  26338   6.680   3.128   0.281
 6585WAT  HW2  26339   6.598   3.011   0.329
 6585WAT  MW   26340   6.664   3.067   0.341
 6586WAT  OW   26341   2.462   0.248   5.936
 6586WAT  HW1  26342   2.542   0.240   5.987
 6586WAT  HW2  26343   2.448   0.160   5.900
 6586WAT  MW   26344   2.471   0.235   5.938
 6587WAT  OW   26345   2.391   4.686   1.185
 6587WAT  HW1  26346   2.460   4.675   1.119
 6587WAT  HW2  26347   2.431   4.741   1.252
 6587WAT  MW   26348   2.405   4.692   1.185
 6588WAT  OW   26349   1.513   2.864   4.245
 6588WAT  HW1  26350   1.550   2.869   4.334
 6588WAT  HW2  26351   1.581   2.822   4.193
 6588WAT  MW   26352   1.527   2.859   4.250
 6589WAT  OW   26353   4.092   0.770   3.432
 6589WAT  HW1  26354   4.030   0.803   3.497
 6589WAT  HW2  26355   4.142   0.847   3.405
 6589WAT  MW   26356   4.091   0.785   3.437
 6590WAT  OW   26357   2.267   4.084   1.550
 6590WAT  HW1  26358   2.331   4.134   1.498
 6590WAT  HW2  26359   2.278   3.994   1.520
 6590WAT  MW   26360   2.277   4.079   1.539
 6591WAT  OW   26361   2.905   3.491   6.437
 6591WAT  HW1  26362   2.865   3.459   6.357
 6591WAT  HW2  26363   2.834   3.493   6.501
 6591WAT  MW   26364   2.890   3.487   6.435
 6592WAT  OW   26365   4.270   4.015   6.120
 6592WAT  HW1  26366   4.212   4.021   6.196
 6592WAT  HW2  26367   4.255   4.096   6.072
 6592WAT  MW   26368   4.260   4.026   6.124
 6593WAT  OW   26369   0.718   0.154   3.160
 6593WAT  HW1  26370   0.638   0.204   3.144
 6593WAT  HW2  26371   0.688   0.069   3.191
 6593WAT  MW   26372   0.704   0.149   3.162
 6594WAT  OW   26373   4.847   2.033   0.945
 6594WAT  HW1  26374   4.882   2.104   0.998
 6594WAT  HW2  26375   4.918   1.969   0.939
 6594WAT  MW   26376   4.861   2.034   0.951
 6595WAT  OW   26377   2.119   0.071   4.783
 6595WAT  HW1  26378   2.193   0.070   4.721
 6595WAT  HW2  26379   2.045   0.040   4.732
 6595WAT  MW   26380   2.119   0.067   4.768
 6596WAT  OW   26381   3.287   5.428   3.969
 6596WAT  HW1  26382   3.329   5.504   3.929
 6596WAT  HW2  26383   3.193   5.447   3.965
 6596WAT  MW   26384   3.280   5.440   3.963
 6597WAT  OW   26385   1.178   5.099   3.376
 6597WAT  HW1  26386   1.194   5.186   3.413
 6597WAT  HW2  26387   1.093   5.073   3.412
 6597WAT  MW   26388   1.169   5.107   3.386
 6598WAT  OW   26389   3.930   0.105   3.259
 6598WAT  HW1  26390   3.891   0.181   3.302
 6598WAT  HW2  26391   3.874   0.089   3.183
 6598WAT  MW   26392   3.918   0.113   3.254
 6599WAT  OW   26393   0.127   4.582   5.935
 6599WAT  HW1  26394   0.137   4.489   5.952
 6599WAT  HW2  26395   0.139   4.590   5.840
 6599WAT  MW   26396   0.130   4.571   5.924
 6600WAT  OW   26397   5.435   0.663   0.354
 6600WAT  HW1  26398   5.506   0.602   0.373
 6600WAT  HW2  26399   5.371   0.612   0.305
 6600WAT  MW   26400   5.436   0.649   0.350
 6601WAT  OW   26401   0.397   3.332   3.069
 6601WAT  HW1  26402   0.473   3.331   3.011
 6601WAT  HW2  26403   0.431   3.363   3.152
 6601WAT  MW   26404   0.411   3.336   3.072
 6602WAT  OW   26405   5.567   1.973   3.429
 6602WAT  HW1  26406   5.493   1.936   3.381
 6602WAT  HW2  26407   5.595   1.902   3.487
 6602WAT  MW   26408   5.561   1.958   3.430
 6603WAT  OW   26409   4.352   3.691   3.345
 6603WAT  HW1  26410   4.342   3.596   3.341
 6603WAT  HW2  26411   4.307   3.723   3.267
 6603WAT  MW   26412   4.345   3.682   3.334
 6604WAT  OW   26413   4.224   1.821   1.221
 6604WAT  HW1  26414   4.202   1.737   1.180
 6604WAT  HW2  26415   4.316   1.813   1.244
 6604WAT  MW   26416   4.233   1.809   1.218
 6605WAT  OW   26417   5.313   5.527   3.792
 6605WAT  HW1  26418   5.321   5.438   3.828
 6605WAT  HW2  26419   5.322   5.515   3.697
 6605WAT  MW   26420   5.315   5.513   3.784
 6606WAT  OW   26421   0.301   4.752   1.877
 6606WAT  HW1  26422   0.232   4.806   1.918
 6606WAT  HW2  26423   0.382   4.785   1.914
 6606WAT  MW   26424   0.302   4.763   1.887
 6607WAT  OW   26425   3.453   4.331   5.472
 6607WAT  HW1  26426   3.536   4.348   5.514
 6607WAT  HW2  26427   3.471   4.258   5.412
 6607WAT  MW   26428   3.466   4.323   5.469
 6608WAT  OW   26429   5.149   3.273   0.956
 6608WAT  HW1  26430   5.231   3.287   0.908
 6608WAT  HW2  26431   5.177   3.257   1.046
 6608WAT  MW   26432   5.164   3.273   0.962
 6609WAT  OW   26433   0.146   5.756   2.305
 6609WAT  HW1  26434   0.094   5.679   2.330
 6609WAT  HW2  26435   0.169   5.798   2.389
 6609WAT  MW   26436   0.142   5.751   2.320
 6610WAT  OW   26437   2.668   0.817   5.109
 6610WAT  HW1  26438   2.755   0.811   5.070
 6610WAT  HW2  26439   2.633   0.729   5.104
 6610WAT  MW   26440   2.675   0.805   5.103
 6611WAT  OW   26441   3.203   1.483   1.001
 6611WAT  HW1  26442   3.290   1.520   1.013
 6611WAT  HW2  26443   3.151   1.521   1.072
 6611WAT  MW   26444   3.208   1.493   1.012
 6612WAT  OW   26445   5.686   1.116   6.232
 6612WAT  HW1  26446   5.595   1.139   6.215
 6612WAT  HW2  26447   5.682   1.024   6.260
 6612WAT  MW   26448   5.673   1.107   6.233
 6613WAT  OW   26449   3.491   3.175   6.412
 6613WAT  HW1  26450   3.398   3.196   6.415
 6613WAT  HW2  26451   3.528   3.238   6.351
 6613WAT  MW   26452   3.484   3.186   6.404
 6614WAT  OW   26453   4.011   5.404   3.573
 6614WAT  HW1  26454   3.947   5.393   3.503
 6614WAT  HW2  26455   4.059   5.321   3.576
 6614WAT  MW   26456   4.009   5.392   3.564
 6615WAT  OW   26457   4.245   5.903   0.527
 6615WAT  HW1  26458   4.308   5.910   0.455
 6615WAT  HW2  26459   4.201   5.988   0.530
 6615WAT  MW   26460   4.248   5.915   0.518
 6616WAT  OW   26461   0.040   5.231   5.235
 6616WAT  HW1  26462   0.010   5.301   5.177
 6616WAT  HW2  26463  -0.011   5.242   5.315
 6616WAT  MW   26464   0.029   5.241   5.238
 6617WAT  OW   26465   5.639   1.775   3.055
 6617WAT  HW1  26466   5.679   1.767   3.142
 6617WAT  HW2  26467   5.712   1.760   2.994
 6617WAT  MW   26468   5.654   1.772   3.058
 6618WAT  OW   26469   0.682   2.302   1.131
 6618WAT  HW1  26470   0.611   2.239   1.146
 6618WAT  HW2  26471   0.675   2.364   1.204
 6618WAT  MW   26472   0.671   2.302   1.142
 6619WAT  OW   26473   1.131   1.598   1.478
 6619WAT  HW1  26474   1.049   1.567   1.515
 6619WAT  HW2  26475   1.193   1.528   1.495
 6619WAT  MW   26476   1.128   1.585   1.485
 6620WAT  OW   26477   4.121   5.632   3.435
 6620WAT  HW1  26478   4.122   5.590   3.348
 6620WAT  HW2  26479   4.080   5.568   3.492
 6620WAT  MW   26480   4.116   5.618   3.431
 6621WAT  OW   26481   5.736   0.207   6.420
 6621WAT  HW1  26482   5.795   0.242   6.487
 6621WAT  HW2  26483   5.719   0.282   6.362
 6621WAT  MW   26484   5.741   0.222   6.421
 6622WAT  OW   26485   0.415   3.773   3.716
 6622WAT  HW1  26486   0.332   3.805   3.680
 6622WAT  HW2  26487   0.400   3.770   3.811
 6622WAT  MW   26488   0.402   3.777   3.724
 6623WAT  OW   26489   4.607   5.140   0.947
 6623WAT  HW1  26490   4.568   5.054   0.966
 6623WAT  HW2  26491   4.672   5.153   1.015
 6623WAT  MW   26492   4.610   5.130   0.958
 6624WAT  OW   26493   5.304   5.595   1.029
 6624WAT  HW1  26494   5.260   5.579   1.113
 6624WAT  HW2  26495   5.317   5.507   0.993
 6624WAT  MW   26496   5.300   5.581   1.035
 6625WAT  OW   26497   2.987   2.217   1.775
 6625WAT  HW1  26498   3.025   2.154   1.714
 6625WAT  HW2  26499   3.031   2.200   1.858
 6625WAT  MW   26500   2.997   2.207   1.778
 6626WAT  OW   26501   6.275   6.342   5.916
 6626WAT  HW1  26502   6.362   6.320   5.948
 6626WAT  HW2  26503   6.291   6.401   5.842
 6626WAT  MW   26504   6.288   6.347   5.911
 6627WAT  OW   26505   3.710   5.391   5.126
 6627WAT  HW1  26506   3.725   5.300   5.150
 6627WAT  HW2  26507   3.759   5.442   5.191
 6627WAT  MW   26508   3.719   5.386   5.138
 6628WAT  OW   26509   0.135   1.431   2.619
 6628WAT  HW1  26510   0.220   1.387   2.617
 6628WAT  HW2  26511   0.155   1.523   2.633
 6628WAT  MW   26512   0.149   1.437   2.621
 6629WAT  OW   26513   2.735   2.220   1.458
 6629WAT  HW1  26514   2.663   2.273   1.493
 6629WAT  HW2  26515   2.746   2.250   1.368
 6629WAT  MW   26516   2.727   2.231   1.451
 6630WAT  OW   26517   6.045   3.599   2.598
 6630WAT  HW1  26518   6.096   3.561   2.670
 6630WAT  HW2  26519   6.108   3.611   2.527
 6630WAT  MW   26520   6.060   3.595   2.598
 6631WAT  OW   26521   0.207   2.279   0.464
 6631WAT  HW1  26522   0.177   2.324   0.543
 6631WAT  HW2  26523   0.159   2.197   0.463
 6631WAT  MW   26524   0.197   2.274   0.474
 6632WAT  OW   26525   4.287   1.257   0.828
 6632WAT  HW1  26526   4.350   1.325   0.854
 6632WAT  HW2  26527   4.215   1.306   0.789
 6632WAT  MW   26528   4.286   1.273   0.826
 6633WAT  OW   26529   0.725   6.085   2.299
 6633WAT  HW1  26530   0.688   6.142   2.366
 6633WAT  HW2  26531   0.784   6.027   2.347
 6633WAT  MW   26532   0.728   6.085   2.314
 6634WAT  OW   26533   1.417   2.873   2.324
 6634WAT  HW1  26534   1.482   2.940   2.346
 6634WAT  HW2  26535   1.390   2.894   2.234
 6634WAT  MW   26536   1.422   2.885   2.315
 6635WAT  OW   26537   1.287   4.748   5.250
 6635WAT  HW1  26538   1.329   4.666   5.224
 6635WAT  HW2  26539   1.217   4.721   5.309
 6635WAT  MW   26540   1.284   4.734   5.254
 6636WAT  OW   26541   6.544   1.802   2.422
 6636WAT  HW1  26542   6.529   1.734   2.488
 6636WAT  HW2  26543   6.547   1.754   2.339
 6636WAT  MW   26544   6.542   1.786   2.420
 6637WAT  OW   26545   5.126   1.489   0.640
 6637WAT  HW1  26546   5.197   1.460   0.697
 6637WAT  HW2  26547   5.047   1.449   0.676
 6637WAT  MW   26548   5.125   1.480   0.652
 6638WAT  OW   26549   6.601   4.883   3.346
 6638WAT  HW1  26550   6.615   4.965   3.298
 6638WAT  HW2  26551   6.518   4.849   3.312
 6638WAT  MW   26552   6.592   4.889   3.335
 6639WAT  OW   26553   0.666   4.589   3.840
 6639WAT  HW1  26554   0.680   4.650   3.912
 6639WAT  HW2  26555   0.744   4.599   3.785
 6639WAT  MW   26556   0.678   4.598   3.842
 6640WAT  OW   26557   4.819   2.904   2.881
 6640WAT  HW1  26558   4.775   2.960   2.817
 6640WAT  HW2  26559   4.754   2.838   2.904
 6640WAT  MW   26560   4.805   2.902   2.876
 6641WAT  OW   26561   5.426   0.885   5.992
 6641WAT  HW1  26562   5.450   0.834   6.069
 6641WAT  HW2  26563   5.503   0.939   5.974
 6641WAT  MW   26564   5.439   0.886   6.000
 6642WAT  OW   26565   5.506   6.117   0.360
 6642WAT  HW1  26566   5.576   6.182   0.367
 6642WAT  HW2  26567   5.485   6.095   0.450
 6642WAT  MW   26568   5.513   6.123   0.373
 6643WAT  OW   26569   2.193   5.086   2.246
 6643WAT  HW1  26570   2.111   5.051   2.280
 6643WAT  HW2  26571   2.260   5.052   2.305
 6643WAT  MW   26572   2.191   5.077   2.258
 6644WAT  OW   26573   6.422   4.844   2.194
 6644WAT  HW1  26574   6.509   4.839   2.235
 6644WAT  HW2  26575   6.422   4.927   2.147
 6644WAT  MW   26576   6.433   4.854   2.193
 6645WAT  OW   26577   2.320   2.861   0.726
 6645WAT  HW1  26578   2.333   2.885   0.818
 6645WAT  HW2  26579   2.225   2.869   0.713
 6645WAT  MW   26580   2.309   2.865   0.737
 6646WAT  OW   26581   5.775   4.524   5.304
 6646WAT  HW1  26582   5.801   4.445   5.257
 6646WAT  HW2  26583   5.816   4.515   5.390
 6646WAT  MW   26584   5.784   4.513   5.309
 6647WAT  OW   26585   4.902   5.450   3.767
 6647WAT  HW1  26586   4.957   5.441   3.689
 6647WAT  HW2  26587   4.961   5.432   3.841
 6647WAT  MW   26588   4.917   5.446   3.767
 6648WAT  OW   26589   2.356   1.647   5.577
 6648WAT  HW1  26590   2.325   1.601   5.499
 6648WAT  HW2  26591   2.400   1.579   5.629
 6648WAT  MW   26592   2.358   1.632   5.574
 6649WAT  OW   26593   0.086   5.181   2.923
 6649WAT  HW1  26594   0.154   5.116   2.938
 6649WAT  HW2  26595   0.063   5.171   2.830
 6649WAT  MW   26596   0.092   5.171   2.912
 6650WAT  OW   26597   5.566   0.203   1.483
 6650WAT  HW1  26598   5.492   0.223   1.426
 6650WAT  HW2  26599   5.527   0.179   1.567
 6650WAT  MW   26600   5.551   0.203   1.487
 6651WAT  OW   26601   4.913   6.035   5.582
 6651WAT  HW1  26602   4.973   6.079   5.521
 6651WAT  HW2  26603   4.961   5.957   5.610
 6651WAT  MW   26604   4.927   6.031   5.578
 6652WAT  OW   26605   2.000   0.375   0.058
 6652WAT  HW1  26606   1.944   0.451   0.069
 6652WAT  HW2  26607   2.063   0.381   0.130
 6652WAT  MW   26608   2.001   0.386   0.069
 6653WAT  OW   26609   0.444   5.257   3.045
 6653WAT  HW1  26610   0.398   5.175   3.032
 6653WAT  HW2  26611   0.380   5.315   3.087
 6653WAT  MW   26612   0.430   5.254   3.049
 6654WAT  OW   26613   3.978   1.490   1.879
 6654WAT  HW1  26614   3.966   1.536   1.962
 6654WAT  HW2  26615   3.910   1.423   1.878
 6654WAT  MW   26616   3.967   1.487   1.890
 6655WAT  OW   26617   2.087   1.295   4.272
 6655WAT  HW1  26618   2.158   1.248   4.317
 6655WAT  HW2  26619   2.124   1.315   4.185
 6655WAT  MW   26620   2.101   1.291   4.266
 6656WAT  OW   26621   5.481   1.911   5.243
 6656WAT  HW1  26622   5.424   1.851   5.290
 6656WAT  HW2  26623   5.543   1.855   5.196
 6656WAT  MW   26624   5.482   1.896   5.243
 6657WAT  OW   26625   2.813   4.624   6.195
 6657WAT  HW1  26626   2.808   4.647   6.287
 6657WAT  HW2  26627   2.877   4.684   6.158
 6657WAT  MW   26628   2.821   4.635   6.202
 6658WAT  OW   26629   0.505   1.909   4.551
 6658WAT  HW1  26630   0.413   1.935   4.554
 6658WAT  HW2  26631   0.521   1.891   4.459
 6658WAT  MW   26632   0.495   1.910   4.539
 6659WAT  OW   26633   6.362   3.676   3.017
 6659WAT  HW1  26634   6.302   3.637   2.953
 6659WAT  HW2  26635   6.444   3.628   3.005
 6659WAT  MW   26636   6.365   3.664   3.007
 6660WAT  OW   26637   5.676   0.057   1.084
 6660WAT  HW1  26638   5.680  -0.036   1.103
 6660WAT  HW2  26639   5.723   0.099   1.156
 6660WAT  MW   26640   5.682   0.051   1.096
 6661WAT  OW   26641   2.664   1.378   3.186
 6661WAT  HW1  26642   2.597   1.309   3.192
 6661WAT  HW2  26643   2.614   1.458   3.170
 6661WAT  MW   26644   2.649   1.380   3.185
 6662WAT  OW   26645   4.554   5.863   3.914
 6662WAT  HW1  26646   4.551   5.859   3.819
 6662WAT  HW2  26647   4.573   5.773   3.941
 6662WAT  MW   26648   4.556   5.850   3.905
 6663WAT  OW   26649   5.300   5.885   3.579
 6663WAT  HW1  26650   5.304   5.888   3.675
 6663WAT  HW2  26651   5.258   5.968   3.554
 6663WAT  MW   26652   5.295   5.896   3.588
 6664WAT  OW   26653   0.272   0.601   4.906
 6664WAT  HW1  26654   0.299   0.509   4.904
 6664WAT  HW2  26655   0.195   0.602   4.962
 6664WAT  MW   26656   0.266   0.589   4.913
 6665WAT  OW   26657   3.330   2.236   0.828
 6665WAT  HW1  26658   3.420   2.227   0.797
 6665WAT  HW2  26659   3.275   2.217   0.752
 6665WAT  MW   26660   3.334   2.233   0.814
 6666WAT  OW   26661   6.587   1.149   4.028
 6666WAT  HW1  26662   6.643   1.186   3.960
 6666WAT  HW2  26663   6.542   1.076   3.985
 6666WAT  MW   26664   6.588   1.145   4.013
 6667WAT  OW   26665   0.053   6.534   4.329
 6667WAT  HW1  26666   0.002   6.602   4.285
 6667WAT  HW2  26667  -0.007   6.497   4.393
 6667WAT  MW   26668   0.038   6.538   4.332
 6668WAT  OW   26669   6.171   5.449   6.337
 6668WAT  HW1  26670   6.183   5.438   6.243
 6668WAT  HW2  26671   6.167   5.359   6.371
 6668WAT  MW   26672   6.172   5.435   6.329
 6669WAT  OW   26673   4.384   1.951   2.612
 6669WAT  HW1  26674   4.403   1.998   2.693
 6669WAT  HW2  26675   4.348   1.867   2.640
 6669WAT  MW   26676   4.382   1.946   2.626
 6670WAT  OW   26677   6.649   4.210   5.738
 6670WAT  HW1  26678   6.563   4.246   5.758
 6670WAT  HW2  26679   6.631   4.128   5.692
 6670WAT  MW   26680   6.636   4.204   5.734
 6671WAT  OW   26681   3.557   5.812   2.590
 6671WAT  HW1  26682   3.607   5.802   2.509
 6671WAT  HW2  26683   3.466   5.797   2.564
 6671WAT  MW   26684   3.551   5.808   2.576
 6672WAT  OW   26685   1.048   1.804   3.083
 6672WAT  HW1  26686   0.999   1.886   3.078
 6672WAT  HW2  26687   1.060   1.790   3.177
 6672WAT  MW   26688   1.043   1.813   3.095
 6673WAT  OW   26689   0.944   0.688   4.876
 6673WAT  HW1  26690   0.942   0.627   4.802
 6673WAT  HW2  26691   1.000   0.760   4.847
 6673WAT  MW   26692   0.951   0.689   4.862
 6674WAT  OW   26693   3.428   4.197   4.793
 6674WAT  HW1  26694   3.401   4.150   4.872
 6674WAT  HW2  26695   3.516   4.166   4.774
 6674WAT  MW   26696   3.436   4.187   4.801
 6675WAT  OW   26697   0.239   5.426   1.648
 6675WAT  HW1  26698   0.181   5.476   1.591
 6675WAT  HW2  26699   0.181   5.390   1.715
 6675WAT  MW   26700   0.223   5.428   1.649
 6676WAT  OW   26701   3.820   3.182   2.243
 6676WAT  HW1  26702   3.841   3.273   2.264
 6676WAT  HW2  26703   3.793   3.184   2.151
 6676WAT  MW   26704   3.819   3.194   2.234
 6677WAT  OW   26705   0.290   5.062   0.162
 6677WAT  HW1  26706   0.292   5.096   0.072
 6677WAT  HW2  26707   0.225   4.992   0.160
 6677WAT  MW   26708   0.282   5.058   0.150
 6678WAT  OW   26709   4.874   1.016   5.066
 6678WAT  HW1  26710   4.848   1.020   4.974
 6678WAT  HW2  26711   4.962   0.980   5.064
 6678WAT  MW   26712   4.882   1.012   5.053
 6679WAT  OW   26713   1.218   3.494   5.552
 6679WAT  HW1  26714   1.242   3.419   5.497
 6679WAT  HW2  26715   1.279   3.490   5.626
 6679WAT  MW   26716   1.229   3.483   5.555
 6680WAT  OW   26717   5.788   2.429   6.199
 6680WAT  HW1  26718   5.740   2.347   6.194
 6680WAT  HW2  26719   5.800   2.455   6.107
 6680WAT  MW   26720   5.783   2.422   6.186
 6681WAT  OW   26721   5.239   4.483   2.683
 6681WAT  HW1  26722   5.284   4.513   2.761
 6681WAT  HW2  26723   5.158   4.443   2.716
 6681WAT  MW   26724   5.234   4.482   2.697
 6682WAT  OW   26725   6.219   0.809   2.236
 6682WAT  HW1  26726   6.202   0.719   2.266
 6682WAT  HW2  26727   6.165   0.864   2.293
 6682WAT  MW   26728   6.210   0.804   2.248
 6683WAT  OW   26729   1.540   5.260   2.859
 6683WAT  HW1  26730   1.509   5.296   2.776
 6683WAT  HW2  26731   1.591   5.183   2.834
 6683WAT  MW   26732   1.542   5.254   2.845
 6684WAT  OW   26733   3.719   2.414   0.597
 6684WAT  HW1  26734   3.678   2.496   0.625
 6684WAT  HW2  26735   3.671   2.346   0.644
 6684WAT  MW   26736   3.707   2.416   0.607
 6685WAT  OW   26737   0.284   4.837   4.606
 6685WAT  HW1  26738   0.361   4.802   4.561
 6685WAT  HW2  26739   0.227   4.866   4.535
 6685WAT  MW   26740   0.287   4.837   4.590
 6686WAT  OW   26741   4.956   0.553   5.382
 6686WAT  HW1  26742   5.046   0.549   5.413
 6686WAT  HW2  26743   4.903   0.564   5.462
 6686WAT  MW   26744   4.961   0.554   5.397
 6687WAT  OW   26745   4.082   6.165   5.221
 6687WAT  HW1  26746   4.094   6.131   5.310
 6687WAT  HW2  26747   4.146   6.235   5.213
 6687WAT  MW   26748   4.092   6.170   5.232
 6688WAT  OW   26749   0.953   3.907   4.019
 6688WAT  HW1  26750   0.935   3.823   3.977
 6688WAT  HW2  26751   0.886   3.966   3.985
 6688WAT  MW   26752   0.942   3.903   4.009
 6689WAT  OW   26753   1.749   2.366   0.434
 6689WAT  HW1  26754   1.803   2.379   0.512
 6689WAT  HW2  26755   1.812   2.364   0.362
 6689WAT  MW   26756   1.765   2.368   0.435
 6690WAT  OW   26757   6.693   0.852   2.686
 6690WAT  HW1  26758   6.638   0.835   2.609
 6690WAT  HW2  26759   6.763   0.908   2.653
 6690WAT  MW   26760   6.695   0.857   2.671
 6691WAT  OW   26761   4.830   2.005   2.123
 6691WAT  HW1  26762   4.754   1.954   2.152
 6691WAT  HW2  26763   4.809   2.031   2.034
 6691WAT  MW   26764   4.817   2.001   2.115
 6692WAT  OW   26765   2.925   1.007   5.637
 6692WAT  HW1  26766   2.963   1.012   5.550
 6692WAT  HW2  26767   2.859   1.076   5.638
 6692WAT  MW   26768   2.921   1.017   5.626
 6693WAT  OW   26769   1.408   5.935   6.195
 6693WAT  HW1  26770   1.452   6.019   6.191
 6693WAT  HW2  26771   1.433   5.898   6.280
 6693WAT  MW   26772   1.417   5.941   6.206
 6694WAT  OW   26773   2.616   1.249   4.588
 6694WAT  HW1  26774   2.613   1.296   4.505
 6694WAT  HW2  26775   2.677   1.299   4.642
 6694WAT  MW   26776   2.623   1.262   4.584
 6695WAT  OW   26777   1.767   5.799   2.527
 6695WAT  HW1  26778   1.827   5.725   2.542
 6695WAT  HW2  26779   1.760   5.805   2.432
 6695WAT  MW   26780   1.774   5.790   2.517
 6696WAT  OW   26781   4.886   6.311   2.108
 6696WAT  HW1  26782   4.935   6.344   2.184
 6696WAT  HW2  26783   4.866   6.390   2.057
 6696WAT  MW   26784   4.890   6.326   2.111
 6697WAT  OW   26785   4.980   1.316   6.404
 6697WAT  HW1  26786   4.979   1.273   6.319
 6697WAT  HW2  26787   5.048   1.383   6.397
 6697WAT  MW   26788   4.989   1.319   6.392
 6698WAT  OW   26789   6.289   3.004   1.619
 6698WAT  HW1  26790   6.355   3.038   1.559
 6698WAT  HW2  26791   6.206   3.029   1.579
 6698WAT  MW   26792   6.287   3.011   1.606
 6699WAT  OW   26793   6.610   0.962   5.946
 6699WAT  HW1  26794   6.569   0.903   6.009
 6699WAT  HW2  26795   6.626   0.908   5.869
 6699WAT  MW   26796   6.607   0.947   5.944
 6700WAT  OW   26797   6.429   5.320   1.457
 6700WAT  HW1  26798   6.350   5.365   1.485
 6700WAT  HW2  26799   6.490   5.391   1.435
 6700WAT  MW   26800   6.427   5.335   1.458
 6701WAT  OW   26801   6.520   6.505   0.293
 6701WAT  HW1  26802   6.522   6.427   0.237
 6701WAT  HW2  26803   6.445   6.555   0.263
 6701WAT  MW   26804   6.511   6.501   0.282
 6702WAT  OW   26805   5.655   2.150   0.081
 6702WAT  HW1  26806   5.650   2.246   0.087
 6702WAT  HW2  26807   5.730   2.134   0.024
 6702WAT  MW   26808   5.664   2.161   0.075
 6703WAT  OW   26809   2.655   2.885   0.597
 6703WAT  HW1  26810   2.570   2.899   0.555
 6703WAT  HW2  26811   2.635   2.879   0.691
 6703WAT  MW   26812   2.641   2.886   0.604
 6704WAT  OW   26813   6.562   0.929   3.856
 6704WAT  HW1  26814   6.543   0.835   3.867
 6704WAT  HW2  26815   6.658   0.935   3.862
 6704WAT  MW   26816   6.572   0.917   3.858
 6705WAT  OW   26817   4.126   0.519   1.675
 6705WAT  HW1  26818   4.118   0.614   1.684
 6705WAT  HW2  26819   4.087   0.500   1.589
 6705WAT  MW   26820   4.120   0.529   1.665
 6706WAT  OW   26821   0.703   3.628   4.149
 6706WAT  HW1  26822   0.639   3.697   4.162
 6706WAT  HW2  26823   0.660   3.549   4.181
 6706WAT  MW   26824   0.689   3.626   4.155
 6707WAT  OW   26825   3.363   6.179   0.681
 6707WAT  HW1  26826   3.301   6.252   0.683
 6707WAT  HW2  26827   3.317   6.111   0.632
 6707WAT  MW   26828   3.349   6.180   0.675
 6708WAT  OW   26829   3.587   5.802   1.439
 6708WAT  HW1  26830   3.643   5.801   1.517
 6708WAT  HW2  26831   3.548   5.889   1.438
 6708WAT  MW   26832   3.589   5.813   1.449
 6709WAT  OW   26833   6.096   5.467   4.809
 6709WAT  HW1  26834   6.164   5.482   4.874
 6709WAT  HW2  26835   6.014   5.484   4.855
 6709WAT  MW   26836   6.094   5.471   4.823
 6710WAT  OW   26837   4.528   0.478   6.541
 6710WAT  HW1  26838   4.439   0.475   6.575
 6710WAT  HW2  26839   4.565   0.392   6.562
 6710WAT  MW   26840   4.521   0.466   6.548
 6711WAT  OW   26841   6.108   4.768   4.473
 6711WAT  HW1  26842   6.099   4.851   4.426
 6711WAT  HW2  26843   6.178   4.783   4.536
 6711WAT  MW   26844   6.116   4.781   4.475
 6712WAT  OW   26845   3.688   3.186   0.464
 6712WAT  HW1  26846   3.680   3.102   0.419
 6712WAT  HW2  26847   3.657   3.251   0.400
 6712WAT  MW   26848   3.683   3.184   0.450
 6713WAT  OW   26849   5.829   0.084   4.733
 6713WAT  HW1  26850   5.765   0.143   4.695
 6713WAT  HW2  26851   5.837   0.112   4.824
 6713WAT  MW   26852   5.822   0.095   4.740
 6714WAT  OW   26853   4.889   3.987   1.165
 6714WAT  HW1  26854   4.931   4.045   1.101
 6714WAT  HW2  26855   4.912   4.024   1.250
 6714WAT  MW   26856   4.898   3.999   1.168
 6715WAT  OW   26857   4.826   4.630   4.057
 6715WAT  HW1  26858   4.901   4.672   4.099
 6715WAT  HW2  26859   4.852   4.620   3.965
 6715WAT  MW   26860   4.839   4.634   4.050
 6716WAT  OW   26861   1.239   4.202   5.435
 6716WAT  HW1  26862   1.298   4.169   5.503
 6716WAT  HW2  26863   1.177   4.258   5.482
 6716WAT  MW   26864   1.238   4.205   5.450
 6717WAT  OW   26865   5.014   4.485   2.142
 6717WAT  HW1  26866   5.088   4.517   2.090
 6717WAT  HW2  26867   5.035   4.394   2.161
 6717WAT  MW   26868   5.027   4.477   2.138
 6718WAT  OW   26869   6.348   4.622   5.425
 6718WAT  HW1  26870   6.388   4.683   5.362
 6718WAT  HW2  26871   6.394   4.639   5.507
 6718WAT  MW   26872   6.359   4.633   5.427
 6719WAT  OW   26873   4.755   3.393   0.030
 6719WAT  HW1  26874   4.746   3.450   0.106
 6719WAT  HW2  26875   4.754   3.453  -0.045
 6719WAT  MW   26876   4.754   3.408   0.030
 6720WAT  OW   26877   2.584   1.109   1.578
 6720WAT  HW1  26878   2.491   1.088   1.578
 6720WAT  HW2  26879   2.588   1.201   1.606
 6720WAT  MW   26880   2.573   1.118   1.582
 6721WAT  OW   26881   1.031   4.562   6.685
 6721WAT  HW1  26882   1.070   4.475   6.695
 6721WAT  HW2  26883   1.105   4.622   6.684
 6721WAT  MW   26884   1.046   4.558   6.686
 6722WAT  OW   26885   6.463   6.400   6.397
 6722WAT  HW1  26886   6.429   6.357   6.476
 6722WAT  HW2  26887   6.478   6.328   6.336
 6722WAT  MW   26888   6.460   6.385   6.399
 6723WAT  OW   26889   2.619   6.015   1.085
 6723WAT  HW1  26890   2.552   6.070   1.125
 6723WAT  HW2  26891   2.631   5.942   1.147
 6723WAT  MW   26892   2.612   6.012   1.099
 6724WAT  OW   26893   1.914   4.751   0.419
 6724WAT  HW1  26894   1.950   4.776   0.505
 6724WAT  HW2  26895   1.825   4.787   0.419
 6724WAT  MW   26896   1.907   4.759   0.431
 6725WAT  OW   26897   5.507   3.048   5.522
 6725WAT  HW1  26898   5.415   3.070   5.509
 6725WAT  HW2  26899   5.506   2.955   5.546
 6725WAT  MW   26900   5.495   3.039   5.524
 6726WAT  OW   26901   5.052   0.991   4.043
 6726WAT  HW1  26902   5.051   0.993   3.948
 6726WAT  HW2  26903   4.966   0.956   4.067
 6726WAT  MW   26904   5.040   0.986   4.034
 6727WAT  OW   26905   3.735   2.649   4.399
 6727WAT  HW1  26906   3.797   2.692   4.341
 6727WAT  HW2  26907   3.779   2.568   4.426
 6727WAT  MW   26908   3.749   2.644   4.395
 6728WAT  OW   26909   4.696   2.370   2.035
 6728WAT  HW1  26910   4.750   2.313   1.981
 6728WAT  HW2  26911   4.713   2.458   2.003
 6728WAT  MW   26912   4.705   2.374   2.024
 6729WAT  OW   26913   4.193   5.548   4.430
 6729WAT  HW1  26914   4.129   5.509   4.371
 6729WAT  HW2  26915   4.212   5.634   4.393
 6729WAT  MW   26916   4.187   5.554   4.418
 6730WAT  OW   26917   0.587   5.450   0.085
 6730WAT  HW1  26918   0.510   5.452   0.028
 6730WAT  HW2  26919   0.552   5.458   0.173
 6730WAT  MW   26920   0.572   5.451   0.089
 6731WAT  OW   26921   1.589   2.796   1.154
 6731WAT  HW1  26922   1.671   2.756   1.184
 6731WAT  HW2  26923   1.523   2.762   1.215
 6731WAT  MW   26924   1.591   2.786   1.166
 6732WAT  OW   26925   6.028   0.416   3.574
 6732WAT  HW1  26926   6.089   0.343   3.567
 6732WAT  HW2  26927   5.942   0.378   3.559
 6732WAT  MW   26928   6.025   0.402   3.571
 6733WAT  OW   26929   1.184   6.272   2.725
 6733WAT  HW1  26930   1.277   6.266   2.747
 6733WAT  HW2  26931   1.140   6.282   2.809
 6733WAT  MW   26932   1.191   6.273   2.739
 6734WAT  OW   26933   1.647   2.403   4.254
 6734WAT  HW1  26934   1.742   2.391   4.246
 6734WAT  HW2  26935   1.616   2.418   4.165
 6734WAT  MW   26936   1.655   2.403   4.241
 6735WAT  OW   26937   4.139   2.067   2.598
 6735WAT  HW1  26938   4.224   2.029   2.619
 6735WAT  HW2  26939   4.133   2.062   2.503
 6735WAT  MW   26940   4.149   2.061   2.588
 6736WAT  OW   26941   1.830   6.329   1.616
 6736WAT  HW1  26942   1.853   6.302   1.705
 6736WAT  HW2  26943   1.835   6.425   1.617
 6736WAT  MW   26944   1.833   6.338   1.628
 6737WAT  OW   26945   1.403   5.592   2.769
 6737WAT  HW1  26946   1.473   5.533   2.740
 6737WAT  HW2  26947   1.431   5.678   2.741
 6737WAT  MW   26948   1.416   5.595   2.762
 6738WAT  OW   26949   0.709   4.357   3.524
 6738WAT  HW1  26950   0.781   4.402   3.481
 6738WAT  HW2  26951   0.670   4.303   3.456
 6738WAT  MW   26952   0.713   4.356   3.510
 6739WAT  OW   26953   6.051   4.973   3.235
 6739WAT  HW1  26954   6.014   4.928   3.159
 6739WAT  HW2  26955   6.041   4.910   3.306
 6739WAT  MW   26956   6.045   4.958   3.234
 6740WAT  OW   26957   3.165   6.035   3.713
 6740WAT  HW1  26958   3.183   6.125   3.686
 6740WAT  HW2  26959   3.229   5.982   3.665
 6740WAT  MW   26960   3.176   6.040   3.703
 6741WAT  OW   26961   1.765   4.251   0.418
 6741WAT  HW1  26962   1.780   4.259   0.323
 6741WAT  HW2  26963   1.845   4.210   0.451
 6741WAT  MW   26964   1.777   4.247   0.410
 6742WAT  OW   26965   5.518   2.838   2.904
 6742WAT  HW1  26966   5.430   2.864   2.930
 6742WAT  HW2  26967   5.550   2.910   2.851
 6742WAT  MW   26968   5.511   2.851   2.901
 6743WAT  OW   26969   5.102   0.440   3.408
 6743WAT  HW1  26970   5.151   0.422   3.489
 6743WAT  HW2  26971   5.022   0.388   3.417
 6743WAT  MW   26972   5.098   0.430   3.420
 6744WAT  OW   26973   5.917   5.801   2.183
 6744WAT  HW1  26974   5.935   5.735   2.116
 6744WAT  HW2  26975   5.827   5.783   2.211
 6744WAT  MW   26976   5.907   5.790   2.178
 6745WAT  OW   26977   2.697   5.086   3.760
 6745WAT  HW1  26978   2.615   5.132   3.744
 6745WAT  HW2  26979   2.740   5.136   3.829
 6745WAT  MW   26980   2.692   5.098   3.767
 6746WAT  OW   26981   6.284   0.299   2.825
 6746WAT  HW1  26982   6.337   0.263   2.754
 6746WAT  HW2  26983   6.247   0.379   2.788
 6746WAT  MW   26984   6.286   0.305   2.810
 6747WAT  OW   26985   0.093   3.427   6.204
 6747WAT  HW1  26986   0.183   3.410   6.177
 6747WAT  HW2  26987   0.080   3.373   6.282
 6747WAT  MW   26988   0.103   3.418   6.211
 6748WAT  OW   26989   2.155   1.312   3.994
 6748WAT  HW1  26990   2.093   1.383   3.977
 6748WAT  HW2  26991   2.239   1.344   3.960
 6748WAT  MW   26992   2.158   1.326   3.987
 6749WAT  OW   26993   1.116   5.817   1.845
 6749WAT  HW1  26994   1.108   5.723   1.828
 6749WAT  HW2  26995   1.032   5.854   1.817
 6749WAT  MW   26996   1.104   5.810   1.839
 6750WAT  OW   26997   3.251   2.322   2.793
 6750WAT  HW1  26998   3.186   2.393   2.793
 6750WAT  HW2  26999   3.303   2.336   2.714
 6750WAT  MW   27000   3.249   2.333   2.783
 6751WAT  OW   27001   2.781   4.281   1.307
 6751WAT  HW1  27002   2.832   4.337   1.248
 6751WAT  HW2  27003   2.816   4.300   1.394
 6751WAT  MW   27004   2.793   4.291   1.310
 6752WAT  OW   27005   2.004   2.229   2.276
 6752WAT  HW1  27006   2.062   2.300   2.300
 6752WAT  HW2  27007   1.918   2.255   2.309
 6752WAT  MW   27008   2.000   2.242   2.283
 6753WAT  OW   27009   3.497   3.114   3.215
 6753WAT  HW1  27010   3.448   3.152   3.142
 6753WAT  HW2  27011   3.580   3.086   3.176
 6753WAT  MW   27012   3.501   3.115   3.200
 6754WAT  OW   27013   1.785   5.924   5.867
 6754WAT  HW1  27014   1.694   5.896   5.877
 6754WAT  HW2  27015   1.826   5.853   5.819
 6754WAT  MW   27016   1.778   5.911   5.862
 6755WAT  OW   27017   0.895   0.123   4.877
 6755WAT  HW1  27018   0.980   0.105   4.838
 6755WAT  HW2  27019   0.914   0.177   4.954
 6755WAT  MW   27020   0.909   0.128   4.882
 6756WAT  OW   27021   5.718   1.535   1.230
 6756WAT  HW1  27022   5.700   1.567   1.318
 6756WAT  HW2  27023   5.690   1.444   1.231
 6756WAT  MW   27024   5.712   1.527   1.241
 6757WAT  OW   27025   1.492   6.563   1.693
 6757WAT  HW1  27026   1.569   6.568   1.749
 6757WAT  HW2  27027   1.503   6.635   1.631
 6757WAT  MW   27028   1.503   6.573   1.692
 6758WAT  OW   27029   3.265   1.155   1.670
 6758WAT  HW1  27030   3.210   1.088   1.711
 6758WAT  HW2  27031   3.354   1.125   1.684
 6758WAT  MW   27032   3.269   1.142   1.677
 6759WAT  OW   27033   3.339   1.516   2.042
 6759WAT  HW1  27034   3.289   1.558   1.973
 6759WAT  HW2  27035   3.292   1.537   2.123
 6759WAT  MW   27036   3.326   1.524   2.044
 6760WAT  OW   27037   6.352   0.725   3.545
 6760WAT  HW1  27038   6.339   0.666   3.619
 6760WAT  HW2  27039   6.447   0.740   3.543
 6760WAT  MW   27040   6.363   0.719   3.554
 6761WAT  OW   27041   2.183   6.207   4.776
 6761WAT  HW1  27042   2.100   6.252   4.765
 6761WAT  HW2  27043   2.213   6.233   4.863
 6761WAT  MW   27044   2.176   6.217   4.786
 6762WAT  OW   27045   3.683   0.798   1.931
 6762WAT  HW1  27046   3.666   0.856   2.007
 6762WAT  HW2  27047   3.769   0.825   1.899
 6762WAT  MW   27048   3.692   0.809   1.937
 6763WAT  OW   27049   3.063   2.876   2.959
 6763WAT  HW1  27050   3.056   2.911   3.048
 6763WAT  HW2  27051   3.157   2.869   2.944
 6763WAT  MW   27052   3.075   2.880   2.969
 6764WAT  OW   27053   6.468   0.854   2.160
 6764WAT  HW1  27054   6.475   0.926   2.097
 6764WAT  HW2  27055   6.374   0.839   2.168
 6764WAT  MW   27056   6.457   0.862   2.153
 6765WAT  OW   27057   0.465   3.145   3.862
 6765WAT  HW1  27058   0.420   3.060   3.859
 6765WAT  HW2  27059   0.456   3.180   3.774
 6765WAT  MW   27060   0.458   3.138   3.850
 6766WAT  OW   27061   0.455   2.887   3.985
 6766WAT  HW1  27062   0.428   2.802   3.949
 6766WAT  HW2  27063   0.461   2.872   4.080
 6766WAT  MW   27064   0.453   2.874   3.993
 6767WAT  OW   27065   0.112   2.025   1.939
 6767WAT  HW1  27066   0.107   2.120   1.954
 6767WAT  HW2  27067   0.046   1.988   1.997
 6767WAT  MW   27068   0.103   2.033   1.949
 6768WAT  OW   27069   2.843   4.755   2.847
 6768WAT  HW1  27070   2.814   4.802   2.925
 6768WAT  HW2  27071   2.765   4.708   2.817
 6768WAT  MW   27072   2.829   4.755   2.854
 6769WAT  OW   27073   5.825   3.328   2.663
 6769WAT  HW1  27074   5.907   3.293   2.626
 6769WAT  HW2  27075   5.803   3.401   2.606
 6769WAT  MW   27076   5.833   3.333   2.650
 6770WAT  OW   27077   5.425   6.168   3.292
 6770WAT  HW1  27078   5.383   6.225   3.228
 6770WAT  HW2  27079   5.421   6.081   3.253
 6770WAT  MW   27080   5.419   6.164   3.279
 6771WAT  OW   27081   2.302   4.588   3.335
 6771WAT  HW1  27082   2.319   4.507   3.287
 6771WAT  HW2  27083   2.389   4.620   3.359
 6771WAT  MW   27084   2.316   4.581   3.332
 6772WAT  OW   27085   6.448   2.099   4.698
 6772WAT  HW1  27086   6.396   2.157   4.642
 6772WAT  HW2  27087   6.384   2.050   4.749
 6772WAT  MW   27088   6.433   2.100   4.697
 6773WAT  OW   27089   6.570   5.867   5.224
 6773WAT  HW1  27090   6.617   5.826   5.297
 6773WAT  HW2  27091   6.495   5.910   5.266
 6773WAT  MW   27092   6.566   5.868   5.239
 6774WAT  OW   27093   2.417   5.451   2.540
 6774WAT  HW1  27094   2.381   5.412   2.460
 6774WAT  HW2  27095   2.340   5.484   2.587
 6774WAT  MW   27096   2.402   5.450   2.536
 6775WAT  OW   27097   4.483   3.516   2.838
 6775WAT  HW1  27098   4.493   3.425   2.865
 6775WAT  HW2  27099   4.545   3.526   2.766
 6775WAT  MW   27100   4.492   3.505   2.832
 6776WAT  OW   27101   3.405   6.371   2.615
 6776WAT  HW1  27102   3.492   6.341   2.643
 6776WAT  HW2  27103   3.346   6.341   2.684
 6776WAT  MW   27104   3.409   6.363   2.628
 6777WAT  OW   27105   5.396   3.642   6.545
 6777WAT  HW1  27106   5.449   3.654   6.466
 6777WAT  HW2  27107   5.369   3.550   6.542
 6777WAT  MW   27108   5.400   3.631   6.534
 6778WAT  OW   27109   3.041   6.606   5.071
 6778WAT  HW1  27110   3.105   6.674   5.048
 6778WAT  HW2  27111   3.085   6.524   5.051
 6778WAT  MW   27112   3.055   6.604   5.066
 6779WAT  OW   27113   2.595   3.600   5.571
 6779WAT  HW1  27114   2.568   3.590   5.662
 6779WAT  HW2  27115   2.624   3.691   5.564
 6779WAT  MW   27116   2.596   3.611   5.582
 6780WAT  OW   27117   3.028   3.534   1.920
 6780WAT  HW1  27118   2.956   3.477   1.894
 6780WAT  HW2  27119   2.988   3.620   1.931
 6780WAT  MW   27120   3.013   3.538   1.918
 6781WAT  OW   27121   0.425   5.802   6.615
 6781WAT  HW1  27122   0.471   5.806   6.699
 6781WAT  HW2  27123   0.444   5.715   6.582
 6781WAT  MW   27124   0.434   5.791   6.622
 6782WAT  OW   27125   4.140   6.143   0.558
 6782WAT  HW1  27126   4.084   6.170   0.486
 6782WAT  HW2  27127   4.144   6.220   0.615
 6782WAT  MW   27128   4.133   6.157   0.556
 6783WAT  OW   27129   3.541   0.408   3.226
 6783WAT  HW1  27130   3.544   0.364   3.141
 6783WAT  HW2  27131   3.617   0.375   3.273
 6783WAT  MW   27132   3.551   0.398   3.221
 6784WAT  OW   27133   2.994   2.273   5.437
 6784WAT  HW1  27134   2.970   2.196   5.488
 6784WAT  HW2  27135   2.913   2.325   5.431
 6784WAT  MW   27136   2.980   2.270   5.443
 6785WAT  OW   27137   0.513   4.275   1.893
 6785WAT  HW1  27138   0.449   4.254   1.825
 6785WAT  HW2  27139   0.596   4.283   1.846
 6785WAT  MW   27140   0.516   4.273   1.878
 6786WAT  OW   27141   1.792   0.875   0.640
 6786WAT  HW1  27142   1.825   0.965   0.627
 6786WAT  HW2  27143   1.703   0.886   0.672
 6786WAT  MW   27144   1.785   0.889   0.643
 6787WAT  OW   27145   4.491   6.659   6.427
 6787WAT  HW1  27146   4.553   6.694   6.364
 6787WAT  HW2  27147   4.405   6.679   6.390
 6787WAT  MW   27148   4.488   6.666   6.414
 6788WAT  OW   27149   6.178   4.504   2.748
 6788WAT  HW1  27150   6.261   4.538   2.783
 6788WAT  HW2  27151   6.198   4.414   2.722
 6788WAT  MW   27152   6.192   4.497   2.749
 6789WAT  OW   27153   2.272   0.071   5.627
 6789WAT  HW1  27154   2.298   0.019   5.703
 6789WAT  HW2  27155   2.221   0.143   5.663
 6789WAT  MW   27156   2.269   0.073   5.642
 6790WAT  OW   27157   0.724   0.365   4.017
 6790WAT  HW1  27158   0.683   0.446   4.046
 6790WAT  HW2  27159   0.660   0.297   4.036
 6790WAT  MW   27160   0.710   0.367   4.023
 6791WAT  OW   27161   1.903   5.340   3.908
 6791WAT  HW1  27162   1.845   5.275   3.869
 6791WAT  HW2  27163   1.871   5.349   3.998
 6791WAT  MW   27164   1.891   5.332   3.915
 6792WAT  OW   27165   6.334   5.789   6.252
 6792WAT  HW1  27166   6.302   5.878   6.265
 6792WAT  HW2  27167   6.262   5.742   6.211
 6792WAT  MW   27168   6.321   5.794   6.249
 6793WAT  OW   27169   6.344   1.689   4.865
 6793WAT  HW1  27170   6.408   1.635   4.912
 6793WAT  HW2  27171   6.283   1.627   4.827
 6793WAT  MW   27172   6.345   1.674   4.866
 6794WAT  OW   27173   5.510   1.377   2.601
 6794WAT  HW1  27174   5.505   1.287   2.569
 6794WAT  HW2  27175   5.550   1.426   2.528
 6794WAT  MW   27176   5.515   1.372   2.587
 6795WAT  OW   27177   3.525   4.445   6.424
 6795WAT  HW1  27178   3.430   4.441   6.433
 6795WAT  HW2  27179   3.557   4.464   6.512
 6795WAT  MW   27180   3.517   4.447   6.437
 6796WAT  OW   27181   2.416   2.637   0.632
 6796WAT  HW1  27182   2.434   2.657   0.540
 6796WAT  HW2  27183   2.373   2.716   0.665
 6796WAT  MW   27184   2.413   2.650   0.625
 6797WAT  OW   27185   2.462   4.331   4.661
 6797WAT  HW1  27186   2.426   4.271   4.595
 6797WAT  HW2  27187   2.396   4.401   4.668
 6797WAT  MW   27188   2.449   4.333   4.653
 6798WAT  OW   27189   0.643   2.067   0.780
 6798WAT  HW1  27190   0.687   2.134   0.832
 6798WAT  HW2  27191   0.581   2.115   0.726
 6798WAT  MW   27192   0.641   2.082   0.780
 6799WAT  OW   27193   4.655   2.138   1.685
 6799WAT  HW1  27194   4.711   2.143   1.763
 6799WAT  HW2  27195   4.621   2.227   1.675
 6799WAT  MW   27196   4.658   2.150   1.694
 6800WAT  OW   27197   0.680   1.593   4.332
 6800WAT  HW1  27198   0.626   1.572   4.408
 6800WAT  HW2  27199   0.760   1.632   4.369
 6800WAT  MW   27200   0.683   1.595   4.347
 6801WAT  OW   27201   4.696   2.434   1.028
 6801WAT  HW1  27202   4.779   2.406   0.990
 6801WAT  HW2  27203   4.635   2.363   1.007
 6801WAT  MW   27204   4.699   2.421   1.020
 6802WAT  OW   27205   3.900   5.936   0.603
 6802WAT  HW1  27206   3.810   5.904   0.600
 6802WAT  HW2  27207   3.954   5.862   0.576
 6802WAT  MW   27208   3.895   5.922   0.599
 6803WAT  OW   27209   4.138   1.546   0.044
 6803WAT  HW1  27210   4.169   1.545   0.135
 6803WAT  HW2  27211   4.215   1.521  -0.007
 6803WAT  MW   27212   4.152   1.543   0.049
 6804WAT  OW   27213   4.523   5.360   2.926
 6804WAT  HW1  27214   4.453   5.315   2.880
 6804WAT  HW2  27215   4.492   5.367   3.016
 6804WAT  MW   27216   4.510   5.355   2.932
 6805WAT  OW   27217   4.303   3.740   4.123
 6805WAT  HW1  27218   4.284   3.657   4.079
 6805WAT  HW2  27219   4.280   3.724   4.215
 6805WAT  MW   27220   4.297   3.727   4.129
 6806WAT  OW   27221   1.830   2.954   0.824
 6806WAT  HW1  27222   1.761   2.936   0.759
 6806WAT  HW2  27223   1.816   3.045   0.849
 6806WAT  MW   27224   1.819   2.963   0.818
 6807WAT  OW   27225   4.165   0.864   1.399
 6807WAT  HW1  27226   4.200   0.916   1.471
 6807WAT  HW2  27227   4.116   0.927   1.345
 6807WAT  MW   27228   4.163   0.879   1.401
 6808WAT  OW   27229   2.795   4.566   4.803
 6808WAT  HW1  27230   2.774   4.548   4.711
 6808WAT  HW2  27231   2.879   4.525   4.818
 6808WAT  MW   27232   2.803   4.558   4.793
 6809WAT  OW   27233   1.545   0.906   0.766
 6809WAT  HW1  27234   1.476   0.871   0.709
 6809WAT  HW2  27235   1.504   0.981   0.810
 6809WAT  MW   27236   1.531   0.911   0.764
 6810WAT  OW   27237   5.105   5.087   6.290
 6810WAT  HW1  27238   5.084   5.088   6.383
 6810WAT  HW2  27239   5.153   5.168   6.275
 6810WAT  MW   27240   5.109   5.098   6.300
 6811WAT  OW   27241   3.621   4.871   0.627
 6811WAT  HW1  27242   3.649   4.784   0.599
 6811WAT  HW2  27243   3.586   4.912   0.548
 6811WAT  MW   27244   3.620   4.865   0.613
 6812WAT  OW   27245   1.880   1.721   6.400
 6812WAT  HW1  27246   1.912   1.809   6.380
 6812WAT  HW2  27247   1.908   1.705   6.490
 6812WAT  MW   27248   1.888   1.731   6.409
 6813WAT  OW   27249   2.300   3.982   2.554
 6813WAT  HW1  27250   2.376   4.024   2.595
 6813WAT  HW2  27251   2.225   4.021   2.598
 6813WAT  MW   27252   2.300   3.993   2.565
 6814WAT  OW   27253   4.619   2.713   0.748
 6814WAT  HW1  27254   4.552   2.654   0.715
 6814WAT  HW2  27255   4.702   2.677   0.716
 6814WAT  MW   27256   4.621   2.701   0.740
 6815WAT  OW   27257   1.179   0.439   1.940
 6815WAT  HW1  27258   1.143   0.523   1.967
 6815WAT  HW2  27259   1.272   0.456   1.922
 6815WAT  MW   27260   1.187   0.452   1.941
 6816WAT  OW   27261   1.859   2.446   6.689
 6816WAT  HW1  27262   1.900   2.407   6.612
 6816WAT  HW2  27263   1.869   2.540   6.677
 6816WAT  MW   27264   1.865   2.453   6.677
 6817WAT  OW   27265   2.681   0.987   1.919
 6817WAT  HW1  27266   2.755   0.999   1.860
 6817WAT  HW2  27267   2.613   0.948   1.864
 6817WAT  MW   27268   2.681   0.984   1.904
 6818WAT  OW   27269   1.076   6.089   1.536
 6818WAT  HW1  27270   1.063   6.152   1.465
 6818WAT  HW2  27271   1.025   6.124   1.609
 6818WAT  MW   27272   1.068   6.102   1.536
 6819WAT  OW   27273   3.035   4.110   3.866
 6819WAT  HW1  27274   3.055   4.017   3.857
 6819WAT  HW2  27275   2.943   4.113   3.892
 6819WAT  MW   27276   3.026   4.098   3.868
 6820WAT  OW   27277   4.006   5.359   6.681
 6820WAT  HW1  27278   4.003   5.391   6.771
 6820WAT  HW2  27279   4.036   5.268   6.690
 6820WAT  MW   27280   4.010   5.351   6.694
 6821WAT  OW   27281   2.707   6.594   2.576
 6821WAT  HW1  27282   2.664   6.656   2.516
 6821WAT  HW2  27283   2.798   6.624   2.580
 6821WAT  MW   27284   2.713   6.606   2.568
 6822WAT  OW   27285   4.038   4.372   2.390
 6822WAT  HW1  27286   4.002   4.300   2.443
 6822WAT  HW2  27287   4.127   4.344   2.370
 6822WAT  MW   27288   4.045   4.359   2.394
 6823WAT  OW   27289   4.984   0.666   2.779
 6823WAT  HW1  27290   4.974   0.621   2.696
 6823WAT  HW2  27291   4.994   0.596   2.844
 6823WAT  MW   27292   4.984   0.651   2.777
 6824WAT  OW   27293   2.714   5.480   2.563
 6824WAT  HW1  27294   2.625   5.475   2.526
 6824WAT  HW2  27295   2.731   5.391   2.594
 6824WAT  MW   27296   2.704   5.467   2.562
 6825WAT  OW   27297   1.557   1.385   3.203
 6825WAT  HW1  27298   1.464   1.364   3.192
 6825WAT  HW2  27299   1.580   1.351   3.289
 6825WAT  MW   27300   1.547   1.378   3.213
 6826WAT  OW   27301   3.401   5.017   0.499
 6826WAT  HW1  27302   3.403   5.112   0.488
 6826WAT  HW2  27303   3.337   4.987   0.434
 6826WAT  MW   27304   3.393   5.026   0.489
 6827WAT  OW   27305   0.102   0.511   1.863
 6827WAT  HW1  27306   0.151   0.584   1.901
 6827WAT  HW2  27307   0.010   0.534   1.876
 6827WAT  MW   27308   0.096   0.524   1.869
 6828WAT  OW   27309   0.942   6.378   1.072
 6828WAT  HW1  27310   0.865   6.404   1.123
 6828WAT  HW2  27311   0.987   6.461   1.052
 6828WAT  MW   27312   0.938   6.393   1.076
 6829WAT  OW   27313   0.043   3.546   2.612
 6829WAT  HW1  27314   0.075   3.568   2.700
 6829WAT  HW2  27315   0.065   3.453   2.601
 6829WAT  MW   27316   0.050   3.536   2.622
 6830WAT  OW   27317   4.535   1.566   0.197
 6830WAT  HW1  27318   4.478   1.569   0.120
 6830WAT  HW2  27319   4.486   1.610   0.266
 6830WAT  MW   27320   4.521   1.572   0.196
 6831WAT  OW   27321   4.028   0.922   0.675
 6831WAT  HW1  27322   3.972   0.859   0.720
 6831WAT  HW2  27323   4.011   0.908   0.582
 6831WAT  MW   27324   4.018   0.912   0.669
 6832WAT  OW   27325   1.638   3.085   2.318
 6832WAT  HW1  27326   1.699   3.011   2.312
 6832WAT  HW2  27327   1.614   3.104   2.228
 6832WAT  MW   27328   1.643   3.078   2.306
 6833WAT  OW   27329   2.901   5.881   6.323
 6833WAT  HW1  27330   2.981   5.856   6.368
 6833WAT  HW2  27331   2.912   5.848   6.234
 6833WAT  MW   27332   2.913   5.873   6.317
 6834WAT  OW   27333   5.826   3.290   1.278
 6834WAT  HW1  27334   5.752   3.230   1.275
 6834WAT  HW2  27335   5.793   3.369   1.319
 6834WAT  MW   27336   5.812   3.292   1.283
 6835WAT  OW   27337   1.526   4.164   6.518
 6835WAT  HW1  27338   1.462   4.126   6.457
 6835WAT  HW2  27339   1.489   4.250   6.540
 6835WAT  MW   27340   1.513   4.171   6.513
 6836WAT  OW   27341   5.718   2.445   4.714
 6836WAT  HW1  27342   5.630   2.483   4.719
 6836WAT  HW2  27343   5.766   2.488   4.784
 6836WAT  MW   27344   5.713   2.455   4.724
 6837WAT  OW   27345   4.324   5.241   2.738
 6837WAT  HW1  27346   4.261   5.313   2.744
 6837WAT  HW2  27347   4.365   5.251   2.652
 6837WAT  MW   27348   4.321   5.252   2.728
 6838WAT  OW   27349   4.650   3.465   1.244
 6838WAT  HW1  27350   4.593   3.536   1.216
 6838WAT  HW2  27351   4.592   3.389   1.252
 6838WAT  MW   27352   4.635   3.464   1.241
 6839WAT  OW   27353   6.312   4.343   3.023
 6839WAT  HW1  27354   6.237   4.402   3.019
 6839WAT  HW2  27355   6.385   4.394   2.988
 6839WAT  MW   27356   6.312   4.357   3.018
 6840WAT  OW   27357   0.953   1.508   2.217
 6840WAT  HW1  27358   1.008   1.573   2.262
 6840WAT  HW2  27359   0.886   1.560   2.173
 6840WAT  MW   27360   0.952   1.524   2.217
 6841WAT  OW   27361   1.713   1.291   2.912
 6841WAT  HW1  27362   1.618   1.285   2.901
 6841WAT  HW2  27363   1.728   1.380   2.942
 6841WAT  MW   27364   1.702   1.302   2.914
 6842WAT  OW   27365   2.522   0.597   0.194
 6842WAT  HW1  27366   2.579   0.671   0.176
 6842WAT  HW2  27367   2.530   0.582   0.288
 6842WAT  MW   27368   2.530   0.605   0.204
 6843WAT  OW   27369   3.756   2.002   2.185
 6843WAT  HW1  27370   3.786   1.948   2.112
 6843WAT  HW2  27371   3.699   2.067   2.144
 6843WAT  MW   27372   3.753   2.003   2.170
 6844WAT  OW   27373   2.600   5.174   0.751
 6844WAT  HW1  27374   2.657   5.198   0.824
 6844WAT  HW2  27375   2.546   5.252   0.736
 6844WAT  MW   27376   2.600   5.188   0.759
 6845WAT  OW   27377   1.159   1.029   5.767
 6845WAT  HW1  27378   1.163   0.933   5.771
 6845WAT  HW2  27379   1.174   1.050   5.674
 6845WAT  MW   27380   1.161   1.019   5.755
 6846WAT  OW   27381   2.484   2.392   2.107
 6846WAT  HW1  27382   2.551   2.408   2.174
 6846WAT  HW2  27383   2.463   2.299   2.115
 6846WAT  MW   27384   2.490   2.382   2.117
 6847WAT  OW   27385   1.665   2.127   0.536
 6847WAT  HW1  27386   1.645   2.055   0.475
 6847WAT  HW2  27387   1.700   2.196   0.480
 6847WAT  MW   27388   1.667   2.127   0.520
 6848WAT  OW   27389   5.127   0.154   3.822
 6848WAT  HW1  27390   5.190   0.225   3.810
 6848WAT  HW2  27391   5.049   0.197   3.856
 6848WAT  MW   27392   5.125   0.169   3.825
 6849WAT  OW   27393   3.234   1.692   3.116
 6849WAT  HW1  27394   3.139   1.683   3.118
 6849WAT  HW2  27395   3.266   1.608   3.083
 6849WAT  MW   27396   3.226   1.680   3.112
 6850WAT  OW   27397   0.654   1.121   0.064
 6850WAT  HW1  27398   0.608   1.083   0.140
 6850WAT  HW2  27399   0.679   1.045   0.012
 6850WAT  MW   27400   0.651   1.106   0.067
 6851WAT  OW   27401   3.180   4.727   2.774
 6851WAT  HW1  27402   3.165   4.635   2.751
 6851WAT  HW2  27403   3.273   4.741   2.754
 6851WAT  MW   27404   3.191   4.717   2.768
 6852WAT  OW   27405   0.452   6.560   5.695
 6852WAT  HW1  27406   0.471   6.478   5.741
 6852WAT  HW2  27407   0.509   6.625   5.737
 6852WAT  MW   27408   0.462   6.558   5.706
 6853WAT  OW   27409   2.965   1.837   5.880
 6853WAT  HW1  27410   2.928   1.749   5.887
 6853WAT  HW2  27411   3.036   1.838   5.944
 6853WAT  MW   27412   2.969   1.825   5.889
 6854WAT  OW   27413   2.977   3.763   2.555
 6854WAT  HW1  27414   2.998   3.804   2.639
 6854WAT  HW2  27415   3.031   3.684   2.553
 6854WAT  MW   27416   2.987   3.758   2.566
 6855WAT  OW   27417   5.094   2.461   0.891
 6855WAT  HW1  27418   5.162   2.515   0.850
 6855WAT  HW2  27419   5.035   2.524   0.931
 6855WAT  MW   27420   5.096   2.476   0.891
 6856WAT  OW   27421   0.817   6.144   5.724
 6856WAT  HW1  27422   0.833   6.137   5.819
 6856WAT  HW2  27423   0.846   6.233   5.703
 6856WAT  MW   27424   0.823   6.155   5.734
 6857WAT  OW   27425   0.191   1.594   2.315
 6857WAT  HW1  27426   0.242   1.646   2.377
 6857WAT  HW2  27427   0.235   1.509   2.314
 6857WAT  MW   27428   0.204   1.590   2.323
 6858WAT  OW   27429   2.909   1.418   0.959
 6858WAT  HW1  27430   2.842   1.484   0.975
 6858WAT  HW2  27431   2.982   1.466   0.920
 6858WAT  MW   27432   2.910   1.433   0.956
 6859WAT  OW   27433   2.282   0.208   0.609
 6859WAT  HW1  27434   2.244   0.134   0.562
 6859WAT  HW2  27435   2.232   0.284   0.579
 6859WAT  MW   27436   2.270   0.208   0.599
 6860WAT  OW   27437   2.145   2.348   5.223
 6860WAT  HW1  27438   2.133   2.369   5.131
 6860WAT  HW2  27439   2.228   2.390   5.247
 6860WAT  MW   27440   2.154   2.356   5.214
 6861WAT  OW   27441   2.167   3.831   2.990
 6861WAT  HW1  27442   2.072   3.826   2.977
 6861WAT  HW2  27443   2.184   3.771   3.063
 6861WAT  MW   27444   2.156   3.822   2.998
 6862WAT  OW   27445   2.544   2.685   6.549
 6862WAT  HW1  27446   2.549   2.706   6.456
 6862WAT  HW2  27447   2.464   2.729   6.579
 6862WAT  MW   27448   2.534   2.694   6.541
 6863WAT  OW   27449   5.164   0.170   5.855
 6863WAT  HW1  27450   5.141   0.079   5.874
 6863WAT  HW2  27451   5.208   0.165   5.770
 6863WAT  MW   27452   5.166   0.157   5.846
 6864WAT  OW   27453   0.100   2.025   5.875
 6864WAT  HW1  27454   0.112   2.025   5.970
 6864WAT  HW2  27455   0.005   2.027   5.862
 6864WAT  MW   27456   0.089   2.025   5.886
 6865WAT  OW   27457   3.822   2.968   3.554
 6865WAT  HW1  27458   3.754   2.904   3.573
 6865WAT  HW2  27459   3.775   3.051   3.544
 6865WAT  MW   27460   3.807   2.971   3.555
 6866WAT  OW   27461   4.441   6.145   0.692
 6866WAT  HW1  27462   4.525   6.100   0.701
 6866WAT  HW2  27463   4.386   6.108   0.761
 6866WAT  MW   27464   4.445   6.134   0.703
 6867WAT  OW   27465   4.940   2.153   2.341
 6867WAT  HW1  27466   4.910   2.105   2.263
 6867WAT  HW2  27467   4.917   2.244   2.323
 6867WAT  MW   27468   4.933   2.159   2.328
 6868WAT  OW   27469   1.961   5.218   3.558
 6868WAT  HW1  27470   2.042   5.185   3.519
 6868WAT  HW2  27471   1.982   5.229   3.651
 6868WAT  MW   27472   1.974   5.215   3.565
 6869WAT  OW   27473   0.779   5.592   2.720
 6869WAT  HW1  27474   0.710   5.535   2.752
 6869WAT  HW2  27475   0.836   5.606   2.796
 6869WAT  MW   27476   0.778   5.587   2.734
 6870WAT  OW   27477   1.421   3.200   2.440
 6870WAT  HW1  27478   1.506   3.172   2.408
 6870WAT  HW2  27479   1.359   3.168   2.374
 6870WAT  MW   27480   1.424   3.192   2.427
 6871WAT  OW   27481   6.461   4.294   1.243
 6871WAT  HW1  27482   6.441   4.341   1.325
 6871WAT  HW2  27483   6.530   4.233   1.267
 6871WAT  MW   27484   6.467   4.292   1.257
 6872WAT  OW   27485   6.150   5.801   0.154
 6872WAT  HW1  27486   6.156   5.844   0.239
 6872WAT  HW2  27487   6.057   5.783   0.143
 6872WAT  MW   27488   6.139   5.804   0.164
 6873WAT  OW   27489   0.220   0.692   2.160
 6873WAT  HW1  27490   0.299   0.715   2.209
 6873WAT  HW2  27491   0.150   0.740   2.205
 6873WAT  MW   27492   0.221   0.702   2.173
 6874WAT  OW   27493   4.410   5.808   1.039
 6874WAT  HW1  27494   4.389   5.814   0.946
 6874WAT  HW2  27495   4.356   5.737   1.072
 6874WAT  MW   27496   4.400   5.800   1.031
 6875WAT  OW   27497   0.855   2.338   2.821
 6875WAT  HW1  27498   0.859   2.351   2.727
 6875WAT  HW2  27499   0.915   2.404   2.857
 6875WAT  MW   27500   0.863   2.349   2.814
 6876WAT  OW   27501   4.296   2.099   3.481
 6876WAT  HW1  27502   4.390   2.092   3.498
 6876WAT  HW2  27503   4.276   2.023   3.427
 6876WAT  MW   27504   4.306   2.088   3.476
 6877WAT  OW   27505   5.404   3.597   6.103
 6877WAT  HW1  27506   5.451   3.515   6.112
 6877WAT  HW2  27507   5.432   3.649   6.179
 6877WAT  MW   27508   5.414   3.593   6.114
 6878WAT  OW   27509   5.768   3.964   1.055
 6878WAT  HW1  27510   5.709   3.896   1.088
 6878WAT  HW2  27511   5.854   3.941   1.090
 6878WAT  MW   27512   5.771   3.952   1.064
 6879WAT  OW   27513   6.236   6.082   3.158
 6879WAT  HW1  27514   6.152   6.088   3.113
 6879WAT  HW2  27515   6.215   6.100   3.250
 6879WAT  MW   27516   6.222   6.085   3.164
 6880WAT  OW   27517   6.359   3.013   6.451
 6880WAT  HW1  27518   6.304   3.090   6.469
 6880WAT  HW2  27519   6.443   3.050   6.423
 6880WAT  MW   27520   6.363   3.028   6.449
 6881WAT  OW   27521   1.318   3.942   4.322
 6881WAT  HW1  27522   1.348   4.030   4.346
 6881WAT  HW2  27523   1.271   3.954   4.240
 6881WAT  MW   27524   1.316   3.955   4.315
 6882WAT  OW   27525   0.589   5.380   6.026
 6882WAT  HW1  27526   0.516   5.428   6.065
 6882WAT  HW2  27527   0.558   5.290   6.020
 6882WAT  MW   27528   0.575   5.375   6.031
 6883WAT  OW   27529   3.402   5.888   3.992
 6883WAT  HW1  27530   3.404   5.959   4.055
 6883WAT  HW2  27531   3.325   5.836   4.016
 6883WAT  MW   27532   3.392   5.890   4.003
 6884WAT  OW   27533   2.962   0.627   5.773
 6884WAT  HW1  27534   2.928   0.694   5.832
 6884WAT  HW2  27535   2.976   0.673   5.690
 6884WAT  MW   27536   2.959   0.642   5.770
 6885WAT  OW   27537   6.083   3.076   0.061
 6885WAT  HW1  27538   6.057   3.167   0.077
 6885WAT  HW2  27539   6.077   3.065  -0.033
 6885WAT  MW   27540   6.079   3.086   0.051
 6886WAT  OW   27541   4.224   4.800   1.933
 6886WAT  HW1  27542   4.130   4.817   1.940
 6886WAT  HW2  27543   4.265   4.885   1.951
 6886WAT  MW   27544   4.217   4.814   1.936
 6887WAT  OW   27545   6.587   5.157   4.336
 6887WAT  HW1  27546   6.537   5.077   4.326
 6887WAT  HW2  27547   6.523   5.221   4.369
 6887WAT  MW   27548   6.572   5.155   4.339
 6888WAT  OW   27549   4.484   6.481   1.944
 6888WAT  HW1  27550   4.568   6.490   1.989
 6888WAT  HW2  27551   4.501   6.514   1.856
 6888WAT  MW   27552   4.498   6.486   1.939
 6889WAT  OW   27553   6.432   1.678   4.584
 6889WAT  HW1  27554   6.404   1.643   4.669
 6889WAT  HW2  27555   6.490   1.751   4.606
 6889WAT  MW   27556   6.436   1.683   4.598
 6890WAT  OW   27557   4.731   5.510   5.503
 6890WAT  HW1  27558   4.772   5.434   5.462
 6890WAT  HW2  27559   4.697   5.477   5.586
 6890WAT  MW   27560   4.731   5.496   5.509
 6891WAT  OW   27561   6.288   1.971   4.883
 6891WAT  HW1  27562   6.295   1.878   4.904
 6891WAT  HW2  27563   6.197   1.982   4.853
 6891WAT  MW   27564   6.277   1.960   4.882
 6892WAT  OW   27565   1.954   4.066   4.088
 6892WAT  HW1  27566   1.988   3.994   4.141
 6892WAT  HW2  27567   2.021   4.080   4.021
 6892WAT  MW   27568   1.967   4.058   4.086
 6893WAT  OW   27569   5.853   5.378   2.439
 6893WAT  HW1  27570   5.776   5.378   2.495
 6893WAT  HW2  27571   5.880   5.286   2.436
 6893WAT  MW   27572   5.847   5.365   2.446
 6894WAT  OW   27573   4.046   4.634   4.105
 6894WAT  HW1  27574   4.056   4.541   4.122
 6894WAT  HW2  27575   3.951   4.650   4.111
 6894WAT  MW   27576   4.034   4.624   4.108
 6895WAT  OW   27577   1.126   2.131   2.858
 6895WAT  HW1  27578   1.176   2.156   2.780
 6895WAT  HW2  27579   1.138   2.204   2.919
 6895WAT  MW   27580   1.134   2.144   2.855
 6896WAT  OW   27581   0.823   2.960   3.200
 6896WAT  HW1  27582   0.734   2.931   3.181
 6896WAT  HW2  27583   0.825   3.051   3.170
 6896WAT  MW   27584   0.811   2.968   3.194
 6897WAT  OW   27585   4.339   5.359   6.457
 6897WAT  HW1  27586   4.421   5.403   6.478
 6897WAT  HW2  27587   4.318   5.309   6.536
 6897WAT  MW   27588   4.347   5.358   6.470
 6898WAT  OW   27589   2.633   1.142   1.312
 6898WAT  HW1  27590   2.727   1.163   1.311
 6898WAT  HW2  27591   2.611   1.138   1.405
 6898WAT  MW   27592   2.643   1.144   1.324
 6899WAT  OW   27593   4.752   2.243   2.802
 6899WAT  HW1  27594   4.753   2.194   2.719
 6899WAT  HW2  27595   4.684   2.309   2.790
 6899WAT  MW   27596   4.743   2.245   2.790
 6900WAT  OW   27597   2.775   1.882   5.519
 6900WAT  HW1  27598   2.825   1.834   5.452
 6900WAT  HW2  27599   2.820   1.966   5.527
 6900WAT  MW   27600   2.788   1.886   5.511
 6901WAT  OW   27601   4.598   0.438   2.401
 6901WAT  HW1  27602   4.661   0.424   2.471
 6901WAT  HW2  27603   4.599   0.532   2.385
 6901WAT  MW   27604   4.606   0.448   2.408
 6902WAT  OW   27605   6.660   0.846   5.647
 6902WAT  HW1  27606   6.595   0.813   5.584
 6902WAT  HW2  27607   6.744   0.826   5.605
 6902WAT  MW   27608   6.662   0.839   5.633
 6903WAT  OW   27609   1.513   3.945   3.021
 6903WAT  HW1  27610   1.601   3.948   2.983
 6903WAT  HW2  27611   1.513   3.867   3.076
 6903WAT  MW   27612   1.525   3.935   3.023
 6904WAT  OW   27613   6.564   2.608   3.466
 6904WAT  HW1  27614   6.568   2.533   3.407
 6904WAT  HW2  27615   6.599   2.575   3.549
 6904WAT  MW   27616   6.569   2.594   3.469
 6905WAT  OW   27617   5.095   1.203   5.349
 6905WAT  HW1  27618   5.039   1.264   5.300
 6905WAT  HW2  27619   5.161   1.175   5.285
 6905WAT  MW   27620   5.096   1.208   5.334
 6906WAT  OW   27621   3.744   0.231   0.909
 6906WAT  HW1  27622   3.664   0.179   0.899
 6906WAT  HW2  27623   3.783   0.232   0.822
 6906WAT  MW   27624   3.739   0.224   0.896
 6907WAT  OW   27625   1.192   2.836   0.930
 6907WAT  HW1  27626   1.280   2.810   0.906
 6907WAT  HW2  27627   1.202   2.923   0.969
 6907WAT  MW   27628   1.205   2.844   0.932
 6908WAT  OW   27629   0.690   0.997   1.911
 6908WAT  HW1  27630   0.696   1.084   1.872
 6908WAT  HW2  27631   0.701   0.936   1.838
 6908WAT  MW   27632   0.692   1.000   1.896
 6909WAT  OW   27633   0.588   6.606   5.002
 6909WAT  HW1  27634   0.648   6.628   4.931
 6909WAT  HW2  27635   0.623   6.652   5.078
 6909WAT  MW   27636   0.601   6.615   5.002
 6910WAT  OW   27637   4.734   0.688   5.819
 6910WAT  HW1  27638   4.797   0.760   5.811
 6910WAT  HW2  27639   4.648   0.731   5.807
 6910WAT  MW   27640   4.731   0.703   5.816
 6911WAT  OW   27641   0.734   2.877   5.734
 6911WAT  HW1  27642   0.770   2.822   5.803
 6911WAT  HW2  27643   0.643   2.848   5.725
 6911WAT  MW   27644   0.727   2.866   5.742
 6912WAT  OW   27645   0.291   2.874   4.709
 6912WAT  HW1  27646   0.335   2.794   4.680
 6912WAT  HW2  27647   0.202   2.865   4.675
 6912WAT  MW   27648   0.285   2.862   4.701
 6913WAT  OW   27649   6.172   4.166   1.328
 6913WAT  HW1  27650   6.114   4.094   1.303
 6913WAT  HW2  27651   6.117   4.244   1.321
 6913WAT  MW   27652   6.157   4.167   1.324
 6914WAT  OW   27653   1.941   4.713   4.493
 6914WAT  HW1  27654   1.991   4.753   4.422
 6914WAT  HW2  27655   1.899   4.636   4.454
 6914WAT  MW   27656   1.942   4.708   4.479
 6915WAT  OW   27657   5.054   3.034   5.856
 6915WAT  HW1  27658   5.116   2.991   5.915
 6915WAT  HW2  27659   5.087   3.015   5.768
 6915WAT  MW   27660   5.067   3.026   5.852
 6916WAT  OW   27661   5.252   5.776   6.339
 6916WAT  HW1  27662   5.226   5.785   6.431
 6916WAT  HW2  27663   5.236   5.862   6.301
 6916WAT  MW   27664   5.246   5.788   6.346
 6917WAT  OW   27665   1.387   0.541   5.936
 6917WAT  HW1  27666   1.453   0.595   5.892
 6917WAT  HW2  27667   1.327   0.605   5.976
 6917WAT  MW   27668   1.388   0.557   5.936
 6918WAT  OW   27669   5.174   1.436   0.359
 6918WAT  HW1  27670   5.084   1.433   0.326
 6918WAT  HW2  27671   5.165   1.460   0.451
 6918WAT  MW   27672   5.161   1.439   0.367
 6919WAT  OW   27673   2.076   2.727   6.510
 6919WAT  HW1  27674   2.007   2.721   6.576
 6919WAT  HW2  27675   2.033   2.704   6.428
 6919WAT  MW   27676   2.062   2.723   6.508
 6920WAT  OW   27677   1.807   0.466   6.076
 6920WAT  HW1  27678   1.725   0.494   6.117
 6920WAT  HW2  27679   1.782   0.443   5.987
 6920WAT  MW   27680   1.793   0.466   6.070
 6921WAT  OW   27681   1.885   4.107   2.141
 6921WAT  HW1  27682   1.969   4.138   2.175
 6921WAT  HW2  27683   1.842   4.185   2.107
 6921WAT  MW   27684   1.891   4.121   2.141
 6922WAT  OW   27685   2.098   2.121   3.809
 6922WAT  HW1  27686   2.112   2.139   3.716
 6922WAT  HW2  27687   2.090   2.207   3.850
 6922WAT  MW   27688   2.099   2.135   3.802
 6923WAT  OW   27689   3.039   3.247   3.027
 6923WAT  HW1  27690   3.020   3.316   3.091
 6923WAT  HW2  27691   3.000   3.279   2.946
 6923WAT  MW   27692   3.031   3.261   3.025
 6924WAT  OW   27693   3.948   6.195   0.026
 6924WAT  HW1  27694   3.979   6.273   0.073
 6924WAT  HW2  27695   3.997   6.123   0.063
 6924WAT  MW   27696   3.958   6.196   0.037
 6925WAT  OW   27697   1.793   5.268   3.338
 6925WAT  HW1  27698   1.852   5.270   3.413
 6925WAT  HW2  27699   1.726   5.334   3.358
 6925WAT  MW   27700   1.792   5.277   3.351
 6926WAT  OW   27701   3.681   0.749   4.441
 6926WAT  HW1  27702   3.741   0.816   4.408
 6926WAT  HW2  27703   3.594   0.787   4.428
 6926WAT  MW   27704   3.678   0.763   4.435
 6927WAT  OW   27705   6.264   3.937   6.536
 6927WAT  HW1  27706   6.330   3.893   6.589
 6927WAT  HW2  27707   6.226   3.867   6.482
 6927WAT  MW   27708   6.268   3.922   6.536
 6928WAT  OW   27709   1.378   0.172   2.986
 6928WAT  HW1  27710   1.354   0.205   2.899
 6928WAT  HW2  27711   1.381   0.077   2.975
 6928WAT  MW   27712   1.375   0.164   2.973
 6929WAT  OW   27713   1.851   2.510   5.218
 6929WAT  HW1  27714   1.919   2.460   5.173
 6929WAT  HW2  27715   1.786   2.529   5.149
 6929WAT  MW   27716   1.852   2.506   5.203
 6930WAT  OW   27717   1.943   4.325   5.711
 6930WAT  HW1  27718   1.959   4.415   5.682
 6930WAT  HW2  27719   2.008   4.309   5.779
 6930WAT  MW   27720   1.954   4.335   5.716
 6931WAT  OW   27721   5.983   3.518   3.118
 6931WAT  HW1  27722   5.953   3.473   3.197
 6931WAT  HW2  27723   5.928   3.484   3.048
 6931WAT  MW   27724   5.972   3.508   3.119
 6932WAT  OW   27725   3.652   4.704   4.445
 6932WAT  HW1  27726   3.730   4.691   4.499
 6932WAT  HW2  27727   3.595   4.631   4.467
 6932WAT  MW   27728   3.655   4.693   4.455
 6933WAT  OW   27729   0.445   4.199   0.148
 6933WAT  HW1  27730   0.470   4.290   0.165
 6933WAT  HW2  27731   0.509   4.168   0.084
 6933WAT  MW   27732   0.457   4.207   0.142
 6934WAT  OW   27733   1.029   1.764   0.563
 6934WAT  HW1  27734   0.973   1.778   0.487
 6934WAT  HW2  27735   0.987   1.812   0.634
 6934WAT  MW   27736   1.016   1.772   0.562
 6935WAT  OW   27737   3.903   5.793   3.425
 6935WAT  HW1  27738   3.991   5.755   3.430
 6935WAT  HW2  27739   3.865   5.778   3.511
 6935WAT  MW   27740   3.910   5.786   3.437
 6936WAT  OW   27741   1.040   6.021   2.990
 6936WAT  HW1  27742   1.051   5.986   2.901
 6936WAT  HW2  27743   1.087   5.958   3.045
 6936WAT  MW   27744   1.048   6.008   2.985
 6937WAT  OW   27745   4.290   5.601   4.988
 6937WAT  HW1  27746   4.295   5.673   4.925
 6937WAT  HW2  27747   4.228   5.631   5.054
 6937WAT  MW   27748   4.283   5.615   4.989
 6938WAT  OW   27749   2.918   0.738   4.182
 6938WAT  HW1  27750   2.926   0.833   4.173
 6938WAT  HW2  27751   2.851   0.714   4.118
 6938WAT  MW   27752   2.910   0.748   4.172
 6939WAT  OW   27753   3.480   1.257   6.601
 6939WAT  HW1  27754   3.544   1.300   6.657
 6939WAT  HW2  27755   3.468   1.317   6.527
 6939WAT  MW   27756   3.487   1.270   6.599
 6940WAT  OW   27757   5.517   4.860   0.756
 6940WAT  HW1  27758   5.539   4.792   0.693
 6940WAT  HW2  27759   5.586   4.854   0.822
 6940WAT  MW   27760   5.529   4.850   0.757
 6941WAT  OW   27761   2.606   6.071   3.631
 6941WAT  HW1  27762   2.693   6.111   3.629
 6941WAT  HW2  27763   2.545   6.145   3.632
 6941WAT  MW   27764   2.610   6.086   3.631
 6942WAT  OW   27765   1.885   5.777   0.021
 6942WAT  HW1  27766   1.871   5.690   0.057
 6942WAT  HW2  27767   1.871   5.836   0.095
 6942WAT  MW   27768   1.881   5.773   0.036
 6943WAT  OW   27769   5.659   1.518   2.350
 6943WAT  HW1  27770   5.670   1.608   2.381
 6943WAT  HW2  27771   5.575   1.519   2.303
 6943WAT  MW   27772   5.649   1.530   2.348
 6944WAT  OW   27773   1.779   3.033   6.361
 6944WAT  HW1  27774   1.711   3.028   6.294
 6944WAT  HW2  27775   1.785   2.944   6.396
 6944WAT  MW   27776   1.771   3.021   6.357
 6945WAT  OW   27777   0.297   5.794   6.056
 6945WAT  HW1  27778   0.375   5.783   6.001
 6945WAT  HW2  27779   0.238   5.848   6.004
 6945WAT  MW   27780   0.300   5.799   6.042
 6946WAT  OW   27781   3.839   5.010   2.331
 6946WAT  HW1  27782   3.918   4.981   2.287
 6946WAT  HW2  27783   3.768   4.983   2.273
 6946WAT  MW   27784   3.840   5.002   2.318
 6947WAT  OW   27785   1.994   6.259   2.716
 6947WAT  HW1  27786   1.915   6.282   2.765
 6947WAT  HW2  27787   1.970   6.271   2.625
 6947WAT  MW   27788   1.981   6.264   2.711
 6948WAT  OW   27789   3.874   6.225   3.552
 6948WAT  HW1  27790   3.867   6.173   3.632
 6948WAT  HW2  27791   3.849   6.165   3.482
 6948WAT  MW   27792   3.870   6.210   3.554
 6949WAT  OW   27793   2.385   5.814   0.929
 6949WAT  HW1  27794   2.471   5.790   0.895
 6949WAT  HW2  27795   2.380   5.772   1.015
 6949WAT  MW   27796   2.396   5.805   0.936
 6950WAT  OW   27797   0.497   5.433   4.645
 6950WAT  HW1  27798   0.547   5.411   4.566
 6950WAT  HW2  27799   0.426   5.369   4.646
 6950WAT  MW   27800   0.494   5.422   4.635
 6951WAT  OW   27801   4.390   2.828   3.416
 6951WAT  HW1  27802   4.394   2.735   3.434
 6951WAT  HW2  27803   4.437   2.869   3.489
 6951WAT  MW   27804   4.397   2.821   3.428
 6952WAT  OW   27805   6.566   4.998   1.197
 6952WAT  HW1  27806   6.637   5.036   1.145
 6952WAT  HW2  27807   6.609   4.930   1.249
 6952WAT  MW   27808   6.581   4.994   1.197
 6953WAT  OW   27809   3.577   4.314   5.109
 6953WAT  HW1  27810   3.626   4.285   5.032
 6953WAT  HW2  27811   3.496   4.349   5.075
 6953WAT  MW   27812   3.573   4.315   5.095
 6954WAT  OW   27813   6.086   2.009   4.208
 6954WAT  HW1  27814   5.993   1.998   4.192
 6954WAT  HW2  27815   6.100   2.104   4.205
 6954WAT  MW   27816   6.076   2.020   4.205
 6955WAT  OW   27817   0.839   5.955   1.801
 6955WAT  HW1  27818   0.766   5.899   1.774
 6955WAT  HW2  27819   0.852   5.934   1.894
 6955WAT  MW   27820   0.831   5.945   1.810
 6956WAT  OW   27821   4.476   5.950   2.384
 6956WAT  HW1  27822   4.509   5.933   2.296
 6956WAT  HW2  27823   4.388   5.985   2.371
 6956WAT  MW   27824   4.469   5.952   2.371
 6957WAT  OW   27825   1.749   1.707   3.766
 6957WAT  HW1  27826   1.685   1.707   3.695
 6957WAT  HW2  27827   1.828   1.745   3.728
 6957WAT  MW   27828   1.751   1.712   3.752
 6958WAT  OW   27829   4.096   2.177   4.806
 6958WAT  HW1  27830   4.085   2.118   4.880
 6958WAT  HW2  27831   4.169   2.140   4.756
 6958WAT  MW   27832   4.104   2.164   4.809
 6959WAT  OW   27833   2.603   0.576   2.745
 6959WAT  HW1  27834   2.610   0.563   2.650
 6959WAT  HW2  27835   2.509   0.574   2.763
 6959WAT  MW   27836   2.592   0.574   2.735
 6960WAT  OW   27837   2.927   5.475   2.319
 6960WAT  HW1  27838   2.886   5.419   2.253
 6960WAT  HW2  27839   2.867   5.472   2.394
 6960WAT  MW   27840   2.914   5.467   2.320
 6961WAT  OW   27841   0.353   3.888   6.204
 6961WAT  HW1  27842   0.370   3.908   6.112
 6961WAT  HW2  27843   0.414   3.944   6.253
 6961WAT  MW   27844   0.363   3.898   6.199
 6962WAT  OW   27845   1.141   0.410   4.432
 6962WAT  HW1  27846   1.090   0.471   4.379
 6962WAT  HW2  27847   1.165   0.461   4.510
 6962WAT  MW   27848   1.137   0.425   4.436
 6963WAT  OW   27849   3.245   0.738   5.266
 6963WAT  HW1  27850   3.276   0.786   5.343
 6963WAT  HW2  27851   3.291   0.779   5.193
 6963WAT  MW   27852   3.255   0.750   5.267
 6964WAT  OW   27853   0.077   3.381   1.723
 6964WAT  HW1  27854  -0.005   3.431   1.725
 6964WAT  HW2  27855   0.140   3.437   1.769
 6964WAT  MW   27856   0.075   3.395   1.730
 6965WAT  OW   27857   6.193   6.098   5.790
 6965WAT  HW1  27858   6.148   6.164   5.737
 6965WAT  HW2  27859   6.259   6.148   5.838
 6965WAT  MW   27860   6.195   6.113   5.789
 6966WAT  OW   27861   1.757   2.105   3.062
 6966WAT  HW1  27862   1.703   2.028   3.079
 6966WAT  HW2  27863   1.721   2.144   2.983
 6966WAT  MW   27864   1.745   2.100   3.054
 6967WAT  OW   27865   3.957   5.782   5.391
 6967WAT  HW1  27866   4.047   5.812   5.384
 6967WAT  HW2  27867   3.906   5.846   5.342
 6967WAT  MW   27868   3.962   5.794   5.384
 6968WAT  OW   27869   3.094   0.119   2.813
 6968WAT  HW1  27870   3.091   0.067   2.893
 6968WAT  HW2  27871   3.104   0.209   2.844
 6968WAT  MW   27872   3.095   0.124   2.828
 6969WAT  OW   27873   3.732   5.163   1.468
 6969WAT  HW1  27874   3.689   5.078   1.471
 6969WAT  HW2  27875   3.826   5.143   1.472
 6969WAT  MW   27876   3.739   5.149   1.469
 6970WAT  OW   27877   2.466   5.136   4.379
 6970WAT  HW1  27878   2.401   5.134   4.449
 6970WAT  HW2  27879   2.549   5.150   4.423
 6970WAT  MW   27880   2.468   5.137   4.394
 6971WAT  OW   27881   5.842   3.320   4.496
 6971WAT  HW1  27882   5.780   3.254   4.465
 6971WAT  HW2  27883   5.840   3.388   4.428
 6971WAT  MW   27884   5.833   3.320   4.483
 6972WAT  OW   27885   0.860   0.595   4.604
 6972WAT  HW1  27886   0.836   0.502   4.594
 6972WAT  HW2  27887   0.946   0.602   4.561
 6972WAT  MW   27888   0.868   0.583   4.597
 6973WAT  OW   27889   1.897   0.748   1.974
 6973WAT  HW1  27890   1.839   0.737   2.049
 6973WAT  HW2  27891   1.913   0.842   1.969
 6973WAT  MW   27892   1.892   0.759   1.983
 6974WAT  OW   27893   2.700   5.161   5.800
 6974WAT  HW1  27894   2.642   5.133   5.731
 6974WAT  HW2  27895   2.788   5.145   5.766
 6974WAT  MW   27896   2.704   5.156   5.787
 6975WAT  OW   27897   0.162   5.891   0.180
 6975WAT  HW1  27898   0.135   5.895   0.089
 6975WAT  HW2  27899   0.170   5.797   0.199
 6975WAT  MW   27900   0.159   5.879   0.171
 6976WAT  OW   27901   6.280   4.247   2.689
 6976WAT  HW1  27902   6.342   4.259   2.617
 6976WAT  HW2  27903   6.226   4.173   2.661
 6976WAT  MW   27904   6.281   4.239   2.675
 6977WAT  OW   27905   0.469   4.767   0.510
 6977WAT  HW1  27906   0.439   4.713   0.583
 6977WAT  HW2  27907   0.559   4.738   0.494
 6977WAT  MW   27908   0.477   4.756   0.518
 6978WAT  OW   27909   5.268   1.450   1.072
 6978WAT  HW1  27910   5.236   1.364   1.097
 6978WAT  HW2  27911   5.324   1.478   1.144
 6978WAT  MW   27912   5.271   1.442   1.084
 6979WAT  OW   27913   4.776   2.595   4.236
 6979WAT  HW1  27914   4.843   2.617   4.300
 6979WAT  HW2  27915   4.747   2.679   4.200
 6979WAT  MW   27916   4.781   2.609   4.240
 6980WAT  OW   27917   0.208   2.017   4.592
 6980WAT  HW1  27918   0.234   2.091   4.647
 6980WAT  HW2  27919   0.127   1.985   4.632
 6980WAT  MW   27920   0.201   2.023   4.605
 6981WAT  OW   27921   1.699   3.959   0.761
 6981WAT  HW1  27922   1.641   4.030   0.788
 6981WAT  HW2  27923   1.641   3.889   0.732
 6981WAT  MW   27924   1.684   3.959   0.760
 6982WAT  OW   27925   0.199   6.385   1.790
 6982WAT  HW1  27926   0.107   6.384   1.819
 6982WAT  HW2  27927   0.214   6.296   1.758
 6982WAT  MW   27928   0.189   6.373   1.790
 6983WAT  OW   27929   4.930   1.523   5.484
 6983WAT  HW1  27930   4.873   1.449   5.505
 6983WAT  HW2  27931   4.961   1.554   5.569
 6983WAT  MW   27932   4.926   1.518   5.498
 6984WAT  OW   27933   3.273   3.678   2.750
 6984WAT  HW1  27934   3.334   3.686   2.676
 6984WAT  HW2  27935   3.250   3.585   2.752
 6984WAT  MW   27936   3.278   3.667   2.740
 6985WAT  OW   27937   0.124   1.629   1.092
 6985WAT  HW1  27938   0.215   1.640   1.118
 6985WAT  HW2  27939   0.127   1.630   0.996
 6985WAT  MW   27940   0.136   1.630   1.082
 6986WAT  OW   27941   0.003   5.921   5.660
 6986WAT  HW1  27942  -0.091   5.911   5.671
 6986WAT  HW2  27943   0.035   5.831   5.648
 6986WAT  MW   27944  -0.005   5.908   5.660
 6987WAT  OW   27945   3.203   0.041   0.676
 6987WAT  HW1  27946   3.162   0.078   0.755
 6987WAT  HW2  27947   3.193  -0.054   0.687
 6987WAT  MW   27948   3.196   0.033   0.688
 6988WAT  OW   27949   6.043   6.017   2.589
 6988WAT  HW1  27950   6.068   5.976   2.506
 6988WAT  HW2  27951   5.957   6.056   2.571
 6988WAT  MW   27952   6.035   6.017   2.576
 6989WAT  OW   27953   0.138   3.861   4.158
 6989WAT  HW1  27954   0.141   3.767   4.175
 6989WAT  HW2  27955   0.177   3.901   4.235
 6989WAT  MW   27956   0.143   3.854   4.170
 6990WAT  OW   27957   2.678   3.483   5.101
 6990WAT  HW1  27958   2.741   3.500   5.032
 6990WAT  HW2  27959   2.606   3.437   5.058
 6990WAT  MW   27960   2.677   3.479   5.087
 6991WAT  OW   27961   1.043   4.189   2.017
 6991WAT  HW1  27962   1.108   4.243   1.973
 6991WAT  HW2  27963   0.995   4.146   1.946
 6991WAT  MW   27964   1.045   4.190   2.002
 6992WAT  OW   27965   3.775   5.603   3.247
 6992WAT  HW1  27966   3.749   5.629   3.158
 6992WAT  HW2  27967   3.798   5.685   3.290
 6992WAT  MW   27968   3.775   5.617   3.241
 6993WAT  OW   27969   4.692   5.584   6.657
 6993WAT  HW1  27970   4.726   5.667   6.622
 6993WAT  HW2  27971   4.666   5.534   6.580
 6993WAT  MW   27972   4.693   5.588   6.643
 6994WAT  OW   27973   0.362   2.681   2.634
 6994WAT  HW1  27974   0.370   2.729   2.552
 6994WAT  HW2  27975   0.405   2.737   2.699
 6994WAT  MW   27976   0.369   2.695   2.632
 6995WAT  OW   27977   1.549   4.912   5.043
 6995WAT  HW1  27978   1.619   4.851   5.067
 6995WAT  HW2  27979   1.503   4.930   5.126
 6995WAT  MW   27980   1.552   4.906   5.057
 6996WAT  OW   27981   1.544   2.635   3.827
 6996WAT  HW1  27982   1.457   2.647   3.789
 6996WAT  HW2  27983   1.534   2.562   3.889
 6996WAT  MW   27984   1.531   2.627   3.830
 6997WAT  OW   27985   3.459   3.803   0.072
 6997WAT  HW1  27986   3.467   3.741  -0.001
 6997WAT  HW2  27987   3.365   3.819   0.079
 6997WAT  MW   27988   3.447   3.797   0.063
 6998WAT  OW   27989   2.145   1.643   6.681
 6998WAT  HW1  27990   2.178   1.653   6.591
 6998WAT  HW2  27991   2.050   1.654   6.673
 6998WAT  MW   27992   2.137   1.646   6.668
 6999WAT  OW   27993   6.570   3.850   5.941
 6999WAT  HW1  27994   6.598   3.913   6.007
 6999WAT  HW2  27995   6.591   3.765   5.979
 6999WAT  MW   27996   6.577   3.847   5.955
 7000WAT  OW   27997   5.119   3.565   6.105
 7000WAT  HW1  27998   5.211   3.540   6.104
 7000WAT  HW2  27999   5.120   3.661   6.113
 7000WAT  MW   28000   5.131   3.574   6.106
 7001WAT  OW   28001   5.738   6.056   0.651
 7001WAT  HW1  28002   5.795   5.986   0.620
 7001WAT  HW2  28003   5.650   6.024   0.634
 7001WAT  MW   28004   5.734   6.042   0.645
 7002WAT  OW   28005   0.983   1.818   1.375
 7002WAT  HW1  28006   0.888   1.805   1.384
 7002WAT  HW2  28007   1.021   1.757   1.439
 7002WAT  MW   28008   0.975   1.808   1.385
 7003WAT  OW   28009   4.942   2.369   0.423
 7003WAT  HW1  28010   4.934   2.427   0.498
 7003WAT  HW2  28011   4.982   2.289   0.457
 7003WAT  MW   28012   4.946   2.366   0.437
 7004WAT  OW   28013   3.730   6.567   2.604
 7004WAT  HW1  28014   3.670   6.641   2.600
 7004WAT  HW2  28015   3.757   6.553   2.513
 7004WAT  MW   28016   3.725   6.575   2.591
 7005WAT  OW   28017   5.361   0.922   2.387
 7005WAT  HW1  28018   5.428   0.903   2.320
 7005WAT  HW2  28019   5.407   0.910   2.470
 7005WAT  MW   28020   5.376   0.918   2.389
 7006WAT  OW   28021   4.474   0.504   5.539
 7006WAT  HW1  28022   4.405   0.567   5.560
 7006WAT  HW2  28023   4.428   0.425   5.513
 7006WAT  MW   28024   4.459   0.502   5.538
 7007WAT  OW   28025   6.338   0.876   3.135
 7007WAT  HW1  28026   6.304   0.819   3.204
 7007WAT  HW2  28027   6.432   0.881   3.152
 7007WAT  MW   28028   6.346   0.869   3.146
 7008WAT  OW   28029   5.312   0.051   6.234
 7008WAT  HW1  28030   5.216   0.057   6.232
 7008WAT  HW2  28031   5.330  -0.042   6.222
 7008WAT  MW   28032   5.302   0.039   6.232
 7009WAT  OW   28033   6.265   5.636   1.026
 7009WAT  HW1  28034   6.242   5.682   1.107
 7009WAT  HW2  28035   6.206   5.561   1.023
 7009WAT  MW   28036   6.255   5.632   1.036
 7010WAT  OW   28037   4.130   4.429   1.903
 7010WAT  HW1  28038   4.203   4.367   1.906
 7010WAT  HW2  28039   4.081   4.411   1.984
 7010WAT  MW   28040   4.133   4.418   1.914
 7011WAT  OW   28041   3.571   1.180   6.225
 7011WAT  HW1  28042   3.645   1.240   6.216
 7011WAT  HW2  28043   3.558   1.145   6.137
 7011WAT  MW   28044   3.579   1.183   6.212
 7012WAT  OW   28045   0.066   5.885   6.310
 7012WAT  HW1  28046   0.085   5.875   6.217
 7012WAT  HW2  28047  -0.008   5.826   6.326
 7012WAT  MW   28048   0.058   5.875   6.300
 7013WAT  OW   28049   5.581   4.006   5.724
 7013WAT  HW1  28050   5.564   3.927   5.671
 7013WAT  HW2  28051   5.673   4.026   5.707
 7013WAT  MW   28052   5.591   3.998   5.715
 7014WAT  OW   28053   5.712   1.267   4.408
 7014WAT  HW1  28054   5.753   1.220   4.335
 7014WAT  HW2  28055   5.623   1.231   4.412
 7014WAT  MW   28056   5.706   1.256   4.399
 7015WAT  OW   28057   1.209   2.345   0.694
 7015WAT  HW1  28058   1.234   2.420   0.639
 7015WAT  HW2  28059   1.287   2.288   0.693
 7015WAT  MW   28060   1.223   2.347   0.687
 7016WAT  OW   28061   5.541   2.840   3.719
 7016WAT  HW1  28062   5.606   2.890   3.671
 7016WAT  HW2  28063   5.592   2.786   3.779
 7016WAT  MW   28064   5.556   2.840   3.721
 7017WAT  OW   28065   3.486   4.057   3.168
 7017WAT  HW1  28066   3.461   4.131   3.223
 7017WAT  HW2  28067   3.580   4.047   3.182
 7017WAT  MW   28068   3.495   4.065   3.177
 7018WAT  OW   28069   5.063   4.987   0.679
 7018WAT  HW1  28070   5.013   4.991   0.760
 7018WAT  HW2  28071   5.155   4.986   0.707
 7018WAT  MW   28072   5.069   4.987   0.693
 7019WAT  OW   28073   5.889   0.446   5.722
 7019WAT  HW1  28074   5.947   0.399   5.662
 7019WAT  HW2  28075   5.843   0.377   5.771
 7019WAT  MW   28076   5.891   0.431   5.721
 7020WAT  OW   28077   5.775   0.117   0.809
 7020WAT  HW1  28078   5.765   0.096   0.902
 7020WAT  HW2  28079   5.869   0.132   0.797
 7020WAT  MW   28080   5.786   0.116   0.820
 7021WAT  OW   28081   6.319   5.845   3.049
 7021WAT  HW1  28082   6.229   5.815   3.064
 7021WAT  HW2  28083   6.315   5.940   3.063
 7021WAT  MW   28084   6.307   5.853   3.053
 7022WAT  OW   28085   2.221   5.345   6.107
 7022WAT  HW1  28086   2.246   5.308   6.192
 7022WAT  HW2  28087   2.207   5.438   6.125
 7022WAT  MW   28088   2.222   5.353   6.121
 7023WAT  OW   28089   3.739   2.076   4.774
 7023WAT  HW1  28090   3.784   2.146   4.821
 7023WAT  HW2  28091   3.799   2.052   4.703
 7023WAT  MW   28092   3.753   2.082   4.771
 7024WAT  OW   28093   4.359   5.088   1.278
 7024WAT  HW1  28094   4.332   5.003   1.311
 7024WAT  HW2  28095   4.285   5.146   1.298
 7024WAT  MW   28096   4.346   5.085   1.285
 7025WAT  OW   28097   2.537   2.679   1.485
 7025WAT  HW1  28098   2.546   2.728   1.567
 7025WAT  HW2  28099   2.448   2.696   1.457
 7025WAT  MW   28100   2.527   2.687   1.492
 7026WAT  OW   28101   5.884   1.555   3.648
 7026WAT  HW1  28102   5.857   1.497   3.719
 7026WAT  HW2  28103   5.976   1.574   3.666
 7026WAT  MW   28104   5.893   1.550   3.660
 7027WAT  OW   28105   2.293   4.493   0.466
 7027WAT  HW1  28106   2.315   4.427   0.401
 7027WAT  HW2  28107   2.235   4.448   0.527
 7027WAT  MW   28108   2.288   4.479   0.466
 7028WAT  OW   28109   2.379   1.367   2.054
 7028WAT  HW1  28110   2.310   1.302   2.042
 7028WAT  HW2  28111   2.332   1.450   2.063
 7028WAT  MW   28112   2.363   1.369   2.054
 7029WAT  OW   28113   2.073   1.934   4.270
 7029WAT  HW1  28114   2.026   1.978   4.199
 7029WAT  HW2  28115   2.143   1.885   4.226
 7029WAT  MW   28116   2.076   1.933   4.255
 7030WAT  OW   28117   4.953   2.072   6.229
 7030WAT  HW1  28118   4.889   2.020   6.277
 7030WAT  HW2  28119   5.013   2.105   6.296
 7030WAT  MW   28120   4.953   2.070   6.244
 7031WAT  OW   28121   4.016   2.849   4.668
 7031WAT  HW1  28122   4.086   2.810   4.615
 7031WAT  HW2  28123   3.967   2.904   4.606
 7031WAT  MW   28124   4.019   2.851   4.652
 7032WAT  OW   28125   2.376   3.330   3.203
 7032WAT  HW1  28126   2.433   3.253   3.194
 7032WAT  HW2  28127   2.298   3.308   3.153
 7032WAT  MW   28128   2.374   3.317   3.195
 7033WAT  OW   28129   0.057   0.967   6.565
 7033WAT  HW1  28130   0.059   0.871   6.568
 7033WAT  HW2  28131   0.102   0.989   6.483
 7033WAT  MW   28132   0.063   0.957   6.554
 7034WAT  OW   28133   0.917   2.306   4.016
 7034WAT  HW1  28134   0.941   2.398   4.023
 7034WAT  HW2  28135   0.828   2.302   4.051
 7034WAT  MW   28136   0.908   2.318   4.021
 7035WAT  OW   28137   5.963   1.655   1.167
 7035WAT  HW1  28138   5.875   1.617   1.172
 7035WAT  HW2  28139   5.954   1.741   1.208
 7035WAT  MW   28140   5.950   1.661   1.173
 7036WAT  OW   28141   4.150   0.257   6.467
 7036WAT  HW1  28142   4.064   0.295   6.450
 7036WAT  HW2  28143   4.149   0.173   6.421
 7036WAT  MW   28144   4.139   0.251   6.459
 7037WAT  OW   28145   4.891   0.523   1.595
 7037WAT  HW1  28146   4.823   0.590   1.587
 7037WAT  HW2  28147   4.844   0.440   1.587
 7037WAT  MW   28148   4.876   0.521   1.593
 7038WAT  OW   28149   5.220   1.631   4.645
 7038WAT  HW1  28150   5.174   1.625   4.728
 7038WAT  HW2  28151   5.313   1.634   4.668
 7038WAT  MW   28152   5.226   1.631   4.659
 7039WAT  OW   28153   1.872   4.542   2.305
 7039WAT  HW1  28154   1.909   4.599   2.237
 7039WAT  HW2  28155   1.779   4.564   2.306
 7039WAT  MW   28156   1.864   4.553   2.296
 7040WAT  OW   28157   3.071   3.364   0.356
 7040WAT  HW1  28158   3.160   3.365   0.320
 7040WAT  HW2  28159   3.061   3.449   0.398
 7040WAT  MW   28160   3.082   3.375   0.357
 7041WAT  OW   28161   2.323   5.083   1.059
 7041WAT  HW1  28162   2.277   5.167   1.051
 7041WAT  HW2  28163   2.357   5.066   0.971
 7041WAT  MW   28164   2.321   5.092   1.046
 7042WAT  OW   28165   2.892   1.137   2.301
 7042WAT  HW1  28166   2.937   1.057   2.274
 7042WAT  HW2  28167   2.820   1.146   2.238
 7042WAT  MW   28168   2.888   1.127   2.289
 7043WAT  OW   28169   5.884   4.430   1.588
 7043WAT  HW1  28170   5.810   4.377   1.616
 7043WAT  HW2  28171   5.879   4.509   1.643
 7043WAT  MW   28172   5.874   4.434   1.599
 7044WAT  OW   28173   6.330   4.135   3.429
 7044WAT  HW1  28174   6.235   4.125   3.437
 7044WAT  HW2  28175   6.342   4.216   3.381
 7044WAT  MW   28176   6.319   4.144   3.424
 7045WAT  OW   28177   1.009   2.590   3.435
 7045WAT  HW1  28178   1.078   2.526   3.422
 7045WAT  HW2  28179   0.931   2.550   3.397
 7045WAT  MW   28180   1.008   2.576   3.428
 7046WAT  OW   28181   5.605   2.937   0.373
 7046WAT  HW1  28182   5.650   3.015   0.341
 7046WAT  HW2  28183   5.556   2.968   0.450
 7046WAT  MW   28184   5.604   2.952   0.379
 7047WAT  OW   28185   2.393   0.882   3.275
 7047WAT  HW1  28186   2.429   0.865   3.187
 7047WAT  HW2  28187   2.424   0.808   3.327
 7047WAT  MW   28188   2.402   0.870   3.270
 7048WAT  OW   28189   4.145   2.737   3.856
 7048WAT  HW1  28190   4.095   2.773   3.783
 7048WAT  HW2  28191   4.210   2.680   3.815
 7048WAT  MW   28192   4.147   2.734   3.841
 7049WAT  OW   28193   4.997   0.949   2.167
 7049WAT  HW1  28194   5.059   1.015   2.137
 7049WAT  HW2  28195   4.955   0.918   2.087
 7049WAT  MW   28196   4.999   0.954   2.152
 7050WAT  OW   28197   6.057   4.784   3.445
 7050WAT  HW1  28198   6.101   4.831   3.516
 7050WAT  HW2  28199   6.107   4.703   3.434
 7050WAT  MW   28200   6.069   4.780   3.453
 7051WAT  OW   28201   2.533   1.650   3.234
 7051WAT  HW1  28202   2.502   1.612   3.316
 7051WAT  HW2  28203   2.557   1.740   3.256
 7051WAT  MW   28204   2.532   1.657   3.248
 7052WAT  OW   28205   5.428   6.456   0.211
 7052WAT  HW1  28206   5.388   6.373   0.185
 7052WAT  HW2  28207   5.400   6.468   0.302
 7052WAT  MW   28208   5.419   6.447   0.220
 7053WAT  OW   28209   3.791   4.025   0.572
 7053WAT  HW1  28210   3.751   4.101   0.615
 7053WAT  HW2  28211   3.716   3.972   0.542
 7053WAT  MW   28212   3.776   4.028   0.574
 7054WAT  OW   28213   4.427   4.014   3.216
 7054WAT  HW1  28214   4.424   4.110   3.220
 7054WAT  HW2  28215   4.515   3.992   3.246
 7054WAT  MW   28216   4.439   4.024   3.220
 7055WAT  OW   28217   6.640   4.722   6.094
 7055WAT  HW1  28218   6.708   4.676   6.045
 7055WAT  HW2  28219   6.559   4.700   6.048
 7055WAT  MW   28220   6.638   4.713   6.081
 7056WAT  OW   28221   4.450   0.367   0.862
 7056WAT  HW1  28222   4.450   0.296   0.927
 7056WAT  HW2  28223   4.358   0.375   0.836
 7056WAT  MW   28224   4.438   0.359   0.867
 7057WAT  OW   28225   3.418   4.282   0.085
 7057WAT  HW1  28226   3.364   4.230   0.026
 7057WAT  HW2  28227   3.496   4.304   0.033
 7057WAT  MW   28228   3.421   4.278   0.070
 7058WAT  OW   28229   1.210   1.585   2.561
 7058WAT  HW1  28230   1.280   1.578   2.625
 7058WAT  HW2  28231   1.244   1.539   2.484
 7058WAT  MW   28232   1.223   1.578   2.559
 7059WAT  OW   28233   4.467   4.077   5.131
 7059WAT  HW1  28234   4.542   4.034   5.090
 7059WAT  HW2  28235   4.481   4.066   5.225
 7059WAT  MW   28236   4.479   4.070   5.138
 7060WAT  OW   28237   3.727   3.536   5.613
 7060WAT  HW1  28238   3.649   3.552   5.667
 7060WAT  HW2  28239   3.693   3.520   5.525
 7060WAT  MW   28240   3.712   3.536   5.609
 7061WAT  OW   28241   4.531   3.366   4.663
 7061WAT  HW1  28242   4.503   3.274   4.666
 7061WAT  HW2  28243   4.560   3.379   4.573
 7061WAT  MW   28244   4.531   3.356   4.652
 7062WAT  OW   28245   6.237   0.053   1.120
 7062WAT  HW1  28246   6.283  -0.017   1.165
 7062WAT  HW2  28247   6.234   0.026   1.028
 7062WAT  MW   28248   6.242   0.040   1.114
 7063WAT  OW   28249   4.749   0.985   0.066
 7063WAT  HW1  28250   4.772   1.078   0.056
 7063WAT  HW2  28251   4.756   0.949  -0.022
 7063WAT  MW   28252   4.753   0.993   0.053
 7064WAT  OW   28253   0.967   5.068   5.843
 7064WAT  HW1  28254   0.885   5.018   5.846
 7064WAT  HW2  28255   0.979   5.087   5.750
 7064WAT  MW   28256   0.958   5.064   5.831
 7065WAT  OW   28257   4.028   3.923   1.460
 7065WAT  HW1  28258   3.946   3.908   1.508
 7065WAT  HW2  28259   4.094   3.875   1.510
 7065WAT  MW   28260   4.026   3.915   1.473
 7066WAT  OW   28261   1.884   2.067   0.156
 7066WAT  HW1  28262   1.932   2.001   0.206
 7066WAT  HW2  28263   1.910   2.151   0.195
 7066WAT  MW   28264   1.894   2.069   0.168
 7067WAT  OW   28265   0.053   5.396   2.560
 7067WAT  HW1  28266  -0.004   5.320   2.570
 7067WAT  HW2  28267   0.033   5.430   2.473
 7067WAT  MW   28268   0.043   5.391   2.550
 7068WAT  OW   28269   0.814   3.324   0.503
 7068WAT  HW1  28270   0.740   3.276   0.466
 7068WAT  HW2  28271   0.852   3.371   0.428
 7068WAT  MW   28272   0.809   3.324   0.488
 7069WAT  OW   28273   2.132   6.182   4.318
 7069WAT  HW1  28274   2.073   6.256   4.300
 7069WAT  HW2  28275   2.087   6.106   4.281
 7069WAT  MW   28276   2.118   6.182   4.311
 7070WAT  OW   28277   2.089   6.409   5.801
 7070WAT  HW1  28278   2.122   6.439   5.717
 7070WAT  HW2  28279   2.089   6.488   5.856
 7070WAT  MW   28280   2.093   6.424   5.797
 7071WAT  OW   28281   5.554   1.815   5.803
 7071WAT  HW1  28282   5.626   1.764   5.838
 7071WAT  HW2  28283   5.527   1.871   5.876
 7071WAT  MW   28284   5.560   1.816   5.818
 7072WAT  OW   28285   4.215   4.046   2.641
 7072WAT  HW1  28286   4.307   4.071   2.632
 7072WAT  HW2  28287   4.212   3.953   2.618
 7072WAT  MW   28288   4.226   4.037   2.637
 7073WAT  OW   28289   1.496   2.725   6.298
 7073WAT  HW1  28290   1.484   2.747   6.205
 7073WAT  HW2  28291   1.431   2.778   6.344
 7073WAT  MW   28292   1.486   2.735   6.292
 7074WAT  OW   28293   4.625   1.731   1.019
 7074WAT  HW1  28294   4.604   1.825   1.015
 7074WAT  HW2  28295   4.540   1.687   1.020
 7074WAT  MW   28296   4.611   1.738   1.018
 7075WAT  OW   28297   3.374   0.926   1.191
 7075WAT  HW1  28298   3.292   0.878   1.204
 7075WAT  HW2  28299   3.407   0.895   1.107
 7075WAT  MW   28300   3.367   0.916   1.182
 7076WAT  OW   28301   1.520   4.874   5.342
 7076WAT  HW1  28302   1.433   4.836   5.327
 7076WAT  HW2  28303   1.532   4.872   5.437
 7076WAT  MW   28304   1.510   4.869   5.352
 7077WAT  OW   28305   5.413   0.609   3.518
 7077WAT  HW1  28306   5.488   0.558   3.549
 7077WAT  HW2  28307   5.340   0.580   3.573
 7077WAT  MW   28308   5.414   0.598   3.529
 7078WAT  OW   28309   4.748   4.604   3.041
 7078WAT  HW1  28310   4.728   4.524   3.090
 7078WAT  HW2  28311   4.757   4.574   2.950
 7078WAT  MW   28312   4.746   4.589   3.035
 7079WAT  OW   28313   2.655   4.342   4.871
 7079WAT  HW1  28314   2.709   4.413   4.835
 7079WAT  HW2  28315   2.593   4.321   4.801
 7079WAT  MW   28316   2.654   4.349   4.857
 7080WAT  OW   28317   0.708   4.632   0.469
 7080WAT  HW1  28318   0.745   4.544   0.480
 7080WAT  HW2  28319   0.735   4.659   0.382
 7080WAT  MW   28320   0.716   4.624   0.459
 7081WAT  OW   28321   1.165   0.821   6.584
 7081WAT  HW1  28322   1.230   0.782   6.525
 7081WAT  HW2  28323   1.130   0.895   6.535
 7081WAT  MW   28324   1.169   0.825   6.570
 7082WAT  OW   28325   4.953   5.835   2.663
 7082WAT  HW1  28326   4.987   5.805   2.579
 7082WAT  HW2  28327   5.010   5.908   2.688
 7082WAT  MW   28328   4.965   5.840   2.655
 7083WAT  OW   28329   1.146   5.521   5.723
 7083WAT  HW1  28330   1.125   5.441   5.770
 7083WAT  HW2  28331   1.174   5.582   5.791
 7083WAT  MW   28332   1.147   5.519   5.738
 7084WAT  OW   28333   1.966   2.219   3.462
 7084WAT  HW1  28334   1.891   2.232   3.403
 7084WAT  HW2  28335   2.041   2.254   3.413
 7084WAT  MW   28336   1.966   2.225   3.448
 7085WAT  OW   28337   2.169   3.736   0.541
 7085WAT  HW1  28338   2.202   3.696   0.622
 7085WAT  HW2  28339   2.177   3.667   0.475
 7085WAT  MW   28340   2.175   3.722   0.543
 7086WAT  OW   28341   3.302   3.365   1.409
 7086WAT  HW1  28342   3.325   3.440   1.463
 7086WAT  HW2  28343   3.238   3.317   1.461
 7086WAT  MW   28344   3.297   3.368   1.423
 7087WAT  OW   28345   6.415   6.473   3.873
 7087WAT  HW1  28346   6.508   6.466   3.896
 7087WAT  HW2  28347   6.370   6.429   3.944
 7087WAT  MW   28348   6.422   6.466   3.885
 7088WAT  OW   28349   6.021   6.052   0.025
 7088WAT  HW1  28350   6.097   5.994   0.034
 7088WAT  HW2  28351   6.056   6.131  -0.016
 7088WAT  MW   28352   6.035   6.055   0.021
 7089WAT  OW   28353   4.863   2.683   3.766
 7089WAT  HW1  28354   4.915   2.759   3.792
 7089WAT  HW2  28355   4.889   2.614   3.827
 7089WAT  MW   28356   4.873   2.684   3.777
 7090WAT  OW   28357   2.017   5.255   5.604
 7090WAT  HW1  28358   1.936   5.232   5.558
 7090WAT  HW2  28359   2.020   5.194   5.678
 7090WAT  MW   28360   2.007   5.244   5.608
 7091WAT  OW   28361   2.362   1.181   3.387
 7091WAT  HW1  28362   2.412   1.117   3.337
 7091WAT  HW2  28363   2.285   1.198   3.334
 7091WAT  MW   28364   2.359   1.175   3.373
 7092WAT  OW   28365   0.951   4.818   5.638
 7092WAT  HW1  28366   1.026   4.877   5.638
 7092WAT  HW2  28367   0.962   4.766   5.718
 7092WAT  MW   28368   0.962   4.819   5.649
 7093WAT  OW   28369   2.652   6.228   1.794
 7093WAT  HW1  28370   2.585   6.283   1.754
 7093WAT  HW2  28371   2.732   6.281   1.791
 7093WAT  MW   28372   2.654   6.242   1.788
 7094WAT  OW   28373   2.297   3.940   0.440
 7094WAT  HW1  28374   2.326   3.995   0.512
 7094WAT  HW2  28375   2.268   3.859   0.481
 7094WAT  MW   28376   2.297   3.936   0.455
 7095WAT  OW   28377   0.628   4.260   4.313
 7095WAT  HW1  28378   0.686   4.282   4.240
 7095WAT  HW2  28379   0.631   4.164   4.317
 7095WAT  MW   28380   0.636   4.250   4.304
 7096WAT  OW   28381   0.149   5.231   0.825
 7096WAT  HW1  28382   0.140   5.310   0.771
 7096WAT  HW2  28383   0.150   5.159   0.761
 7096WAT  MW   28384   0.148   5.232   0.809
 7097WAT  OW   28385   0.398   2.771   2.372
 7097WAT  HW1  28386   0.487   2.735   2.370
 7097WAT  HW2  28387   0.410   2.859   2.408
 7097WAT  MW   28388   0.412   2.778   2.377
 7098WAT  OW   28389   5.469   3.649   5.834
 7098WAT  HW1  28390   5.563   3.636   5.820
 7098WAT  HW2  28391   5.461   3.662   5.928
 7098WAT  MW   28392   5.481   3.649   5.844
 7099WAT  OW   28393   2.816   2.134   2.893
 7099WAT  HW1  28394   2.760   2.060   2.869
 7099WAT  HW2  28395   2.778   2.168   2.974
 7099WAT  MW   28396   2.804   2.129   2.900
 7100WAT  OW   28397   2.372   3.532   6.631
 7100WAT  HW1  28398   2.444   3.590   6.607
 7100WAT  HW2  28399   2.368   3.468   6.560
 7100WAT  MW   28400   2.381   3.531   6.619
 7101WAT  OW   28401   6.074   4.306   4.082
 7101WAT  HW1  28402   6.135   4.311   4.156
 7101WAT  HW2  28403   6.130   4.296   4.005
 7101WAT  MW   28404   6.089   4.305   4.082
 7102WAT  OW   28405   5.454   4.729   2.385
 7102WAT  HW1  28406   5.464   4.738   2.480
 7102WAT  HW2  28407   5.523   4.784   2.348
 7102WAT  MW   28408   5.465   4.737   2.393
 7103WAT  OW   28409   0.831   4.247   4.089
 7103WAT  HW1  28410   0.875   4.326   4.121
 7103WAT  HW2  28411   0.865   4.177   4.144
 7103WAT  MW   28412   0.841   4.249   4.101
 7104WAT  OW   28413   4.129   5.428   0.986
 7104WAT  HW1  28414   4.119   5.338   0.955
 7104WAT  HW2  28415   4.043   5.451   1.022
 7104WAT  MW   28416   4.116   5.419   0.987
 7105WAT  OW   28417   1.174   3.135   5.216
 7105WAT  HW1  28418   1.203   3.046   5.234
 7105WAT  HW2  28419   1.171   3.140   5.120
 7105WAT  MW   28420   1.177   3.124   5.205
 7106WAT  OW   28421   3.654   3.462   5.358
 7106WAT  HW1  28422   3.623   3.542   5.315
 7106WAT  HW2  28423   3.737   3.442   5.314
 7106WAT  MW   28424   3.661   3.470   5.346
 7107WAT  OW   28425   0.617   3.166   0.385
 7107WAT  HW1  28426   0.681   3.096   0.367
 7107WAT  HW2  28427   0.553   3.126   0.443
 7107WAT  MW   28428   0.617   3.151   0.390
 7108WAT  OW   28429   4.510   0.255   0.428
 7108WAT  HW1  28430   4.548   0.275   0.343
 7108WAT  HW2  28431   4.522   0.161   0.438
 7108WAT  MW   28432   4.516   0.245   0.418
 7109WAT  OW   28433   3.816   0.146   2.343
 7109WAT  HW1  28434   3.850   0.138   2.432
 7109WAT  HW2  28435   3.818   0.239   2.325
 7109WAT  MW   28436   3.821   0.157   2.352
 7110WAT  OW   28437   5.401   1.192   6.175
 7110WAT  HW1  28438   5.428   1.259   6.238
 7110WAT  HW2  28439   5.384   1.241   6.094
 7110WAT  MW   28440   5.402   1.207   6.173
 7111WAT  OW   28441   1.459   6.299   2.705
 7111WAT  HW1  28442   1.541   6.287   2.658
 7111WAT  HW2  28443   1.443   6.394   2.700
 7111WAT  MW   28444   1.468   6.310   2.698
 7112WAT  OW   28445   6.389   6.672   0.675
 7112WAT  HW1  28446   6.420   6.759   0.700
 7112WAT  HW2  28447   6.338   6.687   0.595
 7112WAT  MW   28448   6.386   6.685   0.668
 7113WAT  OW   28449   4.662   1.927   5.478
 7113WAT  HW1  28450   4.724   1.998   5.463
 7113WAT  HW2  28451   4.695   1.855   5.425
 7113WAT  MW   28452   4.675   1.927   5.469
 7114WAT  OW   28453   4.421   4.745   4.319
 7114WAT  HW1  28454   4.471   4.704   4.248
 7114WAT  HW2  28455   4.343   4.780   4.277
 7114WAT  MW   28456   4.418   4.744   4.304
 7115WAT  OW   28457   2.670   2.976   2.022
 7115WAT  HW1  28458   2.717   3.059   2.030
 7115WAT  HW2  28459   2.694   2.927   2.101
 7115WAT  MW   28460   2.679   2.980   2.034
 7116WAT  OW   28461   1.441   5.974   4.652
 7116WAT  HW1  28462   1.395   5.898   4.689
 7116WAT  HW2  28463   1.490   5.939   4.579
 7116WAT  MW   28464   1.441   5.960   4.648
 7117WAT  OW   28465   3.738   1.027   6.442
 7117WAT  HW1  28466   3.731   1.045   6.535
 7117WAT  HW2  28467   3.678   1.089   6.401
 7117WAT  MW   28468   3.729   1.038   6.449
 7118WAT  OW   28469   0.721   6.696   4.060
 7118WAT  HW1  28470   0.800   6.699   4.006
 7118WAT  HW2  28471   0.753   6.681   4.149
 7118WAT  MW   28472   0.735   6.694   4.065
 7119WAT  OW   28473   5.948   0.631   4.598
 7119WAT  HW1  28474   6.012   0.650   4.529
 7119WAT  HW2  28475   5.982   0.675   4.676
 7119WAT  MW   28476   5.961   0.639   4.599
 7120WAT  OW   28477   0.343   1.994   6.214
 7120WAT  HW1  28478   0.396   1.967   6.139
 7120WAT  HW2  28479   0.259   2.021   6.176
 7120WAT  MW   28480   0.339   1.994   6.199
 7121WAT  OW   28481   6.664   5.418   5.057
 7121WAT  HW1  28482   6.583   5.377   5.027
 7121WAT  HW2  28483   6.722   5.415   4.981
 7121WAT  MW   28484   6.661   5.412   5.043
 7122WAT  OW   28485   5.008   6.143   3.811
 7122WAT  HW1  28486   5.008   6.236   3.793
 7122WAT  HW2  28487   4.938   6.131   3.876
 7122WAT  MW   28488   4.999   6.153   3.817
 7123WAT  OW   28489   0.423   3.424   5.808
 7123WAT  HW1  28490   0.454   3.348   5.758
 7123WAT  HW2  28491   0.502   3.476   5.823
 7123WAT  MW   28492   0.438   3.420   5.803
 7124WAT  OW   28493   4.856   0.939   1.420
 7124WAT  HW1  28494   4.904   0.890   1.353
 7124WAT  HW2  28495   4.805   1.003   1.370
 7124WAT  MW   28496   4.855   0.941   1.404
 7125WAT  OW   28497   5.166   1.881   2.016
 7125WAT  HW1  28498   5.165   1.898   1.921
 7125WAT  HW2  28499   5.079   1.845   2.035
 7125WAT  MW   28500   5.154   1.878   2.006
 7126WAT  OW   28501   6.026   0.297   5.537
 7126WAT  HW1  28502   5.980   0.216   5.516
 7126WAT  HW2  28503   6.100   0.269   5.591
 7126WAT  MW   28504   6.030   0.283   5.541
 7127WAT  OW   28505   4.197   4.615   3.536
 7127WAT  HW1  28506   4.214   4.600   3.629
 7127WAT  HW2  28507   4.106   4.588   3.523
 7127WAT  MW   28508   4.188   4.610   3.546
 7128WAT  OW   28509   0.381   6.108   1.066
 7128WAT  HW1  28510   0.288   6.117   1.087
 7128WAT  HW2  28511   0.382   6.079   0.975
 7128WAT  MW   28512   0.369   6.105   1.057
 7129WAT  OW   28513   2.571   5.501   5.230
 7129WAT  HW1  28514   2.480   5.481   5.252
 7129WAT  HW2  28515   2.565   5.575   5.170
 7129WAT  MW   28516   2.558   5.509   5.225
 7130WAT  OW   28517   3.218   3.888   1.103
 7130WAT  HW1  28518   3.192   3.796   1.101
 7130WAT  HW2  28519   3.225   3.909   1.196
 7130WAT  MW   28520   3.216   3.879   1.115
 7131WAT  OW   28521   6.411   2.124   0.512
 7131WAT  HW1  28522   6.316   2.126   0.521
 7131WAT  HW2  28523   6.432   2.032   0.493
 7131WAT  MW   28524   6.401   2.112   0.510
 7132WAT  OW   28525   2.535   1.044   2.314
 7132WAT  HW1  28526   2.625   1.016   2.331
 7132WAT  HW2  28527   2.517   1.109   2.381
 7132WAT  MW   28528   2.544   1.049   2.325
 7133WAT  OW   28529   2.865   4.618   0.421
 7133WAT  HW1  28530   2.840   4.578   0.504
 7133WAT  HW2  28531   2.961   4.610   0.418
 7133WAT  MW   28532   2.875   4.612   0.432
 7134WAT  OW   28533   0.175   1.127   5.741
 7134WAT  HW1  28534   0.199   1.035   5.750
 7134WAT  HW2  28535   0.253   1.175   5.771
 7134WAT  MW   28536   0.189   1.121   5.746
 7135WAT  OW   28537   2.259   6.084   2.235
 7135WAT  HW1  28538   2.166   6.107   2.235
 7135WAT  HW2  28539   2.305   6.168   2.239
 7135WAT  MW   28540   2.253   6.098   2.235
 7136WAT  OW   28541   4.875   0.827   0.741
 7136WAT  HW1  28542   4.791   0.838   0.785
 7136WAT  HW2  28543   4.857   0.763   0.671
 7136WAT  MW   28544   4.862   0.820   0.738
 7137WAT  OW   28545   2.071   4.704   4.729
 7137WAT  HW1  28546   2.019   4.712   4.649
 7137WAT  HW2  28547   2.094   4.612   4.735
 7137WAT  MW   28548   2.067   4.693   4.719
 7138WAT  OW   28549   5.997   2.364   0.632
 7138WAT  HW1  28550   5.926   2.331   0.577
 7138WAT  HW2  28551   5.959   2.371   0.719
 7138WAT  MW   28552   5.983   2.361   0.636
 7139WAT  OW   28553   5.828   4.744   2.395
 7139WAT  HW1  28554   5.793   4.668   2.441
 7139WAT  HW2  28555   5.791   4.819   2.441
 7139WAT  MW   28556   5.819   4.744   2.407
 7140WAT  OW   28557   6.309   3.107   2.245
 7140WAT  HW1  28558   6.344   3.113   2.334
 7140WAT  HW2  28559   6.252   3.183   2.236
 7140WAT  MW   28560   6.306   3.118   2.256
 7141WAT  OW   28561   0.476   0.172   2.819
 7141WAT  HW1  28562   0.390   0.138   2.796
 7141WAT  HW2  28563   0.538   0.110   2.782
 7141WAT  MW   28564   0.473   0.160   2.811
 7142WAT  OW   28565   5.960   4.593   4.638
 7142WAT  HW1  28566   5.973   4.644   4.717
 7142WAT  HW2  28567   5.998   4.646   4.568
 7142WAT  MW   28568   5.967   4.606   4.639
 7143WAT  OW   28569   6.627   1.669   1.287
 7143WAT  HW1  28570   6.681   1.636   1.216
 7143WAT  HW2  28571   6.561   1.724   1.244
 7143WAT  MW   28572   6.625   1.672   1.272
 7144WAT  OW   28573   0.637   6.252   4.655
 7144WAT  HW1  28574   0.622   6.196   4.731
 7144WAT  HW2  28575   0.576   6.219   4.589
 7144WAT  MW   28576   0.627   6.240   4.656
 7145WAT  OW   28577   6.282   0.234   1.572
 7145WAT  HW1  28578   6.205   0.228   1.515
 7145WAT  HW2  28579   6.255   0.194   1.654
 7145WAT  MW   28580   6.268   0.228   1.575
 7146WAT  OW   28581   3.093   4.244   4.108
 7146WAT  HW1  28582   3.090   4.205   4.020
 7146WAT  HW2  28583   3.157   4.315   4.100
 7146WAT  MW   28584   3.101   4.248   4.095
 7147WAT  OW   28585   3.894   2.393   0.183
 7147WAT  HW1  28586   3.858   2.470   0.138
 7147WAT  HW2  28587   3.820   2.360   0.235
 7147WAT  MW   28588   3.879   2.399   0.184
 7148WAT  OW   28589   5.469   6.019   0.620
 7148WAT  HW1  28590   5.431   5.945   0.667
 7148WAT  HW2  28591   5.431   6.097   0.661
 7148WAT  MW   28592   5.459   6.020   0.631
 7149WAT  OW   28593   0.986   5.652   2.894
 7149WAT  HW1  28594   1.073   5.619   2.914
 7149WAT  HW2  28595   1.002   5.730   2.841
 7149WAT  MW   28596   1.000   5.658   2.890
 7150WAT  OW   28597   4.919   3.517   5.916
 7150WAT  HW1  28598   4.986   3.528   5.983
 7150WAT  HW2  28599   4.919   3.600   5.868
 7150WAT  MW   28600   4.928   3.529   5.919
 7151WAT  OW   28601   0.977   1.325   3.130
 7151WAT  HW1  28602   0.967   1.414   3.095
 7151WAT  HW2  28603   0.888   1.299   3.153
 7151WAT  MW   28604   0.964   1.333   3.129
 7152WAT  OW   28605   5.885   4.300   3.400
 7152WAT  HW1  28606   5.941   4.223   3.411
 7152WAT  HW2  28607   5.906   4.355   3.476
 7152WAT  MW   28608   5.895   4.297   3.412
 7153WAT  OW   28609   1.644   3.147   4.888
 7153WAT  HW1  28610   1.692   3.074   4.850
 7153WAT  HW2  28611   1.646   3.130   4.982
 7153WAT  MW   28612   1.651   3.135   4.895
 7154WAT  OW   28613   3.300   0.189   3.593
 7154WAT  HW1  28614   3.297   0.249   3.519
 7154WAT  HW2  28615   3.248   0.114   3.565
 7154WAT  MW   28616   3.293   0.187   3.580
 7155WAT  OW   28617   6.477   2.313   3.657
 7155WAT  HW1  28618   6.383   2.327   3.649
 7155WAT  HW2  28619   6.500   2.260   3.580
 7155WAT  MW   28620   6.468   2.308   3.645
 7156WAT  OW   28621   2.380   0.393   1.964
 7156WAT  HW1  28622   2.451   0.392   2.028
 7156WAT  HW2  28623   2.301   0.385   2.017
 7156WAT  MW   28624   2.379   0.392   1.980
 7157WAT  OW   28625   0.437   5.222   3.975
 7157WAT  HW1  28626   0.524   5.258   3.959
 7157WAT  HW2  28627   0.381   5.264   3.910
 7157WAT  MW   28628   0.441   5.232   3.965
 7158WAT  OW   28629   2.240   2.354   1.337
 7158WAT  HW1  28630   2.159   2.343   1.286
 7158WAT  HW2  28631   2.310   2.340   1.274
 7158WAT  MW   28632   2.238   2.351   1.322
 7159WAT  OW   28633   3.666   0.279   4.161
 7159WAT  HW1  28634   3.664   0.183   4.164
 7159WAT  HW2  28635   3.613   0.306   4.236
 7159WAT  MW   28636   3.659   0.270   4.171
 7160WAT  OW   28637   4.152   4.444   0.287
 7160WAT  HW1  28638   4.175   4.373   0.347
 7160WAT  HW2  28639   4.215   4.514   0.307
 7160WAT  MW   28640   4.164   4.444   0.297
 7161WAT  OW   28641   0.545   2.954   1.334
 7161WAT  HW1  28642   0.479   2.890   1.362
 7161WAT  HW2  28643   0.586   2.982   1.416
 7161WAT  MW   28644   0.541   2.949   1.349
 7162WAT  OW   28645   1.283   3.697   0.929
 7162WAT  HW1  28646   1.220   3.757   0.889
 7162WAT  HW2  28647   1.231   3.622   0.956
 7162WAT  MW   28648   1.268   3.695   0.927
 7163WAT  OW   28649   0.330   1.373   5.739
 7163WAT  HW1  28650   0.250   1.373   5.686
 7163WAT  HW2  28651   0.399   1.402   5.680
 7163WAT  MW   28652   0.328   1.377   5.724
 7164WAT  OW   28653   1.551   3.393   5.649
 7164WAT  HW1  28654   1.502   3.365   5.727
 7164WAT  HW2  28655   1.579   3.311   5.608
 7164WAT  MW   28656   1.548   3.378   5.654
 7165WAT  OW   28657   4.039   0.124   4.082
 7165WAT  HW1  28658   4.080   0.196   4.034
 7165WAT  HW2  28659   4.099   0.050   4.069
 7165WAT  MW   28660   4.053   0.123   4.074
 7166WAT  OW   28661   5.710   3.469   6.633
 7166WAT  HW1  28662   5.703   3.391   6.689
 7166WAT  HW2  28663   5.802   3.494   6.637
 7166WAT  MW   28664   5.721   3.462   6.641
 7167WAT  OW   28665   2.180   2.546   3.233
 7167WAT  HW1  28666   2.255   2.581   3.186
 7167WAT  HW2  28667   2.141   2.621   3.277
 7167WAT  MW   28668   2.185   2.560   3.232
 7168WAT  OW   28669   5.901   5.181   5.829
 7168WAT  HW1  28670   5.925   5.269   5.857
 7168WAT  HW2  28671   5.845   5.195   5.752
 7168WAT  MW   28672   5.897   5.194   5.822
 7169WAT  OW   28673   2.886   4.495   2.602
 7169WAT  HW1  28674   2.867   4.457   2.516
 7169WAT  HW2  28675   2.982   4.494   2.608
 7169WAT  MW   28676   2.896   4.490   2.592
 7170WAT  OW   28677   5.774   6.284   3.135
 7170WAT  HW1  28678   5.810   6.362   3.094
 7170WAT  HW2  28679   5.704   6.256   3.076
 7170WAT  MW   28680   5.769   6.291   3.122
 7171WAT  OW   28681   3.766   0.841   2.582
 7171WAT  HW1  28682   3.765   0.746   2.570
 7171WAT  HW2  28683   3.677   0.869   2.562
 7171WAT  MW   28684   3.754   0.832   2.578
 7172WAT  OW   28685   1.639   1.753   1.617
 7172WAT  HW1  28686   1.649   1.814   1.690
 7172WAT  HW2  28687   1.545   1.746   1.604
 7172WAT  MW   28688   1.628   1.760   1.625
 7173WAT  OW   28689   0.812   4.159   3.653
 7173WAT  HW1  28690   0.767   4.227   3.604
 7173WAT  HW2  28691   0.904   4.185   3.652
 7173WAT  MW   28692   0.819   4.171   3.647
 7174WAT  OW   28693   0.495   2.929   2.038
 7174WAT  HW1  28694   0.542   2.895   1.962
 7174WAT  HW2  28695   0.402   2.912   2.019
 7174WAT  MW   28696   0.489   2.922   2.025
 7175WAT  OW   28697   3.455   5.924   6.063
 7175WAT  HW1  28698   3.459   5.933   6.158
 7175WAT  HW2  28699   3.488   5.836   6.046
 7175WAT  MW   28700   3.460   5.914   6.073
 7176WAT  OW   28701   5.615   3.134   2.030
 7176WAT  HW1  28702   5.646   3.185   1.955
 7176WAT  HW2  28703   5.542   3.083   1.995
 7176WAT  MW   28704   5.609   3.134   2.016
 7177WAT  OW   28705   2.090   6.316   3.963
 7177WAT  HW1  28706   2.034   6.384   3.925
 7177WAT  HW2  28707   2.030   6.253   4.003
 7177WAT  MW   28708   2.075   6.317   3.963
 7178WAT  OW   28709   1.111   0.269   1.157
 7178WAT  HW1  28710   1.040   0.265   1.221
 7178WAT  HW2  28711   1.169   0.338   1.189
 7178WAT  MW   28712   1.109   0.277   1.169
 7179WAT  OW   28713   0.726   2.974   4.024
 7179WAT  HW1  28714   0.638   2.947   3.998
 7179WAT  HW2  28715   0.724   3.070   4.021
 7179WAT  MW   28716   0.714   2.983   4.020
 7180WAT  OW   28717   4.310   5.177   5.243
 7180WAT  HW1  28718   4.279   5.088   5.258
 7180WAT  HW2  28719   4.325   5.181   5.148
 7180WAT  MW   28720   4.308   5.166   5.232
 7181WAT  OW   28721   3.069   0.370   4.693
 7181WAT  HW1  28722   3.130   0.360   4.765
 7181WAT  HW2  28723   2.993   0.414   4.732
 7181WAT  MW   28724   3.067   0.375   4.707
 7182WAT  OW   28725   2.674   1.902   2.869
 7182WAT  HW1  28726   2.645   1.948   2.790
 7182WAT  HW2  28727   2.603   1.842   2.890
 7182WAT  MW   28728   2.661   1.900   2.861
 7183WAT  OW   28729   0.185   3.821   3.494
 7183WAT  HW1  28730   0.162   3.902   3.448
 7183WAT  HW2  28731   0.127   3.819   3.570
 7183WAT  MW   28732   0.174   3.831   3.498
 7184WAT  OW   28733   1.594   0.785   0.403
 7184WAT  HW1  28734   1.584   0.724   0.331
 7184WAT  HW2  28735   1.655   0.852   0.371
 7184WAT  MW   28736   1.600   0.786   0.389
 7185WAT  OW   28737   5.706   6.269   4.502
 7185WAT  HW1  28738   5.617   6.304   4.491
 7185WAT  HW2  28739   5.763   6.346   4.497
 7185WAT  MW   28740   5.702   6.284   4.500
 7186WAT  OW   28741   4.518   1.196   4.562
 7186WAT  HW1  28742   4.599   1.156   4.530
 7186WAT  HW2  28743   4.481   1.240   4.485
 7186WAT  MW   28744   4.524   1.197   4.547
 7187WAT  OW   28745   5.300   4.966   6.142
 7187WAT  HW1  28746   5.372   5.028   6.130
 7187WAT  HW2  28747   5.244   5.007   6.209
 7187WAT  MW   28748   5.302   4.980   6.149
 7188WAT  OW   28749   3.030   2.482   2.807
 7188WAT  HW1  28750   2.980   2.497   2.888
 7188WAT  HW2  28751   2.970   2.434   2.750
 7188WAT  MW   28752   3.015   2.478   2.810
 7189WAT  OW   28753   4.985   1.766   4.012
 7189WAT  HW1  28754   5.058   1.718   4.050
 7189WAT  HW2  28755   5.026   1.825   3.948
 7189WAT  MW   28756   5.000   1.768   4.008
 7190WAT  OW   28757   2.577   2.481   4.653
 7190WAT  HW1  28758   2.607   2.545   4.589
 7190WAT  HW2  28759   2.589   2.397   4.610
 7190WAT  MW   28760   2.583   2.478   4.639
 7191WAT  OW   28761   3.789   3.987   6.310
 7191WAT  HW1  28762   3.885   3.980   6.305
 7191WAT  HW2  28763   3.774   4.050   6.380
 7191WAT  MW   28764   3.800   3.995   6.318
 7192WAT  OW   28765   2.635   5.308   4.180
 7192WAT  HW1  28766   2.619   5.264   4.264
 7192WAT  HW2  28767   2.676   5.391   4.204
 7192WAT  MW   28768   2.638   5.313   4.194
 7193WAT  OW   28769   1.915   6.263   0.772
 7193WAT  HW1  28770   1.824   6.263   0.800
 7193WAT  HW2  28771   1.935   6.170   0.759
 7193WAT  MW   28772   1.906   6.250   0.774
 7194WAT  OW   28773   5.156   3.973   2.901
 7194WAT  HW1  28774   5.242   4.011   2.915
 7194WAT  HW2  28775   5.161   3.931   2.816
 7194WAT  MW   28776   5.168   3.973   2.892
 7195WAT  OW   28777   1.885   4.811   6.152
 7195WAT  HW1  28778   1.921   4.727   6.124
 7195WAT  HW2  28779   1.916   4.873   6.087
 7195WAT  MW   28780   1.894   4.808   6.140
 7196WAT  OW   28781   1.376   0.985   3.953
 7196WAT  HW1  28782   1.395   0.913   4.013
 7196WAT  HW2  28783   1.356   0.942   3.870
 7196WAT  MW   28784   1.376   0.970   3.950
 7197WAT  OW   28785   4.554   1.871   2.212
 7197WAT  HW1  28786   4.515   1.797   2.166
 7197WAT  HW2  28787   4.566   1.841   2.301
 7197WAT  MW   28788   4.550   1.857   2.217
 7198WAT  OW   28789   0.629   2.276   3.763
 7198WAT  HW1  28790   0.634   2.195   3.814
 7198WAT  HW2  28791   0.697   2.266   3.696
 7198WAT  MW   28792   0.639   2.264   3.761
 7199WAT  OW   28793   3.692   3.778   2.744
 7199WAT  HW1  28794   3.732   3.722   2.677
 7199WAT  HW2  28795   3.722   3.866   2.721
 7199WAT  MW   28796   3.702   3.782   2.732
 7200WAT  OW   28797   0.100   6.226   0.828
 7200WAT  HW1  28798   0.112   6.137   0.862
 7200WAT  HW2  28799   0.023   6.259   0.874
 7200WAT  MW   28800   0.091   6.218   0.838
 7201WAT  OW   28801   3.091   4.700   3.387
 7201WAT  HW1  28802   3.049   4.615   3.394
 7201WAT  HW2  28803   3.038   4.748   3.322
 7201WAT  MW   28804   3.079   4.695   3.379
 7202WAT  OW   28805   6.107   3.884   0.165
 7202WAT  HW1  28806   6.036   3.905   0.105
 7202WAT  HW2  28807   6.107   3.955   0.229
 7202WAT  MW   28808   6.098   3.896   0.166
 7203WAT  OW   28809   4.295   2.522   4.753
 7203WAT  HW1  28810   4.359   2.463   4.792
 7203WAT  HW2  28811   4.259   2.571   4.828
 7203WAT  MW   28812   4.299   2.521   4.768
 7204WAT  OW   28813   3.456   2.751   6.381
 7204WAT  HW1  28814   3.398   2.763   6.457
 7204WAT  HW2  28815   3.435   2.663   6.350
 7204WAT  MW   28816   3.445   2.741   6.387
 7205WAT  OW   28817   1.227   5.401   6.581
 7205WAT  HW1  28818   1.136   5.427   6.568
 7205WAT  HW2  28819   1.277   5.481   6.564
 7205WAT  MW   28820   1.221   5.415   6.577
 7206WAT  OW   28821   5.040   5.063   4.485
 7206WAT  HW1  28822   5.123   5.065   4.438
 7206WAT  HW2  28823   5.004   4.976   4.466
 7206WAT  MW   28824   5.046   5.051   4.477
 7207WAT  OW   28825   5.524   4.408   1.414
 7207WAT  HW1  28826   5.497   4.417   1.323
 7207WAT  HW2  28827   5.565   4.493   1.435
 7207WAT  MW   28828   5.526   4.421   1.405
 7208WAT  OW   28829   4.732   6.250   3.635
 7208WAT  HW1  28830   4.645   6.208   3.641
 7208WAT  HW2  28831   4.793   6.176   3.629
 7208WAT  MW   28832   4.728   6.235   3.635
 7209WAT  OW   28833   3.640   0.665   6.619
 7209WAT  HW1  28834   3.596   0.700   6.542
 7209WAT  HW2  28835   3.585   0.592   6.647
 7209WAT  MW   28836   3.627   0.660   6.612
 7210WAT  OW   28837   1.855   3.718   6.614
 7210WAT  HW1  28838   1.945   3.714   6.648
 7210WAT  HW2  28839   1.800   3.717   6.692
 7210WAT  MW   28840   1.860   3.717   6.629
 7211WAT  OW   28841   1.790   4.796   5.813
 7211WAT  HW1  28842   1.707   4.824   5.850
 7211WAT  HW2  28843   1.792   4.701   5.827
 7211WAT  MW   28844   1.780   4.787   5.820
 7212WAT  OW   28845   1.033   5.572   1.994
 7212WAT  HW1  28846   1.103   5.532   1.941
 7212WAT  HW2  28847   0.955   5.521   1.973
 7212WAT  MW   28848   1.032   5.560   1.984
 7213WAT  OW   28849   2.007   4.150   0.503
 7213WAT  HW1  28850   2.035   4.215   0.568
 7213WAT  HW2  28851   2.009   4.067   0.550
 7213WAT  MW   28852   2.011   4.148   0.518
 7214WAT  OW   28853   3.406   2.082   6.437
 7214WAT  HW1  28854   3.315   2.077   6.466
 7214WAT  HW2  28855   3.431   2.173   6.454
 7214WAT  MW   28856   3.397   2.093   6.443
 7215WAT  OW   28857   5.451   4.022   1.020
 7215WAT  HW1  28858   5.496   3.937   1.017
 7215WAT  HW2  28859   5.509   4.081   0.971
 7215WAT  MW   28860   5.465   4.018   1.013
 7216WAT  OW   28861   2.236   4.481   4.738
 7216WAT  HW1  28862   2.297   4.554   4.749
 7216WAT  HW2  28863   2.232   4.440   4.825
 7216WAT  MW   28864   2.243   4.485   4.751
 7217WAT  OW   28865   5.534   5.348   5.206
 7217WAT  HW1  28866   5.513   5.397   5.127
 7217WAT  HW2  28867   5.531   5.256   5.179
 7217WAT  MW   28868   5.531   5.342   5.192
 7218WAT  OW   28869   5.096   2.009   5.039
 7218WAT  HW1  28870   5.061   1.943   5.099
 7218WAT  HW2  28871   5.128   2.079   5.095
 7218WAT  MW   28872   5.096   2.009   5.054
 7219WAT  OW   28873   5.141   6.576   2.667
 7219WAT  HW1  28874   5.110   6.642   2.728
 7219WAT  HW2  28875   5.088   6.589   2.588
 7219WAT  MW   28876   5.130   6.586   2.665
 7220WAT  OW   28877   3.036   0.380   2.584
 7220WAT  HW1  28878   2.953   0.347   2.551
 7220WAT  HW2  28879   3.058   0.453   2.525
 7220WAT  MW   28880   3.028   0.386   2.572
 7221WAT  OW   28881   4.194   1.719   5.848
 7221WAT  HW1  28882   4.162   1.806   5.871
 7221WAT  HW2  28883   4.115   1.665   5.844
 7221WAT  MW   28884   4.179   1.724   5.850
 7222WAT  OW   28885   5.602   4.951   5.338
 7222WAT  HW1  28886   5.667   4.890   5.304
 7222WAT  HW2  28887   5.559   4.987   5.260
 7222WAT  MW   28888   5.605   4.948   5.323
 7223WAT  OW   28889   3.735   3.020   1.025
 7223WAT  HW1  28890   3.734   3.115   1.010
 7223WAT  HW2  28891   3.691   2.983   0.948
 7223WAT  MW   28892   3.729   3.028   1.013
 7224WAT  OW   28893   4.745   3.289   3.362
 7224WAT  HW1  28894   4.814   3.231   3.395
 7224WAT  HW2  28895   4.779   3.378   3.376
 7224WAT  MW   28896   4.759   3.293   3.368
 7225WAT  OW   28897   0.860   6.235   0.627
 7225WAT  HW1  28898   0.812   6.155   0.603
 7225WAT  HW2  28899   0.894   6.217   0.715
 7225WAT  MW   28900   0.858   6.222   0.636
 7226WAT  OW   28901   1.046   4.020   5.353
 7226WAT  HW1  28902   1.110   4.088   5.373
 7226WAT  HW2  28903   1.076   3.983   5.270
 7226WAT  MW   28904   1.058   4.024   5.344
 7227WAT  OW   28905   0.442   4.305   6.185
 7227WAT  HW1  28906   0.474   4.394   6.203
 7227WAT  HW2  28907   0.361   4.298   6.235
 7227WAT  MW   28908   0.436   4.316   6.194
 7228WAT  OW   28909   4.795   1.055   5.338
 7228WAT  HW1  28910   4.736   1.129   5.324
 7228WAT  HW2  28911   4.815   1.023   5.250
 7228WAT  MW   28912   4.790   1.060   5.324
 7229WAT  OW   28913   0.630   0.385   6.285
 7229WAT  HW1  28914   0.661   0.348   6.367
 7229WAT  HW2  28915   0.627   0.310   6.225
 7229WAT  MW   28916   0.634   0.370   6.288
 7230WAT  OW   28917   1.049   2.834   6.270
 7230WAT  HW1  28918   0.967   2.867   6.309
 7230WAT  HW2  28919   1.107   2.821   6.345
 7230WAT  MW   28920   1.046   2.837   6.285
 7231WAT  OW   28921   1.756   0.977   0.286
 7231WAT  HW1  28922   1.837   0.932   0.310
 7231WAT  HW2  28923   1.766   1.065   0.321
 7231WAT  MW   28924   1.768   0.983   0.293
 7232WAT  OW   28925   1.285   1.696   4.314
 7232WAT  HW1  28926   1.211   1.662   4.264
 7232WAT  HW2  28927   1.254   1.700   4.404
 7232WAT  MW   28928   1.271   1.692   4.319
 7233WAT  OW   28929   1.480   3.586   0.525
 7233WAT  HW1  28930   1.438   3.575   0.610
 7233WAT  HW2  28931   1.562   3.630   0.544
 7233WAT  MW   28932   1.485   3.590   0.538
 7234WAT  OW   28933   6.051   1.400   2.185
 7234WAT  HW1  28934   6.088   1.481   2.220
 7234WAT  HW2  28935   6.112   1.332   2.212
 7234WAT  MW   28936   6.064   1.401   2.193
 7235WAT  OW   28937   0.675   1.881   4.765
 7235WAT  HW1  28938   0.632   1.943   4.824
 7235WAT  HW2  28939   0.621   1.883   4.686
 7235WAT  MW   28940   0.662   1.889   4.762
 7236WAT  OW   28941   1.533   3.824   6.337
 7236WAT  HW1  28942   1.573   3.737   6.333
 7236WAT  HW2  28943   1.439   3.807   6.331
 7236WAT  MW   28944   1.526   3.810   6.336
 7237WAT  OW   28945   3.325   2.777   2.945
 7237WAT  HW1  28946   3.341   2.684   2.935
 7237WAT  HW2  28947   3.316   2.790   3.040
 7237WAT  MW   28948   3.326   2.767   2.957
 7238WAT  OW   28949   2.592   3.905   3.523
 7238WAT  HW1  28950   2.571   3.959   3.447
 7238WAT  HW2  28951   2.687   3.910   3.530
 7238WAT  MW   28952   2.602   3.913   3.514
 7239WAT  OW   28953   3.874   1.981   0.997
 7239WAT  HW1  28954   3.843   1.916   1.060
 7239WAT  HW2  28955   3.949   2.021   1.040
 7239WAT  MW   28956   3.880   1.978   1.011
 7240WAT  OW   28957   5.135   4.908   3.163
 7240WAT  HW1  28958   5.128   5.003   3.166
 7240WAT  HW2  28959   5.191   4.886   3.237
 7240WAT  MW   28960   5.141   4.917   3.173
 7241WAT  OW   28961   1.260   6.412   5.338
 7241WAT  HW1  28962   1.336   6.468   5.326
 7241WAT  HW2  28963   1.231   6.430   5.427
 7241WAT  MW   28964   1.266   6.422   5.348
 7242WAT  OW   28965   5.539   2.987   2.526
 7242WAT  HW1  28966   5.518   2.894   2.521
 7242WAT  HW2  28967   5.466   3.030   2.480
 7242WAT  MW   28968   5.526   2.981   2.519
 7243WAT  OW   28969   3.509   0.420   2.061
 7243WAT  HW1  28970   3.477   0.335   2.093
 7243WAT  HW2  28971   3.476   0.426   1.972
 7243WAT  MW   28972   3.501   0.409   2.054
 7244WAT  OW   28973   0.696   2.687   0.387
 7244WAT  HW1  28974   0.645   2.680   0.468
 7244WAT  HW2  28975   0.634   2.662   0.318
 7244WAT  MW   28976   0.681   2.683   0.388
 7245WAT  OW   28977   6.694   1.996   1.423
 7245WAT  HW1  28978   6.608   2.013   1.384
 7245WAT  HW2  28979   6.713   2.074   1.475
 7245WAT  MW   28980   6.685   2.008   1.425
 7246WAT  OW   28981   0.485   2.102   1.170
 7246WAT  HW1  28982   0.457   2.094   1.262
 7246WAT  HW2  28983   0.410   2.072   1.120
 7246WAT  MW   28984   0.471   2.097   1.176
 7247WAT  OW   28985   3.184   3.618   0.473
 7247WAT  HW1  28986   3.263   3.646   0.426
 7247WAT  HW2  28987   3.217   3.582   0.555
 7247WAT  MW   28988   3.199   3.617   0.477
 7248WAT  OW   28989   3.643   4.465   3.620
 7248WAT  HW1  28990   3.625   4.402   3.690
 7248WAT  HW2  28991   3.634   4.413   3.540
 7248WAT  MW   28992   3.640   4.450   3.619
 7249WAT  OW   28993   0.913   0.358   2.304
 7249WAT  HW1  28994   0.855   0.431   2.280
 7249WAT  HW2  28995   0.990   0.370   2.247
 7249WAT  MW   28996   0.916   0.369   2.293
 7250WAT  OW   28997   6.636   0.317   6.164
 7250WAT  HW1  28998   6.722   0.330   6.125
 7250WAT  HW2  28999   6.647   0.336   6.257
 7250WAT  MW   29000   6.649   0.321   6.171
 7251WAT  OW   29001   0.746   0.942   1.050
 7251WAT  HW1  29002   0.685   0.892   0.996
 7251WAT  HW2  29003   0.766   1.020   0.998
 7251WAT  MW   29004   0.741   0.946   1.036
 7252WAT  OW   29005   0.349   1.622   5.954
 7252WAT  HW1  29006   0.335   1.560   5.882
 7252WAT  HW2  29007   0.425   1.674   5.926
 7252WAT  MW   29008   0.357   1.621   5.941
 7253WAT  OW   29009   6.146   2.271   5.846
 7253WAT  HW1  29010   6.155   2.345   5.907
 7253WAT  HW2  29011   6.102   2.203   5.897
 7253WAT  MW   29012   6.141   2.272   5.861
 7254WAT  OW   29013   4.809   6.696   6.060
 7254WAT  HW1  29014   4.790   6.605   6.086
 7254WAT  HW2  29015   4.808   6.695   5.965
 7254WAT  MW   29016   4.807   6.684   6.051
 7255WAT  OW   29017   0.674   6.352   5.400
 7255WAT  HW1  29018   0.766   6.336   5.421
 7255WAT  HW2  29019   0.675   6.371   5.306
 7255WAT  MW   29020   0.687   6.353   5.390
 7256WAT  OW   29021   4.502   4.077   3.808
 7256WAT  HW1  29022   4.447   4.048   3.735
 7256WAT  HW2  29023   4.506   4.172   3.799
 7256WAT  MW   29024   4.495   4.086   3.797
 7257WAT  OW   29025   1.662   3.475   5.261
 7257WAT  HW1  29026   1.653   3.545   5.326
 7257WAT  HW2  29027   1.666   3.520   5.177
 7257WAT  MW   29028   1.661   3.490   5.259
 7258WAT  OW   29029   6.033   2.686   0.915
 7258WAT  HW1  29030   5.946   2.658   0.944
 7258WAT  HW2  29031   6.017   2.763   0.861
 7258WAT  MW   29032   6.019   2.692   0.912
 7259WAT  OW   29033   6.591   4.657   4.199
 7259WAT  HW1  29034   6.587   4.565   4.228
 7259WAT  HW2  29035   6.521   4.664   4.134
 7259WAT  MW   29036   6.581   4.645   4.194
 7260WAT  OW   29037   6.250   5.724   5.865
 7260WAT  HW1  29038   6.332   5.769   5.885
 7260WAT  HW2  29039   6.278   5.637   5.835
 7260WAT  MW   29040   6.265   5.718   5.864
 7261WAT  OW   29041   1.422   6.613   2.941
 7261WAT  HW1  29042   1.387   6.610   2.852
 7261WAT  HW2  29043   1.349   6.588   2.997
 7261WAT  MW   29044   1.408   6.609   2.937
 7262WAT  OW   29045   2.060   1.378   2.602
 7262WAT  HW1  29046   1.977   1.344   2.634
 7262WAT  HW2  29047   2.114   1.301   2.589
 7262WAT  MW   29048   2.056   1.364   2.604
 7263WAT  OW   29049   1.390   4.981   3.532
 7263WAT  HW1  29050   1.312   5.012   3.486
 7263WAT  HW2  29051   1.460   5.039   3.501
 7263WAT  MW   29052   1.389   4.993   3.522
 7264WAT  OW   29053   1.742   3.064   4.001
 7264WAT  HW1  29054   1.702   2.978   3.998
 7264WAT  HW2  29055   1.736   3.091   4.092
 7264WAT  MW   29056   1.736   3.056   4.013
 7265WAT  OW   29057   6.514   1.595   5.531
 7265WAT  HW1  29058   6.565   1.520   5.563
 7265WAT  HW2  29059   6.550   1.670   5.577
 7265WAT  MW   29060   6.525   1.595   5.541
 7266WAT  OW   29061   3.421   1.060   2.726
 7266WAT  HW1  29062   3.452   0.992   2.666
 7266WAT  HW2  29063   3.453   1.142   2.689
 7266WAT  MW   29064   3.429   1.061   2.714
 7267WAT  OW   29065   0.512   4.675   4.975
 7267WAT  HW1  29066   0.562   4.737   5.028
 7267WAT  HW2  29067   0.457   4.628   5.038
 7267WAT  MW   29068   0.512   4.677   4.990
 7268WAT  OW   29069   4.392   6.079   5.348
 7268WAT  HW1  29070   4.405   6.070   5.253
 7268WAT  HW2  29071   4.459   6.022   5.386
 7268WAT  MW   29072   4.403   6.070   5.340
 7269WAT  OW   29073   2.422   5.083   3.028
 7269WAT  HW1  29074   2.342   5.050   3.068
 7269WAT  HW2  29075   2.427   5.174   3.056
 7269WAT  MW   29076   2.412   5.091   3.037
 7270WAT  OW   29077   3.218   2.211   0.572
 7270WAT  HW1  29078   3.201   2.302   0.551
 7270WAT  HW2  29079   3.241   2.170   0.488
 7270WAT  MW   29080   3.219   2.217   0.558
 7271WAT  OW   29081   1.411   3.325   2.689
 7271WAT  HW1  29082   1.399   3.283   2.603
 7271WAT  HW2  29083   1.408   3.253   2.752
 7271WAT  MW   29084   1.409   3.310   2.686
 7272WAT  OW   29085   5.357   1.491   2.841
 7272WAT  HW1  29086   5.274   1.537   2.830
 7272WAT  HW2  29087   5.411   1.522   2.768
 7272WAT  MW   29088   5.353   1.501   2.830
 7273WAT  OW   29089   6.643   3.207   3.021
 7273WAT  HW1  29090   6.707   3.225   3.090
 7273WAT  HW2  29091   6.580   3.147   3.061
 7273WAT  MW   29092   6.643   3.202   3.035
 7274WAT  OW   29093   2.865   3.774   6.371
 7274WAT  HW1  29094   2.886   3.682   6.388
 7274WAT  HW2  29095   2.769   3.779   6.380
 7274WAT  MW   29096   2.855   3.763   6.375
 7275WAT  OW   29097   4.856   2.194   0.178
 7275WAT  HW1  29098   4.840   2.284   0.206
 7275WAT  HW2  29099   4.917   2.159   0.243
 7275WAT  MW   29100   4.862   2.201   0.190
 7276WAT  OW   29101   5.315   3.883   1.837
 7276WAT  HW1  29102   5.233   3.932   1.834
 7276WAT  HW2  29103   5.298   3.811   1.897
 7276WAT  MW   29104   5.302   3.880   1.845
 7277WAT  OW   29105   3.494   6.058   1.445
 7277WAT  HW1  29106   3.490   6.050   1.540
 7277WAT  HW2  29107   3.571   6.111   1.428
 7277WAT  MW   29108   3.504   6.064   1.455
 7278WAT  OW   29109   2.296   1.642   3.112
 7278WAT  HW1  29110   2.380   1.640   3.157
 7278WAT  HW2  29111   2.293   1.561   3.062
 7278WAT  MW   29112   2.306   1.631   3.111
 7279WAT  OW   29113   3.758   1.396   6.191
 7279WAT  HW1  29114   3.755   1.407   6.286
 7279WAT  HW2  29115   3.676   1.433   6.159
 7279WAT  MW   29116   3.747   1.402   6.199
 7280WAT  OW   29117   5.222   3.178   3.804
 7280WAT  HW1  29118   5.149   3.202   3.747
 7280WAT  HW2  29119   5.278   3.256   3.806
 7280WAT  MW   29120   5.220   3.191   3.797
 7281WAT  OW   29121   5.617   0.128   5.606
 7281WAT  HW1  29122   5.699   0.106   5.651
 7281WAT  HW2  29123   5.618   0.223   5.597
 7281WAT  MW   29124   5.628   0.137   5.611
 7282WAT  OW   29125   4.098   0.412   0.632
 7282WAT  HW1  29126   4.137   0.497   0.613
 7282WAT  HW2  29127   4.070   0.418   0.723
 7282WAT  MW   29128   4.099   0.424   0.641
 7283WAT  OW   29129   4.306   2.818   5.837
 7283WAT  HW1  29130   4.258   2.793   5.758
 7283WAT  HW2  29131   4.343   2.736   5.870
 7283WAT  MW   29132   4.305   2.804   5.831
 7284WAT  OW   29133   1.001   4.947   5.345
 7284WAT  HW1  29134   0.992   4.852   5.352
 7284WAT  HW2  29135   0.981   4.966   5.253
 7284WAT  MW   29136   0.997   4.937   5.334
 7285WAT  OW   29137   6.447   3.353   3.187
 7285WAT  HW1  29138   6.486   3.426   3.236
 7285WAT  HW2  29139   6.459   3.277   3.243
 7285WAT  MW   29140   6.454   3.353   3.201
 7286WAT  OW   29141   1.833   5.609   6.417
 7286WAT  HW1  29142   1.926   5.585   6.414
 7286WAT  HW2  29143   1.788   5.536   6.374
 7286WAT  MW   29144   1.839   5.596   6.411
 7287WAT  OW   29145   0.979   6.046   3.872
 7287WAT  HW1  29146   0.927   5.966   3.859
 7287WAT  HW2  29147   0.940   6.088   3.949
 7287WAT  MW   29148   0.967   6.041   3.880
 7288WAT  OW   29149   4.406   1.433   3.613
 7288WAT  HW1  29150   4.466   1.402   3.545
 7288WAT  HW2  29151   4.417   1.528   3.614
 7288WAT  MW   29152   4.415   1.441   3.604
 7289WAT  OW   29153   3.975   5.610   1.341
 7289WAT  HW1  29154   3.957   5.587   1.250
 7289WAT  HW2  29155   3.932   5.542   1.392
 7289WAT  MW   29156   3.967   5.598   1.336
 7290WAT  OW   29157   6.153   1.454   1.083
 7290WAT  HW1  29158   6.220   1.453   1.151
 7290WAT  HW2  29159   6.085   1.512   1.117
 7290WAT  MW   29160   6.153   1.461   1.097
 7291WAT  OW   29161   2.471   5.701   3.339
 7291WAT  HW1  29162   2.564   5.688   3.323
 7291WAT  HW2  29163   2.467   5.764   3.411
 7291WAT  MW   29164   2.482   5.708   3.346
 7292WAT  OW   29165   5.041   1.067   1.573
 7292WAT  HW1  29166   4.969   1.044   1.514
 7292WAT  HW2  29167   4.999   1.080   1.658
 7292WAT  MW   29168   5.026   1.066   1.576
 7293WAT  OW   29169   1.871   5.477   4.536
 7293WAT  HW1  29170   1.961   5.510   4.541
 7293WAT  HW2  29171   1.826   5.540   4.480
 7293WAT  MW   29172   1.877   5.489   4.529
 7294WAT  OW   29173   2.124   3.804   1.857
 7294WAT  HW1  29174   2.184   3.772   1.925
 7294WAT  HW2  29175   2.089   3.885   1.893
 7294WAT  MW   29176   2.127   3.811   1.871
 7295WAT  OW   29177   6.600   2.548   3.744
 7295WAT  HW1  29178   6.538   2.478   3.721
 7295WAT  HW2  29179   6.675   2.502   3.780
 7295WAT  MW   29180   6.602   2.533   3.746
 7296WAT  OW   29181   3.568   2.045   0.344
 7296WAT  HW1  29182   3.583   1.989   0.268
 7296WAT  HW2  29183   3.474   2.064   0.341
 7296WAT  MW   29184   3.558   2.040   0.333
 7297WAT  OW   29185   3.868   6.349   3.067
 7297WAT  HW1  29186   3.941   6.377   3.012
 7297WAT  HW2  29187   3.879   6.399   3.148
 7297WAT  MW   29188   3.879   6.359   3.071
 7298WAT  OW   29189   1.274   0.775   0.647
 7298WAT  HW1  29190   1.298   0.682   0.653
 7298WAT  HW2  29191   1.310   0.803   0.563
 7298WAT  MW   29192   1.282   0.766   0.637
 7299WAT  OW   29193   0.963   3.270   2.591
 7299WAT  HW1  29194   1.007   3.336   2.538
 7299WAT  HW2  29195   0.998   3.187   2.559
 7299WAT  MW   29196   0.974   3.268   2.580
 7300WAT  OW   29197   0.726   4.280   2.363
 7300WAT  HW1  29198   0.779   4.301   2.440
 7300WAT  HW2  29199   0.745   4.189   2.344
 7300WAT  MW   29200   0.735   4.271   2.371
 7301WAT  OW   29201   4.089   2.400   2.288
 7301WAT  HW1  29202   4.015   2.343   2.310
 7301WAT  HW2  29203   4.160   2.370   2.344
 7301WAT  MW   29204   4.089   2.388   2.299
 7302WAT  OW   29205   1.062   2.906   5.922
 7302WAT  HW1  29206   1.153   2.915   5.893
 7302WAT  HW2  29207   1.045   2.986   5.971
 7302WAT  MW   29208   1.072   2.917   5.924
 7303WAT  OW   29209   0.286   6.614   1.639
 7303WAT  HW1  29210   0.215   6.679   1.644
 7303WAT  HW2  29211   0.252   6.539   1.689
 7303WAT  MW   29212   0.272   6.613   1.646
 7304WAT  OW   29213   3.818   3.909   1.632
 7304WAT  HW1  29214   3.750   3.916   1.566
 7304WAT  HW2  29215   3.792   3.835   1.687
 7304WAT  MW   29216   3.806   3.900   1.631
 7305WAT  OW   29217   6.057   2.755   6.495
 7305WAT  HW1  29218   6.079   2.685   6.557
 7305WAT  HW2  29219   5.988   2.717   6.440
 7305WAT  MW   29220   6.051   2.741   6.496
 7306WAT  OW   29221   4.025   2.034   5.454
 7306WAT  HW1  29222   4.106   1.983   5.454
 7306WAT  HW2  29223   4.033   2.091   5.378
 7306WAT  MW   29224   4.037   2.035   5.444
 7307WAT  OW   29225   0.627   0.602   4.097
 7307WAT  HW1  29226   0.621   0.589   4.192
 7307WAT  HW2  29227   0.714   0.640   4.084
 7307WAT  MW   29228   0.638   0.605   4.108
 7308WAT  OW   29229   0.564   4.071   6.214
 7308WAT  HW1  29230   0.634   4.084   6.278
 7308WAT  HW2  29231   0.516   4.153   6.213
 7308WAT  MW   29232   0.567   4.083   6.222
 7309WAT  OW   29233   1.528   4.326   2.559
 7309WAT  HW1  29234   1.504   4.312   2.468
 7309WAT  HW2  29235   1.507   4.418   2.576
 7309WAT  MW   29236   1.522   4.337   2.549
 7310WAT  OW   29237   2.420   5.763   6.055
 7310WAT  HW1  29238   2.406   5.850   6.092
 7310WAT  HW2  29239   2.445   5.779   5.964
 7310WAT  MW   29240   2.421   5.777   6.048
 7311WAT  OW   29241   3.260   0.096   6.037
 7311WAT  HW1  29242   3.236   0.029   6.101
 7311WAT  HW2  29243   3.187   0.158   6.037
 7311WAT  MW   29244   3.247   0.095   6.045
 7312WAT  OW   29245   4.762   2.700   6.208
 7312WAT  HW1  29246   4.701   2.669   6.141
 7312WAT  HW2  29247   4.712   2.696   6.289
 7312WAT  MW   29248   4.747   2.696   6.210
 7313WAT  OW   29249   4.238   0.658   6.321
 7313WAT  HW1  29250   4.235   0.566   6.297
 7313WAT  HW2  29251   4.314   0.693   6.274
 7313WAT  MW   29252   4.247   0.651   6.311
 7314WAT  OW   29253   5.007   3.522   0.920
 7314WAT  HW1  29254   5.026   3.432   0.945
 7314WAT  HW2  29255   4.965   3.560   0.997
 7314WAT  MW   29256   5.004   3.515   0.933
 7315WAT  OW   29257   4.047   0.534   3.305
 7315WAT  HW1  29258   4.063   0.552   3.212
 7315WAT  HW2  29259   4.055   0.619   3.348
 7315WAT  MW   29260   4.050   0.548   3.298
 7316WAT  OW   29261   4.955   4.814   4.392
 7316WAT  HW1  29262   4.937   4.728   4.431
 7316WAT  HW2  29263   4.997   4.794   4.308
 7316WAT  MW   29264   4.959   4.800   4.386
 7317WAT  OW   29265   3.938   0.680   4.847
 7317WAT  HW1  29266   3.980   0.676   4.933
 7317WAT  HW2  29267   4.006   0.652   4.786
 7317WAT  MW   29268   3.953   0.676   4.851
 7318WAT  OW   29269   4.304   1.093   1.967
 7318WAT  HW1  29270   4.370   1.138   2.019
 7318WAT  HW2  29271   4.306   1.136   1.882
 7318WAT  MW   29272   4.313   1.105   1.963
 7319WAT  OW   29273   3.927   1.464   4.624
 7319WAT  HW1  29274   3.966   1.538   4.577
 7319WAT  HW2  29275   3.999   1.402   4.635
 7319WAT  MW   29276   3.942   1.466   4.619
 7320WAT  OW   29277   5.541   5.927   5.871
 7320WAT  HW1  29278   5.537   5.976   5.953
 7320WAT  HW2  29279   5.619   5.873   5.878
 7320WAT  MW   29280   5.551   5.927   5.883
 7321WAT  OW   29281   3.652   4.315   6.626
 7321WAT  HW1  29282   3.726   4.375   6.628
 7321WAT  HW2  29283   3.690   4.229   6.647
 7321WAT  MW   29284   3.667   4.311   6.629
 7322WAT  OW   29285   3.215   6.038   0.874
 7322WAT  HW1  29286   3.149   6.039   0.804
 7322WAT  HW2  29287   3.283   6.098   0.842
 7322WAT  MW   29288   3.216   6.046   0.860
 7323WAT  OW   29289   4.486   5.067   6.130
 7323WAT  HW1  29290   4.444   5.116   6.059
 7323WAT  HW2  29291   4.570   5.112   6.144
 7323WAT  MW   29292   4.492   5.080   6.123
 7324WAT  OW   29293   4.472   1.649   5.189
 7324WAT  HW1  29294   4.523   1.621   5.114
 7324WAT  HW2  29295   4.383   1.616   5.172
 7324WAT  MW   29296   4.467   1.641   5.177
 7325WAT  OW   29297   3.146   2.770   6.025
 7325WAT  HW1  29298   3.211   2.795   6.090
 7325WAT  HW2  29299   3.157   2.832   5.954
 7325WAT  MW   29300   3.156   2.781   6.024
 7326WAT  OW   29301   6.158   4.329   5.838
 7326WAT  HW1  29302   6.132   4.265   5.773
 7326WAT  HW2  29303   6.080   4.341   5.892
 7326WAT  MW   29304   6.145   4.322   5.837
 7327WAT  OW   29305   5.982   6.607   6.228
 7327WAT  HW1  29306   6.044   6.605   6.302
 7327WAT  HW2  29307   6.006   6.685   6.179
 7327WAT  MW   29308   5.994   6.617   6.231
 7328WAT  OW   29309   2.654   0.332   3.969
 7328WAT  HW1  29310   2.723   0.278   4.007
 7328WAT  HW2  29311   2.573   0.289   3.995
 7328WAT  MW   29312   2.652   0.320   3.977
 7329WAT  OW   29313   0.590   0.548   2.534
 7329WAT  HW1  29314   0.586   0.524   2.627
 7329WAT  HW2  29315   0.569   0.468   2.487
 7329WAT  MW   29316   0.587   0.535   2.540
 7330WAT  OW   29317   3.331   1.704   0.007
 7330WAT  HW1  29318   3.292   1.685  -0.079
 7330WAT  HW2  29319   3.308   1.628   0.060
 7330WAT  MW   29320   3.323   1.691   0.002
 7331WAT  OW   29321   3.681   0.078   1.895
 7331WAT  HW1  29322   3.678   0.035   1.809
 7331WAT  HW2  29323   3.596   0.057   1.935
 7331WAT  MW   29324   3.669   0.069   1.889
 7332WAT  OW   29325   3.571   4.585   6.692
 7332WAT  HW1  29326   3.475   4.579   6.689
 7332WAT  HW2  29327   3.589   4.678   6.680
 7332WAT  MW   29328   3.561   4.597   6.690
 7333WAT  OW   29329   3.705   3.710   4.905
 7333WAT  HW1  29330   3.622   3.742   4.942
 7333WAT  HW2  29331   3.697   3.615   4.906
 7333WAT  MW   29332   3.693   3.702   4.910
 7334WAT  OW   29333   3.480   0.042   5.842
 7334WAT  HW1  29334   3.407   0.064   5.899
 7334WAT  HW2  29335   3.443  -0.019   5.778
 7334WAT  MW   29336   3.466   0.037   5.841
 7335WAT  OW   29337   5.948   2.403   0.020
 7335WAT  HW1  29338   5.940   2.410  -0.075
 7335WAT  HW2  29339   6.003   2.325   0.033
 7335WAT  MW   29340   5.954   2.393   0.009
 7336WAT  OW   29341   4.653   1.415   4.682
 7336WAT  HW1  29342   4.730   1.420   4.626
 7336WAT  HW2  29343   4.601   1.343   4.646
 7336WAT  MW   29344   4.657   1.406   4.670
 7337WAT  OW   29345   4.297   2.878   0.335
 7337WAT  HW1  29346   4.262   2.967   0.339
 7337WAT  HW2  29347   4.303   2.859   0.242
 7337WAT  MW   29348   4.293   2.888   0.323
 7338WAT  OW   29349   5.388   6.660   2.828
 7338WAT  HW1  29350   5.374   6.658   2.733
 7338WAT  HW2  29351   5.311   6.707   2.862
 7338WAT  MW   29352   5.376   6.666   2.820
 7339WAT  OW   29353   0.844   4.150   0.138
 7339WAT  HW1  29354   0.923   4.119   0.095
 7339WAT  HW2  29355   0.780   4.160   0.067
 7339WAT  MW   29356   0.846   4.147   0.123
 7340WAT  OW   29357   2.346   0.130   3.416
 7340WAT  HW1  29358   2.269   0.130   3.473
 7340WAT  HW2  29359   2.374   0.039   3.413
 7340WAT  MW   29360   2.339   0.118   3.423
 7341WAT  OW   29361   3.656   1.525   3.873
 7341WAT  HW1  29362   3.700   1.594   3.825
 7341WAT  HW2  29363   3.723   1.459   3.888
 7341WAT  MW   29364   3.670   1.525   3.869
 7342WAT  OW   29365   6.094   0.968   1.037
 7342WAT  HW1  29366   6.077   0.906   0.966
 7342WAT  HW2  29367   6.185   0.994   1.024
 7342WAT  MW   29368   6.104   0.963   1.026
 7343WAT  OW   29369   1.489   0.025   1.471
 7343WAT  HW1  29370   1.402   0.041   1.435
 7343WAT  HW2  29371   1.541  -0.003   1.395
 7343WAT  MW   29372   1.485   0.023   1.456
 7344WAT  OW   29373   3.202   5.419   6.228
 7344WAT  HW1  29374   3.273   5.380   6.177
 7344WAT  HW2  29375   3.237   5.425   6.317
 7344WAT  MW   29376   3.216   5.414   6.233
 7345WAT  OW   29377   5.400   0.870   4.344
 7345WAT  HW1  29378   5.464   0.800   4.339
 7345WAT  HW2  29379   5.441   0.938   4.397
 7345WAT  MW   29380   5.414   0.870   4.350
 7346WAT  OW   29381   5.960   4.816   1.569
 7346WAT  HW1  29382   6.021   4.876   1.612
 7346WAT  HW2  29383   5.929   4.864   1.493
 7346WAT  MW   29384   5.964   4.830   1.565
 7347WAT  OW   29385   5.115   6.393   2.894
 7347WAT  HW1  29386   5.133   6.463   2.957
 7347WAT  HW2  29387   5.105   6.438   2.810
 7347WAT  MW   29388   5.116   6.408   2.891
 7348WAT  OW   29389   4.406   4.427   0.692
 7348WAT  HW1  29390   4.474   4.451   0.754
 7348WAT  HW2  29391   4.392   4.333   0.707
 7348WAT  MW   29392   4.413   4.418   0.702
 7349WAT  OW   29393   1.810   2.784   2.912
 7349WAT  HW1  29394   1.828   2.750   3.000
 7349WAT  HW2  29395   1.724   2.825   2.920
 7349WAT  MW   29396   1.801   2.785   2.924
 7350WAT  OW   29397   1.415   6.099   3.249
 7350WAT  HW1  29398   1.335   6.050   3.228
 7350WAT  HW2  29399   1.385   6.172   3.304
 7350WAT  MW   29400   1.400   6.103   3.253
 7351WAT  OW   29401   1.790   1.412   6.019
 7351WAT  HW1  29402   1.816   1.334   6.068
 7351WAT  HW2  29403   1.819   1.395   5.929
 7351WAT  MW   29404   1.797   1.400   6.014
 7352WAT  OW   29405   3.755   2.722   2.506
 7352WAT  HW1  29406   3.831   2.669   2.481
 7352WAT  HW2  29407   3.781   2.812   2.487
 7352WAT  MW   29408   3.768   2.727   2.500
 7353WAT  OW   29409   4.320   6.385   3.898
 7353WAT  HW1  29410   4.343   6.302   3.941
 7353WAT  HW2  29411   4.234   6.369   3.860
 7353WAT  MW   29412   4.312   6.372   3.899
 7354WAT  OW   29413   2.910   1.660   0.015
 7354WAT  HW1  29414   2.863   1.628  -0.062
 7354WAT  HW2  29415   2.947   1.582   0.055
 7354WAT  MW   29416   2.908   1.646   0.010
 7355WAT  OW   29417   1.521   3.572   6.032
 7355WAT  HW1  29418   1.613   3.597   6.020
 7355WAT  HW2  29419   1.508   3.573   6.127
 7355WAT  MW   29420   1.532   3.575   6.043
 7356WAT  OW   29421   4.135   3.527   5.685
 7356WAT  HW1  29422   4.140   3.500   5.593
 7356WAT  HW2  29423   4.067   3.594   5.686
 7356WAT  MW   29424   4.127   3.532   5.673
 7357WAT  OW   29425   0.972   4.641   5.842
 7357WAT  HW1  29426   0.994   4.556   5.803
 7357WAT  HW2  29427   1.041   4.655   5.908
 7357WAT  MW   29428   0.984   4.631   5.846
 7358WAT  OW   29429   3.970   4.050   3.903
 7358WAT  HW1  29430   3.974   3.976   3.843
 7358WAT  HW2  29431   3.946   4.012   3.987
 7358WAT  MW   29432   3.968   4.035   3.906
 7359WAT  OW   29433   2.820   2.104   0.999
 7359WAT  HW1  29434   2.878   2.127   0.926
 7359WAT  HW2  29435   2.795   2.188   1.037
 7359WAT  MW   29436   2.825   2.118   0.994
 7360WAT  OW   29437   1.494   3.072   1.189
 7360WAT  HW1  29438   1.547   2.995   1.168
 7360WAT  HW2  29439   1.550   3.126   1.245
 7360WAT  MW   29440   1.509   3.069   1.193
 7361WAT  OW   29441   4.946   3.823   1.595
 7361WAT  HW1  29442   4.952   3.793   1.686
 7361WAT  HW2  29443   4.876   3.770   1.557
 7361WAT  MW   29444   4.938   3.812   1.602
 7362WAT  OW   29445   2.076   2.084   5.214
 7362WAT  HW1  29446   2.148   2.032   5.251
 7362WAT  HW2  29447   2.114   2.169   5.197
 7362WAT  MW   29448   2.090   2.088   5.217
 7363WAT  OW   29449   2.241   6.577   2.065
 7363WAT  HW1  29450   2.305   6.630   2.017
 7363WAT  HW2  29451   2.275   6.488   2.058
 7363WAT  MW   29452   2.254   6.573   2.057
 7364WAT  OW   29453   5.173   1.303   3.883
 7364WAT  HW1  29454   5.129   1.347   3.956
 7364WAT  HW2  29455   5.108   1.240   3.851
 7364WAT  MW   29456   5.158   1.300   3.889
 7365WAT  OW   29457   2.134   4.413   2.847
 7365WAT  HW1  29458   2.065   4.349   2.867
 7365WAT  HW2  29459   2.111   4.490   2.899
 7365WAT  MW   29460   2.122   4.415   2.856
 7366WAT  OW   29461   4.087   5.859   6.600
 7366WAT  HW1  29462   4.091   5.902   6.515
 7366WAT  HW2  29463   4.164   5.803   6.603
 7366WAT  MW   29464   4.098   5.857   6.590
 7367WAT  OW   29465   3.630   3.351   0.265
 7367WAT  HW1  29466   3.717   3.387   0.249
 7367WAT  HW2  29467   3.613   3.296   0.189
 7367WAT  MW   29468   3.639   3.349   0.253
 7368WAT  OW   29469   1.343   1.601   3.384
 7368WAT  HW1  29470   1.325   1.577   3.475
 7368WAT  HW2  29471   1.435   1.628   3.384
 7368WAT  MW   29472   1.353   1.601   3.396
 7369WAT  OW   29473   2.272   3.420   0.971
 7369WAT  HW1  29474   2.249   3.472   1.047
 7369WAT  HW2  29475   2.188   3.386   0.939
 7369WAT  MW   29476   2.258   3.422   0.976
 7370WAT  OW   29477   1.509   1.307   5.968
 7370WAT  HW1  29478   1.601   1.312   5.993
 7370WAT  HW2  29479   1.494   1.387   5.918
 7370WAT  MW   29480   1.519   1.318   5.964
 7371WAT  OW   29481   1.349   2.707   2.836
 7371WAT  HW1  29482   1.320   2.740   2.921
 7371WAT  HW2  29483   1.291   2.750   2.773
 7371WAT  MW   29484   1.338   2.717   2.839
 7372WAT  OW   29485   0.036   4.855   5.512
 7372WAT  HW1  29486   0.022   4.919   5.442
 7372WAT  HW2  29487  -0.027   4.881   5.580
 7372WAT  MW   29488   0.026   4.867   5.512
 7373WAT  OW   29489   4.381   6.122   3.701
 7373WAT  HW1  29490   4.414   6.144   3.788
 7373WAT  HW2  29491   4.436   6.050   3.671
 7373WAT  MW   29492   4.392   6.116   3.709
 7374WAT  OW   29493   0.285   1.270   0.814
 7374WAT  HW1  29494   0.259   1.184   0.782
 7374WAT  HW2  29495   0.277   1.328   0.738
 7374WAT  MW   29496   0.281   1.266   0.799
 7375WAT  OW   29497   1.127   3.855   6.102
 7375WAT  HW1  29498   1.033   3.842   6.116
 7375WAT  HW2  29499   1.135   3.943   6.066
 7375WAT  MW   29500   1.116   3.865   6.099
 7376WAT  OW   29501   4.544   6.335   4.508
 7376WAT  HW1  29502   4.462   6.382   4.498
 7376WAT  HW2  29503   4.603   6.375   4.443
 7376WAT  MW   29504   4.541   6.347   4.498
 7377WAT  OW   29505   5.547   4.457   5.461
 7377WAT  HW1  29506   5.631   4.461   5.415
 7377WAT  HW2  29507   5.489   4.512   5.409
 7377WAT  MW   29508   5.551   4.465   5.448
 7378WAT  OW   29509   0.604   0.429   2.787
 7378WAT  HW1  29510   0.584   0.500   2.848
 7378WAT  HW2  29511   0.538   0.362   2.806
 7378WAT  MW   29512   0.593   0.429   2.798
 7379WAT  OW   29513   0.163   5.990   5.865
 7379WAT  HW1  29514   0.117   6.059   5.913
 7379WAT  HW2  29515   0.101   5.962   5.798
 7379WAT  MW   29516   0.149   5.996   5.863
 7380WAT  OW   29517   0.551   5.760   6.274
 7380WAT  HW1  29518   0.588   5.829   6.218
 7380WAT  HW2  29519   0.479   5.803   6.320
 7380WAT  MW   29520   0.547   5.775   6.273
 7381WAT  OW   29521   3.235   5.583   2.803
 7381WAT  HW1  29522   3.194   5.509   2.848
 7381WAT  HW2  29523   3.279   5.544   2.728
 7381WAT  MW   29524   3.236   5.568   2.799
 7382WAT  OW   29525   0.489   6.514   2.359
 7382WAT  HW1  29526   0.397   6.501   2.383
 7382WAT  HW2  29527   0.488   6.522   2.264
 7382WAT  MW   29528   0.477   6.513   2.350
 7383WAT  OW   29529   4.475   0.835   6.174
 7383WAT  HW1  29530   4.419   0.805   6.103
 7383WAT  HW2  29531   4.518   0.755   6.205
 7383WAT  MW   29532   4.473   0.820   6.169
 7384WAT  OW   29533   6.086   6.270   5.604
 7384WAT  HW1  29534   6.068   6.363   5.619
 7384WAT  HW2  29535   6.072   6.258   5.511
 7384WAT  MW   29536   6.082   6.281   5.594
 7385WAT  OW   29537   3.465   2.365   2.548
 7385WAT  HW1  29538   3.552   2.332   2.572
 7385WAT  HW2  29539   3.478   2.457   2.529
 7385WAT  MW   29540   3.478   2.373   2.549
 7386WAT  OW   29541   0.785   2.278   0.870
 7386WAT  HW1  29542   0.878   2.260   0.888
 7386WAT  HW2  29543   0.752   2.315   0.952
 7386WAT  MW   29544   0.793   2.280   0.883
 7387WAT  OW   29545   3.589   1.430   5.226
 7387WAT  HW1  29546   3.620   1.345   5.194
 7387WAT  HW2  29547   3.608   1.490   5.154
 7387WAT  MW   29548   3.595   1.426   5.212
 7388WAT  OW   29549   2.177   2.983   2.637
 7388WAT  HW1  29550   2.106   2.944   2.690
 7388WAT  HW2  29551   2.190   3.070   2.675
 7388WAT  MW   29552   2.169   2.989   2.649
 7389WAT  OW   29553   0.157   1.055   4.365
 7389WAT  HW1  29554   0.227   1.011   4.317
 7389WAT  HW2  29555   0.133   1.130   4.309
 7389WAT  MW   29556   0.163   1.059   4.351
 7390WAT  OW   29557   4.518   3.352   3.528
 7390WAT  HW1  29558   4.589   3.341   3.464
 7390WAT  HW2  29559   4.441   3.371   3.476
 7390WAT  MW   29560   4.517   3.353   3.513
 7391WAT  OW   29561   4.381   4.730   1.719
 7391WAT  HW1  29562   4.330   4.671   1.664
 7391WAT  HW2  29563   4.322   4.752   1.791
 7391WAT  MW   29564   4.366   4.725   1.721
 7392WAT  OW   29565   0.239   0.278   6.491
 7392WAT  HW1  29566   0.268   0.339   6.423
 7392WAT  HW2  29567   0.190   0.333   6.552
 7392WAT  MW   29568   0.236   0.294   6.490
 7393WAT  OW   29569   0.095   6.149   1.485
 7393WAT  HW1  29570   0.023   6.211   1.494
 7393WAT  HW2  29571   0.141   6.153   1.568
 7393WAT  MW   29572   0.091   6.158   1.497
 7394WAT  OW   29573   2.385   4.168   5.156
 7394WAT  HW1  29574   2.303   4.121   5.140
 7394WAT  HW2  29575   2.438   4.153   5.078
 7394WAT  MW   29576   2.381   4.160   5.143
 7395WAT  OW   29577   4.970   2.306   3.680
 7395WAT  HW1  29578   5.001   2.217   3.664
 7395WAT  HW2  29579   4.955   2.343   3.593
 7395WAT  MW   29580   4.972   2.299   3.667
 7396WAT  OW   29581   0.345   2.106   2.863
 7396WAT  HW1  29582   0.253   2.105   2.890
 7396WAT  HW2  29583   0.355   2.189   2.815
 7396WAT  MW   29584   0.334   2.117   2.860
 7397WAT  OW   29585   4.237   4.550   0.860
 7397WAT  HW1  29586   4.145   4.530   0.873
 7397WAT  HW2  29587   4.264   4.495   0.787
 7397WAT  MW   29588   4.229   4.540   0.852
 7398WAT  OW   29589   2.605   5.097   1.174
 7398WAT  HW1  29590   2.639   5.013   1.206
 7398WAT  HW2  29591   2.517   5.077   1.144
 7398WAT  MW   29592   2.598   5.083   1.174
 7399WAT  OW   29593   1.950   4.498   6.581
 7399WAT  HW1  29594   2.017   4.545   6.531
 7399WAT  HW2  29595   1.894   4.457   6.515
 7399WAT  MW   29596   1.952   4.499   6.566
 7400WAT  OW   29597   0.340   0.684   6.364
 7400WAT  HW1  29598   0.332   0.734   6.282
 7400WAT  HW2  29599   0.373   0.598   6.336
 7400WAT  MW   29600   0.344   0.679   6.349
 7401WAT  OW   29601   2.753   0.848   2.404
 7401WAT  HW1  29602   2.838   0.867   2.445
 7401WAT  HW2  29603   2.773   0.842   2.310
 7401WAT  MW   29604   2.767   0.850   2.397
 7402WAT  OW   29605   5.294   4.458   6.476
 7402WAT  HW1  29606   5.233   4.396   6.435
 7402WAT  HW2  29607   5.258   4.544   6.458
 7402WAT  MW   29608   5.282   4.461   6.468
 7403WAT  OW   29609   3.282   6.304   3.045
 7403WAT  HW1  29610   3.308   6.214   3.065
 7403WAT  HW2  29611   3.364   6.348   3.022
 7403WAT  MW   29612   3.296   6.298   3.045
 7404WAT  OW   29613   0.487   3.202   5.609
 7404WAT  HW1  29614   0.427   3.141   5.653
 7404WAT  HW2  29615   0.574   3.166   5.626
 7404WAT  MW   29616   0.491   3.189   5.617
 7405WAT  OW   29617   0.787   2.078   0.534
 7405WAT  HW1  29618   0.804   2.002   0.478
 7405WAT  HW2  29619   0.741   2.042   0.610
 7405WAT  MW   29620   0.783   2.063   0.536
 7406WAT  OW   29621   4.346   3.048   2.798
 7406WAT  HW1  29622   4.407   3.092   2.857
 7406WAT  HW2  29623   4.300   2.984   2.853
 7406WAT  MW   29624   4.348   3.045   2.813
 7407WAT  OW   29625   3.289   4.266   2.223
 7407WAT  HW1  29626   3.282   4.265   2.128
 7407WAT  HW2  29627   3.383   4.274   2.240
 7407WAT  MW   29628   3.300   4.267   2.213
 7408WAT  OW   29629   3.975   4.436   5.037
 7408WAT  HW1  29630   3.957   4.530   5.030
 7408WAT  HW2  29631   3.906   4.395   4.984
 7408WAT  MW   29632   3.963   4.443   5.029
 7409WAT  OW   29633   5.734   4.194   5.575
 7409WAT  HW1  29634   5.677   4.242   5.634
 7409WAT  HW2  29635   5.675   4.152   5.513
 7409WAT  MW   29636   5.719   4.195   5.575
 7410WAT  OW   29637   3.163   0.640   3.336
 7410WAT  HW1  29638   3.174   0.664   3.244
 7410WAT  HW2  29639   3.070   0.652   3.353
 7410WAT  MW   29640   3.152   0.645   3.326
 7411WAT  OW   29641   6.447   1.514   0.429
 7411WAT  HW1  29642   6.450   1.610   0.435
 7411WAT  HW2  29643   6.474   1.495   0.339
 7411WAT  MW   29644   6.451   1.524   0.418
 7412WAT  OW   29645   5.489   5.521   4.627
 7412WAT  HW1  29646   5.557   5.583   4.653
 7412WAT  HW2  29647   5.421   5.530   4.694
 7412WAT  MW   29648   5.489   5.530   4.640
 7413WAT  OW   29649   5.458   2.503   3.920
 7413WAT  HW1  29650   5.415   2.579   3.960
 7413WAT  HW2  29651   5.545   2.501   3.960
 7413WAT  MW   29652   5.464   2.513   3.931
 7414WAT  OW   29653   2.689   6.100   2.881
 7414WAT  HW1  29654   2.716   6.192   2.885
 7414WAT  HW2  29655   2.769   6.053   2.857
 7414WAT  MW   29656   2.703   6.106   2.878
 7415WAT  OW   29657   5.858   2.554   4.940
 7415WAT  HW1  29658   5.850   2.645   4.910
 7415WAT  HW2  29659   5.809   2.552   5.022
 7415WAT  MW   29660   5.851   2.566   4.947
 7416WAT  OW   29661   0.546   5.672   4.324
 7416WAT  HW1  29662   0.538   5.579   4.345
 7416WAT  HW2  29663   0.546   5.715   4.409
 7416WAT  MW   29664   0.545   5.665   4.338
 7417WAT  OW   29665   2.839   3.530   0.451
 7417WAT  HW1  29666   2.744   3.531   0.447
 7417WAT  HW2  29667   2.865   3.619   0.424
 7417WAT  MW   29668   2.830   3.542   0.447
 7418WAT  OW   29669   6.613   4.131   0.859
 7418WAT  HW1  29670   6.577   4.210   0.820
 7418WAT  HW2  29671   6.662   4.162   0.935
 7418WAT  MW   29672   6.615   4.146   0.864
 7419WAT  OW   29673   4.109   4.927   1.601
 7419WAT  HW1  29674   4.182   4.891   1.552
 7419WAT  HW2  29675   4.060   4.979   1.536
 7419WAT  MW   29676   4.112   4.929   1.586
 7420WAT  OW   29677   4.144   6.575   4.098
 7420WAT  HW1  29678   4.102   6.508   4.153
 7420WAT  HW2  29679   4.159   6.531   4.015
 7420WAT  MW   29680   4.141   6.560   4.094
 7421WAT  OW   29681   5.940   1.759   2.543
 7421WAT  HW1  29682   5.922   1.723   2.630
 7421WAT  HW2  29683   5.971   1.848   2.560
 7421WAT  MW   29684   5.942   1.766   2.557
 7422WAT  OW   29685   5.858   2.566   5.963
 7422WAT  HW1  29686   5.877   2.656   5.992
 7422WAT  HW2  29687   5.816   2.577   5.878
 7422WAT  MW   29688   5.855   2.580   5.955
 7423WAT  OW   29689   3.255   3.500   3.975
 7423WAT  HW1  29690   3.287   3.410   3.983
 7423WAT  HW2  29691   3.177   3.503   4.030
 7423WAT  MW   29692   3.249   3.488   3.983
 7424WAT  OW   29693   1.151   2.375   4.247
 7424WAT  HW1  29694   1.156   2.299   4.190
 7424WAT  HW2  29695   1.174   2.449   4.190
 7424WAT  MW   29696   1.154   2.375   4.232
 7425WAT  OW   29697   4.959   5.729   6.349
 7425WAT  HW1  29698   5.014   5.786   6.296
 7425WAT  HW2  29699   4.872   5.738   6.311
 7425WAT  MW   29700   4.955   5.737   6.337
 7426WAT  OW   29701   3.140   3.473   3.410
 7426WAT  HW1  29702   3.119   3.380   3.396
 7426WAT  HW2  29703   3.193   3.497   3.334
 7426WAT  MW   29704   3.144   3.464   3.398
 7427WAT  OW   29705   4.051   5.128   3.126
 7427WAT  HW1  29706   4.016   5.047   3.164
 7427WAT  HW2  29707   4.101   5.099   3.049
 7427WAT  MW   29708   4.053   5.113   3.121
 7428WAT  OW   29709   1.333   1.903   4.881
 7428WAT  HW1  29710   1.396   1.831   4.878
 7428WAT  HW2  29711   1.381   1.979   4.846
 7428WAT  MW   29712   1.348   1.904   4.876
 7429WAT  OW   29713   3.899   4.187   4.476
 7429WAT  HW1  29714   3.875   4.278   4.459
 7429WAT  HW2  29715   3.968   4.193   4.543
 7429WAT  MW   29716   3.905   4.200   4.483
 7430WAT  OW   29717   4.978   1.578   3.814
 7430WAT  HW1  29718   5.055   1.598   3.762
 7430WAT  HW2  29719   4.980   1.641   3.886
 7430WAT  MW   29720   4.988   1.589   3.817
 7431WAT  OW   29721   3.040   5.674   1.397
 7431WAT  HW1  29722   3.082   5.622   1.465
 7431WAT  HW2  29723   3.107   5.683   1.329
 7431WAT  MW   29724   3.055   5.669   1.397
 7432WAT  OW   29725   5.338   0.269   2.022
 7432WAT  HW1  29726   5.318   0.176   2.008
 7432WAT  HW2  29727   5.433   0.272   2.034
 7432WAT  MW   29728   5.348   0.257   2.022
 7433WAT  OW   29729   5.311   4.612   4.124
 7433WAT  HW1  29730   5.357   4.575   4.200
 7433WAT  HW2  29731   5.371   4.677   4.088
 7433WAT  MW   29732   5.325   4.615   4.129
 7434WAT  OW   29733   4.100   1.977   5.889
 7434WAT  HW1  29734   4.098   2.040   5.818
 7434WAT  HW2  29735   4.153   2.018   5.957
 7434WAT  MW   29736   4.106   1.990   5.889
 7435WAT  OW   29737   0.439   5.221   4.251
 7435WAT  HW1  29738   0.481   5.228   4.165
 7435WAT  HW2  29739   0.369   5.287   4.248
 7435WAT  MW   29740   0.435   5.230   4.239
 7436WAT  OW   29741   0.078   2.619   2.689
 7436WAT  HW1  29742   0.038   2.584   2.609
 7436WAT  HW2  29743   0.172   2.615   2.672
 7436WAT  MW   29744   0.085   2.614   2.676
 7437WAT  OW   29745   2.217   2.006   2.904
 7437WAT  HW1  29746   2.248   1.915   2.902
 7437WAT  HW2  29747   2.296   2.058   2.911
 7437WAT  MW   29748   2.231   2.001   2.904
 7438WAT  OW   29749   1.957   4.960   4.063
 7438WAT  HW1  29750   1.914   4.897   4.121
 7438WAT  HW2  29751   1.985   5.031   4.121
 7438WAT  MW   29752   1.955   4.961   4.078
 7439WAT  OW   29753   2.941   1.792   5.304
 7439WAT  HW1  29754   2.993   1.852   5.251
 7439WAT  HW2  29755   2.922   1.718   5.246
 7439WAT  MW   29756   2.946   1.790   5.289
 7440WAT  OW   29757   3.493   5.048   1.127
 7440WAT  HW1  29758   3.502   5.003   1.043
 7440WAT  HW2  29759   3.399   5.055   1.141
 7440WAT  MW   29760   3.482   5.043   1.118
 7441WAT  OW   29761   1.789   6.390   3.350
 7441WAT  HW1  29762   1.739   6.312   3.375
 7441WAT  HW2  29763   1.848   6.359   3.281
 7441WAT  MW   29764   1.790   6.375   3.344
 7442WAT  OW   29765   6.188   0.606   0.915
 7442WAT  HW1  29766   6.259   0.655   0.873
 7442WAT  HW2  29767   6.109   0.656   0.895
 7442WAT  MW   29768   6.187   0.619   0.907
 7443WAT  OW   29769   5.172   3.885   2.618
 7443WAT  HW1  29770   5.233   3.826   2.660
 7443WAT  HW2  29771   5.226   3.938   2.559
 7443WAT  MW   29772   5.187   3.884   2.616
 7444WAT  OW   29773   4.734   5.412   2.131
 7444WAT  HW1  29774   4.796   5.381   2.198
 7444WAT  HW2  29775   4.765   5.373   2.049
 7444WAT  MW   29776   4.746   5.402   2.129
 7445WAT  OW   29777   6.271   3.353   3.486
 7445WAT  HW1  29778   6.258   3.311   3.571
 7445WAT  HW2  29779   6.320   3.288   3.435
 7445WAT  MW   29780   6.276   3.339   3.491
 7446WAT  OW   29781   4.113   6.403   5.605
 7446WAT  HW1  29782   4.140   6.376   5.692
 7446WAT  HW2  29783   4.032   6.355   5.588
 7446WAT  MW   29784   4.106   6.393   5.614
 7447WAT  OW   29785   3.562   2.861   4.174
 7447WAT  HW1  29786   3.647   2.896   4.200
 7447WAT  HW2  29787   3.564   2.769   4.201
 7447WAT  MW   29788   3.573   2.853   4.181
 7448WAT  OW   29789   5.237   3.876   3.873
 7448WAT  HW1  29790   5.183   3.953   3.857
 7448WAT  HW2  29791   5.188   3.804   3.833
 7448WAT  MW   29792   5.224   3.876   3.865
 7449WAT  OW   29793   2.018   5.342   4.875
 7449WAT  HW1  29794   1.994   5.318   4.786
 7449WAT  HW2  29795   1.941   5.320   4.928
 7449WAT  MW   29796   2.005   5.336   4.870
 7450WAT  OW   29797   0.108   0.746   3.092
 7450WAT  HW1  29798   0.054   0.788   3.159
 7450WAT  HW2  29799   0.153   0.675   3.137
 7450WAT  MW   29800   0.106   0.742   3.106
 7451WAT  OW   29801   4.401   1.722   4.321
 7451WAT  HW1  29802   4.419   1.664   4.395
 7451WAT  HW2  29803   4.327   1.680   4.276
 7451WAT  MW   29804   4.393   1.709   4.325
 7452WAT  OW   29805   2.023   2.855   1.984
 7452WAT  HW1  29806   2.031   2.813   2.069
 7452WAT  HW2  29807   1.949   2.915   1.994
 7452WAT  MW   29808   2.014   2.857   1.996
 7453WAT  OW   29809   2.970   6.115   6.681
 7453WAT  HW1  29810   3.020   6.083   6.756
 7453WAT  HW2  29811   3.035   6.128   6.613
 7453WAT  MW   29812   2.985   6.113   6.682
 7454WAT  OW   29813   0.835   1.541   4.020
 7454WAT  HW1  29814   0.829   1.451   3.988
 7454WAT  HW2  29815   0.778   1.543   4.096
 7454WAT  MW   29816   0.827   1.529   4.026
 7455WAT  OW   29817   2.231   1.603   1.438
 7455WAT  HW1  29818   2.323   1.615   1.415
 7455WAT  HW2  29819   2.211   1.678   1.494
 7455WAT  MW   29820   2.240   1.615   1.442
 7456WAT  OW   29821   3.430   5.099   4.580
 7456WAT  HW1  29822   3.457   5.184   4.546
 7456WAT  HW2  29823   3.484   5.036   4.532
 7456WAT  MW   29824   3.441   5.102   4.569
 7457WAT  OW   29825   3.613   6.351   0.527
 7457WAT  HW1  29826   3.686   6.353   0.589
 7457WAT  HW2  29827   3.645   6.299   0.454
 7457WAT  MW   29828   3.627   6.344   0.526
 7458WAT  OW   29829   5.132   2.245   3.061
 7458WAT  HW1  29830   5.192   2.251   3.136
 7458WAT  HW2  29831   5.045   2.261   3.099
 7458WAT  MW   29832   5.128   2.248   3.076
 7459WAT  OW   29833   5.027   1.658   6.653
 7459WAT  HW1  29834   5.109   1.612   6.667
 7459WAT  HW2  29835   4.995   1.678   6.741
 7459WAT  MW   29836   5.033   1.655   6.667
 7460WAT  OW   29837   2.594   6.294   5.817
 7460WAT  HW1  29838   2.537   6.309   5.893
 7460WAT  HW2  29839   2.578   6.203   5.793
 7460WAT  MW   29840   2.584   6.284   5.824
 7461WAT  OW   29841   1.077   3.533   3.209
 7461WAT  HW1  29842   1.062   3.620   3.172
 7461WAT  HW2  29843   1.128   3.487   3.142
 7461WAT  MW   29844   1.082   3.539   3.195
 7462WAT  OW   29845   5.867   2.646   4.563
 7462WAT  HW1  29846   5.800   2.591   4.603
 7462WAT  HW2  29847   5.850   2.734   4.598
 7462WAT  MW   29848   5.856   2.650   4.572
 7463WAT  OW   29849   5.942   3.309   4.112
 7463WAT  HW1  29850   6.009   3.373   4.089
 7463WAT  HW2  29851   5.983   3.254   4.179
 7463WAT  MW   29852   5.956   3.310   4.118
 7464WAT  OW   29853   2.677   0.396   0.783
 7464WAT  HW1  29854   2.622   0.470   0.757
 7464WAT  HW2  29855   2.615   0.328   0.810
 7464WAT  MW   29856   2.662   0.397   0.783
 7465WAT  OW   29857   1.889   1.040   2.341
 7465WAT  HW1  29858   1.919   1.124   2.304
 7465WAT  HW2  29859   1.794   1.044   2.334
 7465WAT  MW   29860   1.881   1.052   2.335
 7466WAT  OW   29861   1.269   1.591   3.697
 7466WAT  HW1  29862   1.247   1.653   3.767
 7466WAT  HW2  29863   1.184   1.555   3.670
 7466WAT  MW   29864   1.255   1.595   3.703
 7467WAT  OW   29865   4.105   2.674   1.826
 7467WAT  HW1  29866   4.173   2.666   1.894
 7467WAT  HW2  29867   4.027   2.635   1.866
 7467WAT  MW   29868   4.104   2.668   1.841
 7468WAT  OW   29869   1.745   0.395   1.081
 7468WAT  HW1  29870   1.725   0.343   1.159
 7468WAT  HW2  29871   1.827   0.440   1.102
 7468WAT  MW   29872   1.753   0.394   1.094
 7469WAT  OW   29873   6.101   6.558   0.409
 7469WAT  HW1  29874   6.039   6.591   0.474
 7469WAT  HW2  29875   6.134   6.476   0.446
 7469WAT  MW   29876   6.097   6.551   0.422
 7470WAT  OW   29877   2.593   4.624   6.006
 7470WAT  HW1  29878   2.655   4.637   6.078
 7470WAT  HW2  29879   2.604   4.701   5.951
 7470WAT  MW   29880   2.603   4.636   6.008
 7471WAT  OW   29881   6.289   5.764   1.539
 7471WAT  HW1  29882   6.294   5.858   1.523
 7471WAT  HW2  29883   6.375   5.731   1.513
 7471WAT  MW   29884   6.301   5.772   1.534
 7472WAT  OW   29885   3.013   4.973   6.408
 7472WAT  HW1  29886   3.055   4.903   6.457
 7472WAT  HW2  29887   3.049   5.054   6.444
 7472WAT  MW   29888   3.023   4.975   6.419
 7473WAT  OW   29889   0.314   6.556   1.002
 7473WAT  HW1  29890   0.386   6.619   1.005
 7473WAT  HW2  29891   0.330   6.505   0.923
 7473WAT  MW   29892   0.325   6.558   0.992
 7474WAT  OW   29893   1.737   2.354   1.142
 7474WAT  HW1  29894   1.807   2.293   1.121
 7474WAT  HW2  29895   1.715   2.335   1.234
 7474WAT  MW   29896   1.743   2.343   1.152
 7475WAT  OW   29897   4.624   1.323   4.960
 7475WAT  HW1  29898   4.580   1.401   4.924
 7475WAT  HW2  29899   4.573   1.250   4.926
 7475WAT  MW   29900   4.611   1.324   4.951
 7476WAT  OW   29901   5.918   6.298   2.833
 7476WAT  HW1  29902   5.897   6.387   2.859
 7476WAT  HW2  29903   5.834   6.259   2.810
 7476WAT  MW   29904   5.904   6.304   2.833
 7477WAT  OW   29905   0.221   2.968   2.984
 7477WAT  HW1  29906   0.217   3.036   3.051
 7477WAT  HW2  29907   0.135   2.927   2.986
 7477WAT  MW   29908   0.209   2.972   2.993
 7478WAT  OW   29909   0.032   4.597   5.351
 7478WAT  HW1  29910   0.002   4.687   5.365
 7478WAT  HW2  29911   0.035   4.588   5.256
 7478WAT  MW   29912   0.029   4.608   5.340
 7479WAT  OW   29913   3.361   0.813   5.020
 7479WAT  HW1  29914   3.318   0.788   4.938
 7479WAT  HW2  29915   3.397   0.900   5.002
 7479WAT  MW   29916   3.360   0.821   5.007
 7480WAT  OW   29917   0.885   5.407   5.360
 7480WAT  HW1  29918   0.948   5.378   5.294
 7480WAT  HW2  29919   0.865   5.498   5.336
 7480WAT  MW   29920   0.891   5.415   5.348
 7481WAT  OW   29921   0.944   1.067   3.011
 7481WAT  HW1  29922   0.878   1.010   3.051
 7481WAT  HW2  29923   0.979   1.118   3.084
 7481WAT  MW   29924   0.940   1.066   3.026
 7482WAT  OW   29925   6.495   1.259   5.189
 7482WAT  HW1  29926   6.503   1.211   5.272
 7482WAT  HW2  29927   6.544   1.340   5.203
 7482WAT  MW   29928   6.502   1.263   5.202
 7483WAT  OW   29929   4.584   4.575   6.611
 7483WAT  HW1  29930   4.578   4.491   6.565
 7483WAT  HW2  29931   4.542   4.638   6.552
 7483WAT  MW   29932   4.578   4.572   6.597
 7484WAT  OW   29933   0.752   0.469   5.713
 7484WAT  HW1  29934   0.774   0.412   5.639
 7484WAT  HW2  29935   0.665   0.440   5.741
 7484WAT  MW   29936   0.744   0.457   5.707
 7485WAT  OW   29937   0.479   6.272   1.489
 7485WAT  HW1  29938   0.495   6.281   1.583
 7485WAT  HW2  29939   0.458   6.361   1.460
 7485WAT  MW   29940   0.478   6.285   1.498
 7486WAT  OW   29941   4.513   2.735   5.073
 7486WAT  HW1  29942   4.449   2.664   5.072
 7486WAT  HW2  29943   4.596   2.693   5.095
 7486WAT  MW   29944   4.516   2.720   5.076
 7487WAT  OW   29945   5.906   3.690   0.621
 7487WAT  HW1  29946   5.865   3.709   0.537
 7487WAT  HW2  29947   5.892   3.769   0.673
 7487WAT  MW   29948   5.899   3.703   0.617
 7488WAT  OW   29949   4.643   6.593   0.760
 7488WAT  HW1  29950   4.616   6.684   0.747
 7488WAT  HW2  29951   4.708   6.577   0.691
 7488WAT  MW   29952   4.648   6.603   0.749
 7489WAT  OW   29953   5.116   4.693   6.159
 7489WAT  HW1  29954   5.111   4.754   6.085
 7489WAT  HW2  29955   5.137   4.608   6.119
 7489WAT  MW   29956   5.118   4.690   6.144
 7490WAT  OW   29957   1.918   6.601   4.160
 7490WAT  HW1  29958   1.904   6.563   4.073
 7490WAT  HW2  29959   1.909   6.527   4.220
 7490WAT  MW   29960   1.915   6.586   4.156
 7491WAT  OW   29961   5.605   1.932   6.066
 7491WAT  HW1  29962   5.520   1.925   6.110
 7491WAT  HW2  29963   5.658   1.862   6.104
 7491WAT  MW   29964   5.601   1.922   6.077
 7492WAT  OW   29965   2.941   2.987   4.402
 7492WAT  HW1  29966   2.886   2.996   4.324
 7492WAT  HW2  29967   2.879   2.979   4.474
 7492WAT  MW   29968   2.926   2.987   4.401
 7493WAT  OW   29969   4.548   1.580   4.910
 7493WAT  HW1  29970   4.461   1.560   4.876
 7493WAT  HW2  29971   4.609   1.543   4.847
 7493WAT  MW   29972   4.545   1.573   4.897
 7494WAT  OW   29973   2.228   4.226   6.498
 7494WAT  HW1  29974   2.208   4.295   6.561
 7494WAT  HW2  29975   2.146   4.179   6.487
 7494WAT  MW   29976   2.215   4.229   6.505
 7495WAT  OW   29977   1.468   2.378   2.373
 7495WAT  HW1  29978   1.482   2.334   2.457
 7495WAT  HW2  29979   1.475   2.471   2.393
 7495WAT  MW   29980   1.471   2.384   2.386
 7496WAT  OW   29981   0.094   3.816   3.758
 7496WAT  HW1  29982   0.112   3.722   3.756
 7496WAT  HW2  29983  -0.001   3.821   3.766
 7496WAT  MW   29984   0.084   3.804   3.759
 7497WAT  OW   29985   5.128   5.908   0.560
 7497WAT  HW1  29986   5.035   5.911   0.537
 7497WAT  HW2  29987   5.163   5.991   0.528
 7497WAT  MW   29988   5.120   5.919   0.552
 7498WAT  OW   29989   0.275   1.981   0.520
 7498WAT  HW1  29990   0.299   1.963   0.429
 7498WAT  HW2  29991   0.306   2.070   0.536
 7498WAT  MW   29992   0.282   1.990   0.510
 7499WAT  OW   29993   1.457   1.287   5.253
 7499WAT  HW1  29994   1.470   1.291   5.158
 7499WAT  HW2  29995   1.544   1.303   5.290
 7499WAT  MW   29996   1.470   1.290   5.245
 7500WAT  OW   29997   0.207   0.911   0.970
 7500WAT  HW1  29998   0.184   0.822   0.946
 7500WAT  HW2  29999   0.289   0.903   1.020
 7500WAT  MW   30000   0.215   0.898   0.974
 7501WAT  OW   30001   4.483   5.610   3.736
 7501WAT  HW1  30002   4.397   5.624   3.777
 7501WAT  HW2  30003   4.499   5.516   3.744
 7501WAT  MW   30004   4.473   5.600   3.743
 7502WAT  OW   30005   1.988   5.468   1.148
 7502WAT  HW1  30006   1.954   5.381   1.168
 7502WAT  HW2  30007   2.034   5.496   1.227
 7502WAT  MW   30008   1.990   5.460   1.161
 7503WAT  OW   30009   0.746   4.715   4.086
 7503WAT  HW1  30010   0.686   4.731   4.159
 7503WAT  HW2  30011   0.784   4.801   4.067
 7503WAT  MW   30012   0.743   4.728   4.093
 7504WAT  OW   30013   0.971   2.543   6.262
 7504WAT  HW1  30014   1.007   2.631   6.273
 7504WAT  HW2  30015   0.962   2.509   6.351
 7504WAT  MW   30016   0.975   2.550   6.275
 7505WAT  OW   30017   3.469   3.417   2.338
 7505WAT  HW1  30018   3.505   3.409   2.427
 7505WAT  HW2  30019   3.545   3.411   2.281
 7505WAT  MW   30020   3.484   3.415   2.342
 7506WAT  OW   30021   2.453   5.258   3.789
 7506WAT  HW1  30022   2.467   5.332   3.730
 7506WAT  HW2  30023   2.360   5.237   3.779
 7506WAT  MW   30024   2.443   5.265   3.780
 7507WAT  OW   30025   2.558   2.998   2.524
 7507WAT  HW1  30026   2.575   2.928   2.461
 7507WAT  HW2  30027   2.547   3.076   2.470
 7507WAT  MW   30028   2.559   2.999   2.509
 7508WAT  OW   30029   1.271   5.648   3.974
 7508WAT  HW1  30030   1.240   5.723   4.025
 7508WAT  HW2  30031   1.283   5.683   3.885
 7508WAT  MW   30032   1.268   5.663   3.969
 7509WAT  OW   30033   2.459   3.815   4.087
 7509WAT  HW1  30034   2.436   3.878   4.019
 7509WAT  HW2  30035   2.377   3.772   4.110
 7509WAT  MW   30036   2.445   3.817   4.081
 7510WAT  OW   30037   6.605   2.195   0.255
 7510WAT  HW1  30038   6.647   2.278   0.230
 7510WAT  HW2  30039   6.553   2.217   0.332
 7510WAT  MW   30040   6.604   2.209   0.262
 7511WAT  OW   30041   2.949   6.615   3.356
 7511WAT  HW1  30042   2.946   6.585   3.266
 7511WAT  HW2  30043   2.879   6.681   3.363
 7511WAT  MW   30044   2.939   6.620   3.345
 7512WAT  OW   30045   5.423   3.825   0.435
 7512WAT  HW1  30046   5.389   3.882   0.366
 7512WAT  HW2  30047   5.442   3.742   0.391
 7512WAT  MW   30048   5.421   3.822   0.420
 7513WAT  OW   30049   3.468   6.210   1.040
 7513WAT  HW1  30050   3.519   6.224   1.120
 7513WAT  HW2  30051   3.379   6.237   1.063
 7513WAT  MW   30052   3.463   6.215   1.053
 7514WAT  OW   30053   4.534   3.422   6.509
 7514WAT  HW1  30054   4.494   3.384   6.431
 7514WAT  HW2  30055   4.517   3.358   6.579
 7514WAT  MW   30056   4.526   3.409   6.508
 7515WAT  OW   30057   2.416   6.030   6.099
 7515WAT  HW1  30058   2.382   6.090   6.033
 7515WAT  HW2  30059   2.446   6.087   6.170
 7515WAT  MW   30060   2.416   6.045   6.100
 7516WAT  OW   30061   0.797   3.737   4.726
 7516WAT  HW1  30062   0.769   3.662   4.672
 7516WAT  HW2  30063   0.755   3.812   4.686
 7516WAT  MW   30064   0.788   3.737   4.714
 7517WAT  OW   30065   3.071   1.435   0.006
 7517WAT  HW1  30066   3.008   1.366  -0.016
 7517WAT  HW2  30067   3.103   1.466  -0.079
 7517WAT  MW   30068   3.067   1.430  -0.008
 7518WAT  OW   30069   2.964   4.449   1.175
 7518WAT  HW1  30070   2.969   4.413   1.087
 7518WAT  HW2  30071   2.935   4.539   1.162
 7518WAT  MW   30072   2.961   4.456   1.162
 7519WAT  OW   30073   2.416   6.318   4.651
 7519WAT  HW1  30074   2.330   6.295   4.686
 7519WAT  HW2  30075   2.457   6.368   4.721
 7519WAT  MW   30076   2.410   6.322   4.665
 7520WAT  OW   30077   0.088   1.151   1.667
 7520WAT  HW1  30078   0.053   1.140   1.579
 7520WAT  HW2  30079   0.064   1.240   1.692
 7520WAT  MW   30080   0.080   1.161   1.659
 7521WAT  OW   30081   5.620   1.934   1.903
 7521WAT  HW1  30082   5.609   1.980   1.820
 7521WAT  HW2  30083   5.616   2.003   1.970
 7521WAT  MW   30084   5.618   1.949   1.901
 7522WAT  OW   30085   5.115   6.310   4.127
 7522WAT  HW1  30086   5.197   6.291   4.174
 7522WAT  HW2  30087   5.137   6.298   4.035
 7522WAT  MW   30088   5.129   6.306   4.121
 7523WAT  OW   30089   5.947   4.148   5.401
 7523WAT  HW1  30090   5.889   4.164   5.476
 7523WAT  HW2  30091   5.949   4.053   5.392
 7523WAT  MW   30092   5.940   4.137   5.410
 7524WAT  OW   30093   3.533   1.376   1.398
 7524WAT  HW1  30094   3.567   1.310   1.337
 7524WAT  HW2  30095   3.611   1.423   1.428
 7524WAT  MW   30096   3.548   1.374   1.394
 7525WAT  OW   30097   3.312   3.588   4.577
 7525WAT  HW1  30098   3.255   3.660   4.602
 7525WAT  HW2  30099   3.259   3.534   4.517
 7525WAT  MW   30100   3.298   3.590   4.572
 7526WAT  OW   30101   6.061   3.940   2.406
 7526WAT  HW1  30102   6.052   3.997   2.330
 7526WAT  HW2  30103   5.971   3.922   2.433
 7526WAT  MW   30104   6.048   3.945   2.399
 7527WAT  OW   30105   0.772   2.435   4.580
 7527WAT  HW1  30106   0.855   2.415   4.624
 7527WAT  HW2  30107   0.794   2.443   4.488
 7527WAT  MW   30108   0.786   2.434   4.574
 7528WAT  OW   30109   3.889   6.662   3.922
 7528WAT  HW1  30110   3.887   6.687   3.830
 7528WAT  HW2  30111   3.942   6.729   3.964
 7528WAT  MW   30112   3.896   6.674   3.915
 7529WAT  OW   30113   0.156   3.419   4.903
 7529WAT  HW1  30114   0.223   3.414   4.971
 7529WAT  HW2  30115   0.088   3.474   4.941
 7529WAT  MW   30116   0.156   3.425   4.917
 7530WAT  OW   30117   2.453   1.288   0.354
 7530WAT  HW1  30118   2.395   1.295   0.278
 7530WAT  HW2  30119   2.414   1.219   0.407
 7530WAT  MW   30120   2.440   1.280   0.351
 7531WAT  OW   30121   5.862   3.836   0.386
 7531WAT  HW1  30122   5.921   3.910   0.404
 7531WAT  HW2  30123   5.795   3.872   0.328
 7531WAT  MW   30124   5.861   3.850   0.380
 7532WAT  OW   30125   0.790   2.253   3.110
 7532WAT  HW1  30126   0.695   2.256   3.118
 7532WAT  HW2  30127   0.807   2.281   3.019
 7532WAT  MW   30128   0.780   2.257   3.099
 7533WAT  OW   30129   4.587   3.174   3.741
 7533WAT  HW1  30130   4.572   3.230   3.665
 7533WAT  HW2  30131   4.681   3.155   3.739
 7533WAT  MW   30132   4.598   3.179   3.731
 7534WAT  OW   30133   5.197   2.394   2.654
 7534WAT  HW1  30134   5.174   2.409   2.562
 7534WAT  HW2  30135   5.113   2.399   2.700
 7534WAT  MW   30136   5.183   2.396   2.648
 7535WAT  OW   30137   0.745   5.300   3.734
 7535WAT  HW1  30138   0.796   5.235   3.781
 7535WAT  HW2  30139   0.706   5.355   3.802
 7535WAT  MW   30140   0.746   5.299   3.749
 7536WAT  OW   30141   3.264   1.084   5.249
 7536WAT  HW1  30142   3.277   1.177   5.268
 7536WAT  HW2  30143   3.267   1.041   5.334
 7536WAT  MW   30144   3.266   1.091   5.263
 7537WAT  OW   30145   1.705   2.090   3.594
 7537WAT  HW1  30146   1.789   2.116   3.556
 7537WAT  HW2  30147   1.726   2.066   3.684
 7537WAT  MW   30148   1.719   2.090   3.601
 7538WAT  OW   30149   6.503   4.559   1.128
 7538WAT  HW1  30150   6.452   4.639   1.141
 7538WAT  HW2  30151   6.451   4.491   1.171
 7538WAT  MW   30152   6.489   4.560   1.135
 7539WAT  OW   30153   4.745   5.358   6.226
 7539WAT  HW1  30154   4.792   5.276   6.206
 7539WAT  HW2  30155   4.757   5.412   6.148
 7539WAT  MW   30156   4.753   5.354   6.213
 7540WAT  OW   30157   5.043   1.487   5.980
 7540WAT  HW1  30158   4.952   1.514   5.997
 7540WAT  HW2  30159   5.094   1.532   6.047
 7540WAT  MW   30160   5.038   1.497   5.991
 7541WAT  OW   30161   3.372   0.768   5.983
 7541WAT  HW1  30162   3.397   0.778   5.891
 7541WAT  HW2  30163   3.448   0.728   6.025
 7541WAT  MW   30164   3.385   0.764   5.976
 7542WAT  OW   30165   4.395   2.773   1.618
 7542WAT  HW1  30166   4.357   2.766   1.530
 7542WAT  HW2  30167   4.464   2.839   1.609
 7542WAT  MW   30168   4.399   2.781   1.605
 7543WAT  OW   30169   1.837   1.621   5.636
 7543WAT  HW1  30170   1.758   1.572   5.613
 7543WAT  HW2  30171   1.864   1.662   5.554
 7543WAT  MW   30172   1.830   1.620   5.622
 7544WAT  OW   30173   6.471   5.469   2.807
 7544WAT  HW1  30174   6.563   5.443   2.799
 7544WAT  HW2  30175   6.474   5.555   2.848
 7544WAT  MW   30176   6.483   5.477   2.812
 7545WAT  OW   30177   3.565   0.820   0.168
 7545WAT  HW1  30178   3.473   0.809   0.146
 7545WAT  HW2  30179   3.611   0.763   0.106
 7545WAT  MW   30180   3.559   0.811   0.157
 7546WAT  OW   30181   5.549   1.625   3.642
 7546WAT  HW1  30182   5.579   1.534   3.639
 7546WAT  HW2  30183   5.614   1.674   3.592
 7546WAT  MW   30184   5.562   1.619   3.635
 7547WAT  OW   30185   3.428   2.343   6.451
 7547WAT  HW1  30186   3.399   2.387   6.531
 7547WAT  HW2  30187   3.410   2.406   6.381
 7547WAT  MW   30188   3.422   2.357   6.452
 7548WAT  OW   30189   2.219   6.382   2.771
 7548WAT  HW1  30190   2.239   6.461   2.721
 7548WAT  HW2  30191   2.136   6.351   2.734
 7548WAT  MW   30192   2.211   6.388   2.760
 7549WAT  OW   30193   1.955   6.680   0.713
 7549WAT  HW1  30194   1.882   6.666   0.773
 7549WAT  HW2  30195   2.033   6.653   0.763
 7549WAT  MW   30196   1.956   6.674   0.728
 7550WAT  OW   30197   5.583   6.672   5.054
 7550WAT  HW1  30198   5.514   6.659   5.119
 7550WAT  HW2  30199   5.655   6.711   5.103
 7550WAT  MW   30200   5.583   6.676   5.069
 7551WAT  OW   30201   0.050   5.465   2.930
 7551WAT  HW1  30202   0.101   5.525   2.876
 7551WAT  HW2  30203   0.094   5.381   2.920
 7551WAT  MW   30204   0.062   5.462   2.922
 7552WAT  OW   30205   5.404   4.491   1.128
 7552WAT  HW1  30206   5.335   4.496   1.063
 7552WAT  HW2  30207   5.450   4.574   1.122
 7552WAT  MW   30208   5.401   4.502   1.119
 7553WAT  OW   30209   1.774   1.488   1.162
 7553WAT  HW1  30210   1.841   1.511   1.227
 7553WAT  HW2  30211   1.749   1.572   1.123
 7553WAT  MW   30212   1.780   1.502   1.166
 7554WAT  OW   30213   1.930   0.192   4.427
 7554WAT  HW1  30214   1.965   0.179   4.338
 7554WAT  HW2  30215   1.948   0.284   4.447
 7554WAT  MW   30216   1.937   0.202   4.418
 7555WAT  OW   30217   3.874   5.884   5.669
 7555WAT  HW1  30218   3.937   5.947   5.703
 7555WAT  HW2  30219   3.916   5.847   5.592
 7555WAT  MW   30220   3.888   5.888   5.663
 7556WAT  OW   30221   1.739   6.526   4.439
 7556WAT  HW1  30222   1.677   6.541   4.368
 7556WAT  HW2  30223   1.699   6.458   4.493
 7556WAT  MW   30224   1.726   6.519   4.437
 7557WAT  OW   30225   1.407   4.161   0.694
 7557WAT  HW1  30226   1.440   4.231   0.749
 7557WAT  HW2  30227   1.323   4.193   0.661
 7557WAT  MW   30228   1.400   4.174   0.697
 7558WAT  OW   30229   2.680   0.963   4.649
 7558WAT  HW1  30230   2.655   1.052   4.628
 7558WAT  HW2  30231   2.629   0.941   4.727
 7558WAT  MW   30232   2.670   0.972   4.657
 7559WAT  OW   30233   5.741   1.770   3.312
 7559WAT  HW1  30234   5.796   1.847   3.295
 7559WAT  HW2  30235   5.800   1.695   3.301
 7559WAT  MW   30236   5.756   1.770   3.309
 7560WAT  OW   30237   4.630   1.671   0.734
 7560WAT  HW1  30238   4.679   1.706   0.808
 7560WAT  HW2  30239   4.607   1.748   0.682
 7560WAT  MW   30240   4.633   1.686   0.737
 7561WAT  OW   30241   4.794   2.600   5.168
 7561WAT  HW1  30242   4.778   2.584   5.261
 7561WAT  HW2  30243   4.854   2.531   5.141
 7561WAT  MW   30244   4.800   2.589   5.177
 7562WAT  OW   30245   4.547   0.368   5.927
 7562WAT  HW1  30246   4.641   0.383   5.920
 7562WAT  HW2  30247   4.538   0.273   5.936
 7562WAT  MW   30248   4.558   0.357   5.927
 7563WAT  OW   30249   4.296   1.701   2.646
 7563WAT  HW1  30250   4.254   1.657   2.720
 7563WAT  HW2  30251   4.237   1.686   2.572
 7563WAT  MW   30252   4.283   1.693   2.646
 7564WAT  OW   30253   2.132   3.505   5.235
 7564WAT  HW1  30254   2.175   3.505   5.320
 7564WAT  HW2  30255   2.039   3.506   5.255
 7564WAT  MW   30256   2.125   3.505   5.249
 7565WAT  OW   30257   4.846   1.521   6.485
 7565WAT  HW1  30258   4.913   1.560   6.541
 7565WAT  HW2  30259   4.889   1.444   6.447
 7565WAT  MW   30260   4.861   1.516   6.487
 7566WAT  OW   30261   0.745   4.003   2.301
 7566WAT  HW1  30262   0.735   3.927   2.359
 7566WAT  HW2  30263   0.838   4.026   2.306
 7566WAT  MW   30264   0.756   3.996   2.309
 7567WAT  OW   30265   3.827   5.020   3.778
 7567WAT  HW1  30266   3.754   5.081   3.763
 7567WAT  HW2  30267   3.842   5.024   3.872
 7567WAT  MW   30268   3.819   5.028   3.788
 7568WAT  OW   30269   0.251   0.578   4.482
 7568WAT  HW1  30270   0.263   0.664   4.523
 7568WAT  HW2  30271   0.212   0.597   4.397
 7568WAT  MW   30272   0.247   0.592   4.476
 7569WAT  OW   30273   5.490   0.885   0.943
 7569WAT  HW1  30274   5.460   0.940   1.015
 7569WAT  HW2  30275   5.413   0.834   0.918
 7569WAT  MW   30276   5.476   0.885   0.949
 7570WAT  OW   30277   4.573   2.745   6.408
 7570WAT  HW1  30278   4.526   2.661   6.410
 7570WAT  HW2  30279   4.513   2.806   6.367
 7570WAT  MW   30280   4.559   2.742   6.403
 7571WAT  OW   30281   1.071   0.761   3.701
 7571WAT  HW1  30282   1.159   0.764   3.664
 7571WAT  HW2  30283   1.048   0.668   3.699
 7571WAT  MW   30284   1.080   0.749   3.696
 7572WAT  OW   30285   4.434   1.044   0.288
 7572WAT  HW1  30286   4.442   1.013   0.198
 7572WAT  HW2  30287   4.348   1.086   0.292
 7572WAT  MW   30288   4.424   1.045   0.277
 7573WAT  OW   30289   0.288   1.419   0.583
 7573WAT  HW1  30290   0.362   1.458   0.536
 7573WAT  HW2  30291   0.215   1.423   0.521
 7573WAT  MW   30292   0.288   1.425   0.568
 7574WAT  OW   30293   1.546   0.706   5.769
 7574WAT  HW1  30294   1.506   0.790   5.745
 7574WAT  HW2  30295   1.637   0.728   5.789
 7574WAT  MW   30296   1.553   0.720   5.769
 7575WAT  OW   30297   2.190   5.847   0.158
 7575WAT  HW1  30298   2.200   5.797   0.077
 7575WAT  HW2  30299   2.260   5.815   0.215
 7575WAT  MW   30300   2.201   5.836   0.155
 7576WAT  OW   30301   1.218   2.595   3.760
 7576WAT  HW1  30302   1.202   2.668   3.820
 7576WAT  HW2  30303   1.131   2.563   3.737
 7576WAT  MW   30304   1.205   2.600   3.765
 7577WAT  OW   30305   6.281   2.100   2.313
 7577WAT  HW1  30306   6.287   2.036   2.383
 7577WAT  HW2  30307   6.314   2.054   2.236
 7577WAT  MW   30308   6.286   2.086   2.312
 7578WAT  OW   30309   1.797   3.577   4.853
 7578WAT  HW1  30310   1.787   3.485   4.830
 7578WAT  HW2  30311   1.764   3.625   4.777
 7578WAT  MW   30312   1.791   3.571   4.840
 7579WAT  OW   30313   1.066   4.122   5.708
 7579WAT  HW1  30314   0.984   4.081   5.679
 7579WAT  HW2  30315   1.133   4.056   5.690
 7579WAT  MW   30316   1.064   4.108   5.702
 7580WAT  OW   30317   3.404   6.549   1.194
 7580WAT  HW1  30318   3.348   6.512   1.263
 7580WAT  HW2  30319   3.350   6.545   1.115
 7580WAT  MW   30320   3.389   6.543   1.193
 7581WAT  OW   30321   1.882   3.071   6.004
 7581WAT  HW1  30322   1.957   3.089   5.947
 7581WAT  HW2  30323   1.867   3.153   6.051
 7581WAT  MW   30324   1.890   3.084   6.002
 7582WAT  OW   30325   1.690   5.180   5.874
 7582WAT  HW1  30326   1.755   5.249   5.856
 7582WAT  HW2  30327   1.639   5.174   5.794
 7582WAT  MW   30328   1.692   5.188   5.861
 7583WAT  OW   30329   4.584   5.408   1.189
 7583WAT  HW1  30330   4.590   5.382   1.281
 7583WAT  HW2  30331   4.503   5.457   1.183
 7583WAT  MW   30332   4.574   5.411   1.200
 7584WAT  OW   30333   4.116   1.781   6.545
 7584WAT  HW1  30334   4.087   1.703   6.498
 7584WAT  HW2  30335   4.167   1.830   6.481
 7584WAT  MW   30336   4.119   1.777   6.531
 7585WAT  OW   30337   2.346   3.892   5.289
 7585WAT  HW1  30338   2.299   3.893   5.205
 7585WAT  HW2  30339   2.289   3.843   5.348
 7585WAT  MW   30340   2.332   3.886   5.286
 7586WAT  OW   30341   3.868   3.338   1.468
 7586WAT  HW1  30342   3.782   3.362   1.433
 7586WAT  HW2  30343   3.921   3.322   1.390
 7586WAT  MW   30344   3.863   3.339   1.453
 7587WAT  OW   30345   3.711   1.260   2.489
 7587WAT  HW1  30346   3.798   1.228   2.515
 7587WAT  HW2  30347   3.729   1.340   2.439
 7587WAT  MW   30348   3.725   1.267   2.486
 7588WAT  OW   30349   3.700   3.309   0.958
 7588WAT  HW1  30350   3.641   3.359   1.014
 7588WAT  HW2  30351   3.661   3.316   0.871
 7588WAT  MW   30352   3.687   3.317   0.954
 7589WAT  OW   30353   5.393   3.256   0.263
 7589WAT  HW1  30354   5.300   3.235   0.253
 7589WAT  HW2  30355   5.420   3.210   0.342
 7589WAT  MW   30356   5.384   3.247   0.272
 7590WAT  OW   30357   6.600   1.908   0.278
 7590WAT  HW1  30358   6.674   1.850   0.296
 7590WAT  HW2  30359   6.640   1.995   0.267
 7590WAT  MW   30360   6.615   1.912   0.279
 7591WAT  OW   30361   2.938   6.302   2.584
 7591WAT  HW1  30362   2.964   6.391   2.559
 7591WAT  HW2  30363   2.989   6.283   2.663
 7591WAT  MW   30364   2.948   6.311   2.591
 7592WAT  OW   30365   0.379   0.655   4.023
 7592WAT  HW1  30366   0.469   0.629   4.043
 7592WAT  HW2  30367   0.342   0.581   3.976
 7592WAT  MW   30368   0.386   0.642   4.020
 7593WAT  OW   30369   3.697   4.932   3.040
 7593WAT  HW1  30370   3.740   5.001   2.990
 7593WAT  HW2  30371   3.769   4.886   3.084
 7593WAT  MW   30372   3.712   4.935   3.040
 7594WAT  OW   30373   5.642   2.946   5.991
 7594WAT  HW1  30374   5.571   2.889   5.961
 7594WAT  HW2  30375   5.631   2.949   6.087
 7594WAT  MW   30376   5.631   2.939   6.000
 7595WAT  OW   30377   4.928   2.751   0.061
 7595WAT  HW1  30378   4.864   2.809   0.019
 7595WAT  HW2  30379   4.910   2.761   0.155
 7595WAT  MW   30380   4.917   2.760   0.068
 7596WAT  OW   30381   3.945   4.838   1.909
 7596WAT  HW1  30382   3.897   4.913   1.873
 7596WAT  HW2  30383   3.885   4.800   1.972
 7596WAT  MW   30384   3.931   4.843   1.913
 7597WAT  OW   30385   3.695   0.058   6.535
 7597WAT  HW1  30386   3.738  -0.021   6.568
 7597WAT  HW2  30387   3.679   0.039   6.442
 7597WAT  MW   30388   3.699   0.045   6.527
 7598WAT  OW   30389   6.134   2.135   2.849
 7598WAT  HW1  30390   6.218   2.118   2.893
 7598WAT  HW2  30391   6.116   2.227   2.867
 7598WAT  MW   30392   6.143   2.145   2.857
 7599WAT  OW   30393   1.425   4.592   2.587
 7599WAT  HW1  30394   1.341   4.607   2.631
 7599WAT  HW2  30395   1.415   4.633   2.502
 7599WAT  MW   30396   1.413   4.599   2.582
 7600WAT  OW   30397   1.721   4.100   5.934
 7600WAT  HW1  30398   1.667   4.092   5.855
 7600WAT  HW2  30399   1.744   4.192   5.938
 7600WAT  MW   30400   1.717   4.111   5.924
 7601WAT  OW   30401   6.519   4.681   5.014
 7601WAT  HW1  30402   6.455   4.739   4.973
 7601WAT  HW2  30403   6.480   4.593   5.005
 7601WAT  MW   30404   6.505   4.677   5.007
 7602WAT  OW   30405   2.516   1.739   5.855
 7602WAT  HW1  30406   2.590   1.779   5.902
 7602WAT  HW2  30407   2.518   1.647   5.882
 7602WAT  MW   30408   2.526   1.732   5.865
 7603WAT  OW   30409   3.256   2.482   4.647
 7603WAT  HW1  30410   3.290   2.448   4.564
 7603WAT  HW2  30411   3.162   2.463   4.644
 7603WAT  MW   30412   3.248   2.475   4.636
 7604WAT  OW   30413   0.859   1.924   5.267
 7604WAT  HW1  30414   0.873   1.991   5.333
 7604WAT  HW2  30415   0.855   1.972   5.184
 7604WAT  MW   30416   0.860   1.939   5.265
 7605WAT  OW   30417   1.660   1.837   6.062
 7605WAT  HW1  30418   1.716   1.773   6.106
 7605WAT  HW2  30419   1.580   1.839   6.114
 7605WAT  MW   30420   1.657   1.829   6.075
 7606WAT  OW   30421   3.059   5.827   0.967
 7606WAT  HW1  30422   3.078   5.911   0.926
 7606WAT  HW2  30423   3.127   5.816   1.033
 7606WAT  MW   30424   3.071   5.836   0.970
 7607WAT  OW   30425   2.530   6.361   0.011
 7607WAT  HW1  30426   2.617   6.330  -0.015
 7607WAT  HW2  30427   2.536   6.456   0.007
 7607WAT  MW   30428   2.542   6.369   0.007
 7608WAT  OW   30429   4.047   2.509   2.759
 7608WAT  HW1  30430   4.071   2.495   2.851
 7608WAT  HW2  30431   4.099   2.585   2.732
 7608WAT  MW   30432   4.057   2.517   2.767
 7609WAT  OW   30433   1.924   5.927   3.359
 7609WAT  HW1  30434   2.020   5.920   3.355
 7609WAT  HW2  30435   1.901   5.973   3.278
 7609WAT  MW   30436   1.934   5.932   3.348
 7610WAT  OW   30437   1.186   2.777   1.422
 7610WAT  HW1  30438   1.266   2.729   1.401
 7610WAT  HW2  30439   1.134   2.773   1.342
 7610WAT  MW   30440   1.190   2.770   1.409
 7611WAT  OW   30441   6.144   1.037   3.850
 7611WAT  HW1  30442   6.207   0.992   3.793
 7611WAT  HW2  30443   6.132   1.123   3.808
 7611WAT  MW   30444   6.151   1.043   3.837
 7612WAT  OW   30445   4.686   3.680   0.632
 7612WAT  HW1  30446   4.724   3.605   0.677
 7612WAT  HW2  30447   4.595   3.682   0.661
 7612WAT  MW   30448   4.679   3.670   0.642
 7613WAT  OW   30449   5.491   6.532   1.732
 7613WAT  HW1  30450   5.542   6.474   1.675
 7613WAT  HW2  30451   5.453   6.596   1.672
 7613WAT  MW   30452   5.493   6.533   1.716
 7614WAT  OW   30453   0.448   3.264   4.589
 7614WAT  HW1  30454   0.490   3.190   4.632
 7614WAT  HW2  30455   0.500   3.279   4.510
 7614WAT  MW   30456   0.460   3.257   4.584
 7615WAT  OW   30457   4.114   4.818   4.614
 7615WAT  HW1  30458   4.198   4.858   4.588
 7615WAT  HW2  30459   4.131   4.781   4.701
 7615WAT  MW   30460   4.128   4.819   4.622
 7616WAT  OW   30461   1.368   3.754   0.168
 7616WAT  HW1  30462   1.375   3.790   0.257
 7616WAT  HW2  30463   1.447   3.785   0.124
 7616WAT  MW   30464   1.380   3.763   0.174
 7617WAT  OW   30465   1.512   3.285   6.043
 7617WAT  HW1  30466   1.542   3.373   6.019
 7617WAT  HW2  30467   1.416   3.293   6.045
 7617WAT  MW   30468   1.503   3.298   6.040
 7618WAT  OW   30469   5.621   5.000   4.237
 7618WAT  HW1  30470   5.563   5.033   4.169
 7618WAT  HW2  30471   5.595   5.048   4.316
 7618WAT  MW   30472   5.610   5.011   4.239
 7619WAT  OW   30473   3.067   2.584   5.314
 7619WAT  HW1  30474   2.980   2.551   5.334
 7619WAT  HW2  30475   3.074   2.664   5.366
 7619WAT  MW   30476   3.057   2.590   5.324
 7620WAT  OW   30477   5.666   5.064   0.614
 7620WAT  HW1  30478   5.729   5.069   0.686
 7620WAT  HW2  30479   5.611   4.988   0.636
 7620WAT  MW   30480   5.667   5.054   0.627
 7621WAT  OW   30481   5.390   0.672   2.807
 7621WAT  HW1  30482   5.331   0.738   2.772
 7621WAT  HW2  30483   5.378   0.676   2.902
 7621WAT  MW   30484   5.380   0.681   2.815
 7622WAT  OW   30485   2.420   4.732   0.713
 7622WAT  HW1  30486   2.388   4.759   0.627
 7622WAT  HW2  30487   2.343   4.737   0.770
 7622WAT  MW   30488   2.406   4.736   0.709
 7623WAT  OW   30489   5.991   4.802   5.626
 7623WAT  HW1  30490   6.045   4.735   5.667
 7623WAT  HW2  30491   5.901   4.777   5.646
 7623WAT  MW   30492   5.987   4.790   5.634
 7624WAT  OW   30493   4.064   3.848   6.670
 7624WAT  HW1  30494   4.145   3.799   6.684
 7624WAT  HW2  30495   4.016   3.798   6.603
 7624WAT  MW   30496   4.068   3.835   6.663
 7625WAT  OW   30497   6.455   5.470   1.761
 7625WAT  HW1  30498   6.444   5.560   1.792
 7625WAT  HW2  30499   6.380   5.453   1.705
 7625WAT  MW   30500   6.444   5.479   1.758
 7626WAT  OW   30501   5.088   5.529   5.492
 7626WAT  HW1  30502   5.029   5.474   5.440
 7626WAT  HW2  30503   5.176   5.506   5.460
 7626WAT  MW   30504   5.092   5.519   5.481
 7627WAT  OW   30505   0.294   3.005   2.524
 7627WAT  HW1  30506   0.223   2.964   2.574
 7627WAT  HW2  30507   0.319   3.081   2.577
 7627WAT  MW   30508   0.288   3.010   2.538
 7628WAT  OW   30509   0.345   1.804   3.527
 7628WAT  HW1  30510   0.377   1.795   3.437
 7628WAT  HW2  30511   0.252   1.826   3.517
 7628WAT  MW   30512   0.337   1.805   3.514
 7629WAT  OW   30513   5.297   2.283   0.120
 7629WAT  HW1  30514   5.335   2.238   0.196
 7629WAT  HW2  30515   5.222   2.331   0.156
 7629WAT  MW   30516   5.292   2.283   0.135
 7630WAT  OW   30517   5.216   5.778   6.624
 7630WAT  HW1  30518   5.279   5.812   6.688
 7630WAT  HW2  30519   5.199   5.689   6.653
 7630WAT  MW   30520   5.222   5.771   6.636
 7631WAT  OW   30521   4.133   3.189   4.169
 7631WAT  HW1  30522   4.213   3.222   4.130
 7631WAT  HW2  30523   4.106   3.257   4.231
 7631WAT  MW   30524   4.140   3.202   4.172
 7632WAT  OW   30525   4.368   4.825   0.824
 7632WAT  HW1  30526   4.326   4.742   0.845
 7632WAT  HW2  30527   4.348   4.882   0.899
 7632WAT  MW   30528   4.360   4.822   0.837
 7633WAT  OW   30529   1.242   1.947   4.568
 7633WAT  HW1  30530   1.231   1.954   4.663
 7633WAT  HW2  30531   1.162   1.984   4.532
 7633WAT  MW   30532   1.230   1.953   4.576
 7634WAT  OW   30533   4.128   3.678   2.071
 7634WAT  HW1  30534   4.129   3.726   1.988
 7634WAT  HW2  30535   4.042   3.698   2.109
 7634WAT  MW   30536   4.117   3.687   2.065
 7635WAT  OW   30537   1.941   1.093   0.643
 7635WAT  HW1  30538   1.999   1.125   0.574
 7635WAT  HW2  30539   1.868   1.156   0.644
 7635WAT  MW   30540   1.939   1.105   0.634
 7636WAT  OW   30541   0.194   4.561   6.435
 7636WAT  HW1  30542   0.280   4.602   6.445
 7636WAT  HW2  30543   0.187   4.502   6.510
 7636WAT  MW   30544   0.204   4.558   6.446
 7637WAT  OW   30545   2.932   5.649   2.998
 7637WAT  HW1  30546   2.933   5.630   2.904
 7637WAT  HW2  30547   2.872   5.723   3.007
 7637WAT  MW   30548   2.924   5.656   2.987
 7638WAT  OW   30549   4.078   2.487   3.054
 7638WAT  HW1  30550   4.055   2.554   3.118
 7638WAT  HW2  30551   4.023   2.413   3.077
 7638WAT  MW   30552   4.068   2.486   3.065
 7639WAT  OW   30553   4.957   3.572   5.470
 7639WAT  HW1  30554   4.873   3.560   5.514
 7639WAT  HW2  30555   5.012   3.501   5.504
 7639WAT  MW   30556   4.953   3.561   5.481
 7640WAT  OW   30557   1.756   2.230   1.657
 7640WAT  HW1  30558   1.815   2.155   1.667
 7640WAT  HW2  30559   1.726   2.248   1.746
 7640WAT  MW   30560   1.760   2.222   1.670
 7641WAT  OW   30561   6.399   3.997   1.373
 7641WAT  HW1  30562   6.377   3.989   1.466
 7641WAT  HW2  30563   6.343   4.067   1.341
 7641WAT  MW   30564   6.389   4.005   1.381
 7642WAT  OW   30565   3.769   0.001   5.023
 7642WAT  HW1  30566   3.861  -0.007   5.049
 7642WAT  HW2  30567   3.756   0.096   5.016
 7642WAT  MW   30568   3.779   0.013   5.026
 7643WAT  OW   30569   0.718   5.962   3.579
 7643WAT  HW1  30570   0.769   5.887   3.548
 7643WAT  HW2  30571   0.629   5.945   3.550
 7643WAT  MW   30572   0.713   5.950   3.571
 7644WAT  OW   30573   0.391   5.632   0.696
 7644WAT  HW1  30574   0.463   5.695   0.692
 7644WAT  HW2  30575   0.359   5.626   0.606
 7644WAT  MW   30576   0.396   5.639   0.683
 7645WAT  OW   30577   0.825   0.661   0.570
 7645WAT  HW1  30578   0.779   0.579   0.549
 7645WAT  HW2  30579   0.778   0.728   0.521
 7645WAT  MW   30580   0.813   0.659   0.561
 7646WAT  OW   30581   0.564   2.055   3.432
 7646WAT  HW1  30582   0.625   2.023   3.366
 7646WAT  HW2  30583   0.569   1.991   3.503
 7646WAT  MW   30584   0.573   2.043   3.433
 7647WAT  OW   30585   2.935   3.331   2.544
 7647WAT  HW1  30586   2.893   3.245   2.540
 7647WAT  HW2  30587   2.954   3.344   2.637
 7647WAT  MW   30588   2.932   3.321   2.556
 7648WAT  OW   30589   3.866   2.236   2.347
 7648WAT  HW1  30590   3.827   2.219   2.433
 7648WAT  HW2  30591   3.825   2.173   2.288
 7648WAT  MW   30592   3.855   2.226   2.351
 7649WAT  OW   30593   3.643   6.238   4.315
 7649WAT  HW1  30594   3.692   6.314   4.284
 7649WAT  HW2  30595   3.577   6.274   4.374
 7649WAT  MW   30596   3.641   6.252   4.319
 7650WAT  OW   30597   5.261   2.754   1.614
 7650WAT  HW1  30598   5.294   2.690   1.550
 7650WAT  HW2  30599   5.271   2.710   1.698
 7650WAT  MW   30600   5.267   2.739   1.616
 7651WAT  OW   30601   0.534   1.759   5.750
 7651WAT  HW1  30602   0.482   1.723   5.678
 7651WAT  HW2  30603   0.623   1.727   5.734
 7651WAT  MW   30604   0.539   1.750   5.738
 7652WAT  OW   30605   2.629   0.944   1.134
 7652WAT  HW1  30606   2.648   1.003   1.206
 7652WAT  HW2  30607   2.710   0.896   1.120
 7652WAT  MW   30608   2.642   0.945   1.141
 7653WAT  OW   30609   5.791   3.572   1.375
 7653WAT  HW1  30610   5.815   3.637   1.441
 7653WAT  HW2  30611   5.698   3.556   1.389
 7653WAT  MW   30612   5.782   3.579   1.385
 7654WAT  OW   30613   0.437   0.941   5.436
 7654WAT  HW1  30614   0.510   0.942   5.498
 7654WAT  HW2  30615   0.370   0.887   5.478
 7654WAT  MW   30616   0.438   0.934   5.449
 7655WAT  OW   30617   0.221   3.786   5.344
 7655WAT  HW1  30618   0.298   3.729   5.354
 7655WAT  HW2  30619   0.149   3.734   5.378
 7655WAT  MW   30620   0.222   3.772   5.350
 7656WAT  OW   30621   5.614   2.043   1.629
 7656WAT  HW1  30622   5.642   2.134   1.639
 7656WAT  HW2  30623   5.696   1.994   1.623
 7656WAT  MW   30624   5.629   2.049   1.630
 7657WAT  OW   30625   6.419   0.258   1.186
 7657WAT  HW1  30626   6.490   0.195   1.201
 7657WAT  HW2  30627   6.345   0.205   1.158
 7657WAT  MW   30628   6.419   0.243   1.184
 7658WAT  OW   30629   3.241   6.593   4.655
 7658WAT  HW1  30630   3.175   6.662   4.654
 7658WAT  HW2  30631   3.194   6.515   4.624
 7658WAT  MW   30632   3.226   6.592   4.651
 7659WAT  OW   30633   6.533   5.916   0.560
 7659WAT  HW1  30634   6.516   5.953   0.473
 7659WAT  HW2  30635   6.461   5.948   0.615
 7659WAT  MW   30636   6.521   5.925   0.556
 7660WAT  OW   30637   4.917   5.868   4.885
 7660WAT  HW1  30638   4.980   5.806   4.921
 7660WAT  HW2  30639   4.861   5.891   4.959
 7660WAT  MW   30640   4.918   5.863   4.900
 7661WAT  OW   30641   5.673   2.544   5.735
 7661WAT  HW1  30642   5.584   2.531   5.704
 7661WAT  HW2  30643   5.719   2.464   5.709
 7661WAT  MW   30644   5.667   2.532   5.728
 7662WAT  OW   30645   6.219   4.486   3.644
 7662WAT  HW1  30646   6.312   4.510   3.641
 7662WAT  HW2  30647   6.197   4.464   3.553
 7662WAT  MW   30648   6.228   4.486   3.631
 7663WAT  OW   30649   3.972   5.390   4.356
 7663WAT  HW1  30650   3.965   5.310   4.408
 7663WAT  HW2  30651   3.898   5.444   4.386
 7663WAT  MW   30652   3.961   5.387   4.367
 7664WAT  OW   30653   5.499   2.323   5.404
 7664WAT  HW1  30654   5.455   2.384   5.345
 7664WAT  HW2  30655   5.591   2.326   5.378
 7664WAT  MW   30656   5.506   2.331   5.393
 7665WAT  OW   30657   1.007   4.074   2.252
 7665WAT  HW1  30658   1.023   4.120   2.169
 7665WAT  HW2  30659   1.045   3.988   2.239
 7665WAT  MW   30660   1.014   4.069   2.239
 7666WAT  OW   30661   0.953   6.488   1.798
 7666WAT  HW1  30662   0.933   6.405   1.755
 7666WAT  HW2  30663   1.018   6.530   1.741
 7666WAT  MW   30664   0.959   6.483   1.785
 7667WAT  OW   30665   5.617   6.569   4.215
 7667WAT  HW1  30666   5.533   6.562   4.259
 7667WAT  HW2  30667   5.678   6.599   4.284
 7667WAT  MW   30668   5.614   6.572   4.230
 7668WAT  OW   30669   6.215   2.742   6.123
 7668WAT  HW1  30670   6.282   2.759   6.190
 7668WAT  HW2  30671   6.133   2.771   6.162
 7668WAT  MW   30672   6.213   2.748   6.137
 7669WAT  OW   30673   3.073   4.746   1.769
 7669WAT  HW1  30674   3.030   4.815   1.718
 7669WAT  HW2  30675   3.033   4.753   1.856
 7669WAT  MW   30676   3.062   4.756   1.774
 7670WAT  OW   30677   4.685   3.301   5.685
 7670WAT  HW1  30678   4.662   3.323   5.776
 7670WAT  HW2  30679   4.674   3.383   5.638
 7670WAT  MW   30680   4.680   3.315   5.691
 7671WAT  OW   30681   6.014   3.650   6.048
 7671WAT  HW1  30682   5.987   3.736   6.017
 7671WAT  HW2  30683   5.978   3.589   5.984
 7671WAT  MW   30684   6.006   3.653   6.035
 7672WAT  OW   30685   0.499   4.050   4.033
 7672WAT  HW1  30686   0.562   4.044   3.961
 7672WAT  HW2  30687   0.414   4.033   3.992
 7672WAT  MW   30688   0.496   4.047   4.018
 7673WAT  OW   30689   3.135   1.804   6.103
 7673WAT  HW1  30690   3.146   1.712   6.077
 7673WAT  HW2  30691   3.209   1.849   6.062
 7673WAT  MW   30692   3.146   1.798   6.094
 7674WAT  OW   30693   2.028   0.532   4.262
 7674WAT  HW1  30694   2.111   0.484   4.256
 7674WAT  HW2  30695   1.998   0.516   4.351
 7674WAT  MW   30696   2.035   0.523   4.273
 7675WAT  OW   30697   2.774   2.044   6.659
 7675WAT  HW1  30698   2.738   2.109   6.719
 7675WAT  HW2  30699   2.727   1.963   6.680
 7675WAT  MW   30700   2.763   2.042   6.669
 7676WAT  OW   30701   4.679   1.274   1.629
 7676WAT  HW1  30702   4.733   1.323   1.568
 7676WAT  HW2  30703   4.741   1.219   1.678
 7676WAT  MW   30704   4.694   1.273   1.628
 7677WAT  OW   30705   6.160   3.066   1.236
 7677WAT  HW1  30706   6.152   3.161   1.240
 7677WAT  HW2  30707   6.253   3.050   1.221
 7677WAT  MW   30708   6.171   3.076   1.234
 7678WAT  OW   30709   3.397   2.245   3.956
 7678WAT  HW1  30710   3.442   2.161   3.964
 7678WAT  HW2  30711   3.304   2.224   3.962
 7678WAT  MW   30712   3.391   2.231   3.958
 7679WAT  OW   30713   0.190   5.378   4.197
 7679WAT  HW1  30714   0.149   5.305   4.150
 7679WAT  HW2  30715   0.180   5.453   4.138
 7679WAT  MW   30716   0.183   5.378   4.183
 7680WAT  OW   30717   4.071   1.192   3.906
 7680WAT  HW1  30718   4.099   1.160   3.991
 7680WAT  HW2  30719   4.137   1.257   3.882
 7680WAT  MW   30720   4.083   1.197   3.914
 7681WAT  OW   30721   1.044   4.033   1.149
 7681WAT  HW1  30722   1.011   3.968   1.211
 7681WAT  HW2  30723   0.966   4.069   1.107
 7681WAT  MW   30724   1.029   4.029   1.152
 7682WAT  OW   30725   1.758   1.716   4.694
 7682WAT  HW1  30726   1.799   1.630   4.701
 7682WAT  HW2  30727   1.727   1.721   4.603
 7682WAT  MW   30728   1.759   1.706   4.683
 7683WAT  OW   30729   2.025   2.339   1.896
 7683WAT  HW1  30730   2.053   2.408   1.957
 7683WAT  HW2  30731   2.036   2.378   1.809
 7683WAT  MW   30732   2.030   2.354   1.893
 7684WAT  OW   30733   4.176   3.005   6.348
 7684WAT  HW1  30734   4.157   3.077   6.288
 7684WAT  HW2  30735   4.093   2.959   6.358
 7684WAT  MW   30736   4.163   3.008   6.341
 7685WAT  OW   30737   3.730   6.197   4.674
 7685WAT  HW1  30738   3.653   6.180   4.729
 7685WAT  HW2  30739   3.694   6.219   4.588
 7685WAT  MW   30740   3.715   6.198   4.670
 7686WAT  OW   30741   1.125   0.076   4.718
 7686WAT  HW1  30742   1.140   0.097   4.626
 7686WAT  HW2  30743   1.199   0.019   4.741
 7686WAT  MW   30744   1.137   0.071   4.709
 7687WAT  OW   30745   0.353   5.849   2.849
 7687WAT  HW1  30746   0.429   5.803   2.815
 7687WAT  HW2  30747   0.375   5.942   2.842
 7687WAT  MW   30748   0.366   5.855   2.843
 7688WAT  OW   30749   1.848   0.981   5.870
 7688WAT  HW1  30750   1.844   0.892   5.834
 7688WAT  HW2  30751   1.782   0.982   5.938
 7688WAT  MW   30752   1.839   0.969   5.874
 7689WAT  OW   30753   4.637   1.537   3.203
 7689WAT  HW1  30754   4.693   1.470   3.163
 7689WAT  HW2  30755   4.549   1.501   3.197
 7689WAT  MW   30756   4.633   1.523   3.197
 7690WAT  OW   30757   2.437   3.290   5.642
 7690WAT  HW1  30758   2.439   3.324   5.553
 7690WAT  HW2  30759   2.422   3.196   5.632
 7690WAT  MW   30760   2.435   3.282   5.629
 7691WAT  OW   30761   5.026   2.242   6.543
 7691WAT  HW1  30762   4.983   2.328   6.545
 7691WAT  HW2  30763   5.008   2.204   6.629
 7691WAT  MW   30764   5.018   2.248   6.555
 7692WAT  OW   30765   0.686   4.383   3.006
 7692WAT  HW1  30766   0.746   4.309   3.000
 7692WAT  HW2  30767   0.726   4.442   3.070
 7692WAT  MW   30768   0.699   4.381   3.014
 7693WAT  OW   30769   0.116   2.073   3.088
 7693WAT  HW1  30770   0.141   2.150   3.138
 7693WAT  HW2  30771   0.054   2.105   3.023
 7693WAT  MW   30772   0.112   2.087   3.086
 7694WAT  OW   30773   4.036   0.696   1.942
 7694WAT  HW1  30774   3.968   0.697   1.875
 7694WAT  HW2  30775   4.036   0.785   1.978
 7694WAT  MW   30776   4.027   0.708   1.938
 7695WAT  OW   30777   4.369   5.868   2.743
 7695WAT  HW1  30778   4.440   5.923   2.778
 7695WAT  HW2  30779   4.396   5.779   2.762
 7695WAT  MW   30780   4.382   5.864   2.750
 7696WAT  OW   30781   2.695   4.502   0.264
 7696WAT  HW1  30782   2.756   4.545   0.324
 7696WAT  HW2  30783   2.623   4.564   0.255
 7696WAT  MW   30784   2.694   4.515   0.271
 7697WAT  OW   30785   1.434   2.529   5.609
 7697WAT  HW1  30786   1.499   2.461   5.629
 7697WAT  HW2  30787   1.480   2.588   5.549
 7697WAT  MW   30788   1.449   2.528   5.604
 7698WAT  OW   30789   2.465   5.947   0.031
 7698WAT  HW1  30790   2.530   5.908   0.090
 7698WAT  HW2  30791   2.429   6.021   0.080
 7698WAT  MW   30792   2.469   5.951   0.045
 7699WAT  OW   30793   5.306   2.874   0.899
 7699WAT  HW1  30794   5.232   2.848   0.844
 7699WAT  HW2  30795   5.279   2.852   0.988
 7699WAT  MW   30796   5.293   2.868   0.903
 7700WAT  OW   30797   4.681   2.637   4.600
 7700WAT  HW1  30798   4.723   2.552   4.587
 7700WAT  HW2  30799   4.753   2.698   4.616
 7700WAT  MW   30800   4.696   2.634   4.601
 7701WAT  OW   30801   6.160   1.332   5.671
 7701WAT  HW1  30802   6.193   1.252   5.711
 7701WAT  HW2  30803   6.170   1.317   5.577
 7701WAT  MW   30804   6.166   1.319   5.664
 7702WAT  OW   30805   5.210   2.931   6.051
 7702WAT  HW1  30806   5.234   3.019   6.082
 7702WAT  HW2  30807   5.225   2.875   6.127
 7702WAT  MW   30808   5.215   2.935   6.065
 7703WAT  OW   30809   3.278   1.517   2.772
 7703WAT  HW1  30810   3.250   1.581   2.706
 7703WAT  HW2  30811   3.259   1.432   2.732
 7703WAT  MW   30812   3.272   1.514   2.758
 7704WAT  OW   30813   2.220   0.303   0.205
 7704WAT  HW1  30814   2.277   0.296   0.281
 7704WAT  HW2  30815   2.181   0.215   0.197
 7704WAT  MW   30816   2.222   0.290   0.214
 7705WAT  OW   30817   3.728   1.876   3.544
 7705WAT  HW1  30818   3.712   1.856   3.452
 7705WAT  HW2  30819   3.752   1.968   3.545
 7705WAT  MW   30820   3.729   1.885   3.532
 7706WAT  OW   30821   4.558   3.939   1.375
 7706WAT  HW1  30822   4.480   3.995   1.371
 7706WAT  HW2  30823   4.632   3.999   1.364
 7706WAT  MW   30824   4.557   3.954   1.373
 7707WAT  OW   30825   2.810   6.429   4.856
 7707WAT  HW1  30826   2.766   6.408   4.938
 7707WAT  HW2  30827   2.810   6.525   4.851
 7707WAT  MW   30828   2.804   6.439   4.866
 7708WAT  OW   30829   2.146   0.907   3.163
 7708WAT  HW1  30830   2.136   0.978   3.101
 7708WAT  HW2  30831   2.224   0.929   3.214
 7708WAT  MW   30832   2.155   0.919   3.162
 7709WAT  OW   30833   6.042   0.337   3.069
 7709WAT  HW1  30834   5.966   0.351   3.126
 7709WAT  HW2  30835   6.005   0.338   2.981
 7709WAT  MW   30836   6.027   0.339   3.065
 7710WAT  OW   30837   1.759   5.656   4.349
 7710WAT  HW1  30838   1.778   5.747   4.326
 7710WAT  HW2  30839   1.666   5.656   4.371
 7710WAT  MW   30840   1.749   5.668   4.349
 7711WAT  OW   30841   2.500   3.773   6.565
 7711WAT  HW1  30842   2.525   3.771   6.472
 7711WAT  HW2  30843   2.409   3.802   6.564
 7711WAT  MW   30844   2.491   3.776   6.552
 7712WAT  OW   30845   5.143   1.663   5.186
 7712WAT  HW1  30846   5.148   1.674   5.091
 7712WAT  HW2  30847   5.234   1.652   5.213
 7712WAT  MW   30848   5.156   1.663   5.177
 7713WAT  OW   30849   3.082   1.089   6.055
 7713WAT  HW1  30850   2.989   1.070   6.040
 7713WAT  HW2  30851   3.084   1.184   6.070
 7713WAT  MW   30852   3.070   1.099   6.055
 7714WAT  OW   30853   6.066   0.720   6.156
 7714WAT  HW1  30854   6.148   0.705   6.110
 7714WAT  HW2  30855   6.005   0.746   6.087
 7714WAT  MW   30856   6.069   0.721   6.141
 7715WAT  OW   30857   4.452   5.684   1.537
 7715WAT  HW1  30858   4.380   5.706   1.478
 7715WAT  HW2  30859   4.411   5.675   1.623
 7715WAT  MW   30860   4.437   5.686   1.540
 7716WAT  OW   30861   2.877   6.162   6.347
 7716WAT  HW1  30862   2.821   6.186   6.421
 7716WAT  HW2  30863   2.862   6.068   6.337
 7716WAT  MW   30864   2.867   6.152   6.356
 7717WAT  OW   30865   5.856   3.365   2.920
 7717WAT  HW1  30866   5.865   3.346   2.827
 7717WAT  HW2  30867   5.834   3.281   2.960
 7717WAT  MW   30868   5.854   3.352   2.913
 7718WAT  OW   30869   5.965   5.539   3.745
 7718WAT  HW1  30870   5.969   5.628   3.712
 7718WAT  HW2  30871   5.874   5.526   3.771
 7718WAT  MW   30872   5.954   5.549   3.745
 7719WAT  OW   30873   0.198   5.793   3.215
 7719WAT  HW1  30874   0.160   5.823   3.297
 7719WAT  HW2  30875   0.286   5.764   3.239
 7719WAT  MW   30876   0.205   5.793   3.229
 7720WAT  OW   30877   1.107   2.097   0.577
 7720WAT  HW1  30878   1.014   2.115   0.564
 7720WAT  HW2  30879   1.146   2.183   0.591
 7720WAT  MW   30880   1.100   2.110   0.577
 7721WAT  OW   30881   5.067   0.634   0.289
 7721WAT  HW1  30882   5.102   0.631   0.378
 7721WAT  HW2  30883   5.004   0.562   0.286
 7721WAT  MW   30884   5.063   0.624   0.301
 7722WAT  OW   30885   4.981   1.572   3.313
 7722WAT  HW1  30886   4.959   1.480   3.328
 7722WAT  HW2  30887   5.045   1.571   3.242
 7722WAT  MW   30888   4.986   1.560   3.305
 7723WAT  OW   30889   1.142   3.578   2.015
 7723WAT  HW1  30890   1.222   3.529   2.036
 7723WAT  HW2  30891   1.163   3.624   1.933
 7723WAT  MW   30892   1.156   3.578   2.007
 7724WAT  OW   30893   5.408   1.450   1.305
 7724WAT  HW1  30894   5.372   1.375   1.352
 7724WAT  HW2  30895   5.477   1.483   1.361
 7724WAT  MW   30896   5.412   1.445   1.318
 7725WAT  OW   30897   1.702   0.188   1.861
 7725WAT  HW1  30898   1.685   0.253   1.929
 7725WAT  HW2  30899   1.622   0.135   1.858
 7725WAT  MW   30900   1.689   0.189   1.870
 7726WAT  OW   30901   5.301   3.689   5.361
 7726WAT  HW1  30902   5.243   3.716   5.290
 7726WAT  HW2  30903   5.342   3.608   5.329
 7726WAT  MW   30904   5.299   3.682   5.347
 7727WAT  OW   30905   3.551   4.662   1.396
 7727WAT  HW1  30906   3.455   4.654   1.396
 7727WAT  HW2  30907   3.582   4.571   1.402
 7727WAT  MW   30908   3.542   4.649   1.397
 7728WAT  OW   30909   5.030   4.849   5.695
 7728WAT  HW1  30910   5.050   4.880   5.783
 7728WAT  HW2  30911   5.075   4.765   5.688
 7728WAT  MW   30912   5.039   4.842   5.706
 7729WAT  OW   30913   4.805   3.219   4.970
 7729WAT  HW1  30914   4.753   3.176   5.037
 7729WAT  HW2  30915   4.782   3.311   4.977
 7729WAT  MW   30916   4.795   3.225   4.980
 7730WAT  OW   30917   4.614   2.453   1.286
 7730WAT  HW1  30918   4.683   2.489   1.341
 7730WAT  HW2  30919   4.644   2.466   1.196
 7730WAT  MW   30920   4.627   2.459   1.281
 7731WAT  OW   30921   2.737   2.179   1.913
 7731WAT  HW1  30922   2.671   2.243   1.885
 7731WAT  HW2  30923   2.818   2.209   1.873
 7731WAT  MW   30924   2.739   2.191   1.904
 7732WAT  OW   30925   2.319   2.474   0.281
 7732WAT  HW1  30926   2.378   2.547   0.302
 7732WAT  HW2  30927   2.239   2.493   0.331
 7732WAT  MW   30928   2.316   2.486   0.290
 7733WAT  OW   30929   4.932   3.078   3.411
 7733WAT  HW1  30930   4.929   3.030   3.328
 7733WAT  HW2  30931   4.996   3.030   3.463
 7733WAT  MW   30932   4.940   3.065   3.407
 7734WAT  OW   30933   0.721   1.259   3.217
 7734WAT  HW1  30934   0.674   1.187   3.259
 7734WAT  HW2  30935   0.722   1.329   3.282
 7734WAT  MW   30936   0.715   1.258   3.231
 7735WAT  OW   30937   4.977   6.120   6.386
 7735WAT  HW1  30938   5.000   6.052   6.449
 7735WAT  HW2  30939   5.059   6.142   6.342
 7735WAT  MW   30940   4.991   6.114   6.389
 7736WAT  OW   30941   4.247   6.141   0.891
 7736WAT  HW1  30942   4.236   6.226   0.848
 7736WAT  HW2  30943   4.288   6.162   0.975
 7736WAT  MW   30944   4.251   6.155   0.897
 7737WAT  OW   30945   2.448   3.440   0.195
 7737WAT  HW1  30946   2.396   3.365   0.223
 7737WAT  HW2  30947   2.429   3.448   0.101
 7737WAT  MW   30948   2.439   3.431   0.186
 7738WAT  OW   30949   2.125   1.856   4.803
 7738WAT  HW1  30950   2.038   1.896   4.802
 7738WAT  HW2  30951   2.109   1.763   4.786
 7738WAT  MW   30952   2.112   1.849   4.801
 7739WAT  OW   30953   5.022   4.157   0.986
 7739WAT  HW1  30954   5.108   4.175   1.023
 7739WAT  HW2  30955   5.040   4.137   0.894
 7739WAT  MW   30956   5.036   4.157   0.978
 7740WAT  OW   30957   5.398   3.600   3.335
 7740WAT  HW1  30958   5.362   3.526   3.384
 7740WAT  HW2  30959   5.383   3.676   3.392
 7740WAT  MW   30960   5.391   3.601   3.349
 7741WAT  OW   30961   0.406   4.327   4.957
 7741WAT  HW1  30962   0.316   4.307   4.931
 7741WAT  HW2  30963   0.402   4.337   5.052
 7741WAT  MW   30964   0.393   4.326   4.966
 7742WAT  OW   30965   3.950   1.013   1.827
 7742WAT  HW1  30966   4.037   1.050   1.816
 7742WAT  HW2  30967   3.915   1.006   1.738
 7742WAT  MW   30968   3.957   1.017   1.814
 7743WAT  OW   30969   4.458   4.180   2.921
 7743WAT  HW1  30970   4.448   4.275   2.921
 7743WAT  HW2  30971   4.542   4.165   2.964
 7743WAT  MW   30972   4.468   4.191   2.927
 7744WAT  OW   30973   5.893   0.842   5.985
 7744WAT  HW1  30974   5.936   0.918   6.023
 7744WAT  HW2  30975   5.800   0.866   5.983
 7744WAT  MW   30976   5.886   0.855   5.989
 7745WAT  OW   30977   5.189   2.643   0.429
 7745WAT  HW1  30978   5.243   2.581   0.477
 7745WAT  HW2  30979   5.252   2.704   0.390
 7745WAT  MW   30980   5.205   2.643   0.430
 7746WAT  OW   30981   6.672   6.441   5.318
 7746WAT  HW1  30982   6.739   6.377   5.295
 7746WAT  HW2  30983   6.710   6.526   5.295
 7746WAT  MW   30984   6.686   6.444   5.312
 7747WAT  OW   30985   2.849   4.122   0.240
 7747WAT  HW1  30986   2.770   4.175   0.254
 7747WAT  HW2  30987   2.921   4.183   0.252
 7747WAT  MW   30988   2.848   4.137   0.244
 7748WAT  OW   30989   4.752   2.499   3.113
 7748WAT  HW1  30990   4.812   2.471   3.044
 7748WAT  HW2  30991   4.691   2.425   3.123
 7748WAT  MW   30992   4.752   2.485   3.105
 7749WAT  OW   30993   4.612   0.622   6.276
 7749WAT  HW1  30994   4.684   0.606   6.215
 7749WAT  HW2  30995   4.573   0.535   6.290
 7749WAT  MW   30996   4.616   0.608   6.269
 7750WAT  OW   30997   4.896   0.889   1.930
 7750WAT  HW1  30998   4.957   0.862   1.860
 7750WAT  HW2  30999   4.828   0.821   1.929
 7750WAT  MW   31000   4.895   0.876   1.920
 7751WAT  OW   31001   0.103   5.989   1.926
 7751WAT  HW1  31002   0.116   6.061   1.988
 7751WAT  HW2  31003   0.155   5.917   1.962
 7751WAT  MW   31004   0.112   5.989   1.939
 7752WAT  OW   31005   0.678   3.398   5.357
 7752WAT  HW1  31006   0.672   3.303   5.344
 7752WAT  HW2  31007   0.657   3.435   5.271
 7752WAT  MW   31008   0.674   3.390   5.344
 7753WAT  OW   31009   4.279   1.331   2.704
 7753WAT  HW1  31010   4.315   1.305   2.620
 7753WAT  HW2  31011   4.352   1.326   2.765
 7753WAT  MW   31012   4.293   1.327   2.701
 7754WAT  OW   31013   2.636   0.880   4.285
 7754WAT  HW1  31014   2.717   0.886   4.335
 7754WAT  HW2  31015   2.659   0.910   4.197
 7754WAT  MW   31016   2.650   0.884   4.280
 7755WAT  OW   31017   0.396   6.538   1.394
 7755WAT  HW1  31018   0.353   6.572   1.473
 7755WAT  HW2  31019   0.324   6.505   1.341
 7755WAT  MW   31020   0.381   6.538   1.397
 7756WAT  OW   31021   0.837   5.723   3.233
 7756WAT  HW1  31022   0.828   5.800   3.175
 7756WAT  HW2  31023   0.829   5.648   3.174
 7756WAT  MW   31024   0.835   5.724   3.217
 7757WAT  OW   31025   2.374   5.852   3.932
 7757WAT  HW1  31026   2.329   5.934   3.911
 7757WAT  HW2  31027   2.446   5.848   3.868
 7757WAT  MW   31028   2.378   5.862   3.921
 7758WAT  OW   31029   0.949   2.809   3.010
 7758WAT  HW1  31030   0.903   2.814   2.926
 7758WAT  HW2  31031   0.899   2.867   3.068
 7758WAT  MW   31032   0.936   2.818   3.007
 7759WAT  OW   31033   1.484   0.156   3.788
 7759WAT  HW1  31034   1.492   0.104   3.868
 7759WAT  HW2  31035   1.537   0.234   3.805
 7759WAT  MW   31036   1.492   0.159   3.801
 7760WAT  OW   31037   0.428   2.265   5.922
 7760WAT  HW1  31038   0.448   2.188   5.975
 7760WAT  HW2  31039   0.511   2.285   5.878
 7760WAT  MW   31040   0.442   2.257   5.923
 7761WAT  OW   31041   4.130   3.241   1.918
 7761WAT  HW1  31042   4.130   3.253   1.823
 7761WAT  HW2  31043   4.220   3.215   1.939
 7761WAT  MW   31044   4.142   3.239   1.908
 7762WAT  OW   31045   0.134   1.019   6.068
 7762WAT  HW1  31046   0.059   0.983   6.022
 7762WAT  HW2  31047   0.180   1.072   6.002
 7762WAT  MW   31048   0.130   1.021   6.053
 7763WAT  OW   31049   1.227   5.533   0.306
 7763WAT  HW1  31050   1.172   5.456   0.291
 7763WAT  HW2  31051   1.311   5.510   0.265
 7763WAT  MW   31052   1.231   5.519   0.298
 7764WAT  OW   31053   4.256   3.767   5.960
 7764WAT  HW1  31054   4.163   3.750   5.943
 7764WAT  HW2  31055   4.258   3.853   6.001
 7764WAT  MW   31056   4.244   3.776   5.963
 7765WAT  OW   31057   5.147   1.959   1.297
 7765WAT  HW1  31058   5.128   2.013   1.220
 7765WAT  HW2  31059   5.104   1.875   1.279
 7765WAT  MW   31060   5.139   1.955   1.285
 7766WAT  OW   31061   4.766   4.427   1.254
 7766WAT  HW1  31062   4.794   4.403   1.166
 7766WAT  HW2  31063   4.718   4.509   1.242
 7766WAT  MW   31064   4.763   4.435   1.241
 7767WAT  OW   31065   5.506   2.433   6.447
 7767WAT  HW1  31066   5.428   2.384   6.424
 7767WAT  HW2  31067   5.526   2.485   6.369
 7767WAT  MW   31068   5.498   2.433   6.434
 7768WAT  OW   31069   5.669   0.777   2.758
 7768WAT  HW1  31070   5.665   0.689   2.795
 7768WAT  HW2  31071   5.733   0.770   2.687
 7768WAT  MW   31072   5.677   0.765   2.753
 7769WAT  OW   31073   1.830   1.372   5.742
 7769WAT  HW1  31074   1.746   1.343   5.708
 7769WAT  HW2  31075   1.849   1.454   5.695
 7769WAT  MW   31076   1.822   1.379   5.731
 7770WAT  OW   31077   5.399   4.337   4.771
 7770WAT  HW1  31078   5.325   4.392   4.746
 7770WAT  HW2  31079   5.476   4.391   4.755
 7770WAT  MW   31080   5.399   4.351   4.766
 7771WAT  OW   31081   4.554   3.205   2.903
 7771WAT  HW1  31082   4.566   3.173   2.992
 7771WAT  HW2  31083   4.609   3.148   2.849
 7771WAT  MW   31084   4.563   3.193   2.907
 7772WAT  OW   31085   2.988   2.005   3.876
 7772WAT  HW1  31086   3.043   2.061   3.930
 7772WAT  HW2  31087   2.917   2.062   3.846
 7772WAT  MW   31088   2.986   2.020   3.879
 7773WAT  OW   31089   6.552   5.690   6.349
 7773WAT  HW1  31090   6.471   5.729   6.316
 7773WAT  HW2  31091   6.533   5.671   6.441
 7773WAT  MW   31092   6.539   5.693   6.357
 7774WAT  OW   31093   6.474   2.786   0.990
 7774WAT  HW1  31094   6.535   2.724   1.029
 7774WAT  HW2  31095   6.450   2.747   0.906
 7774WAT  MW   31096   6.479   2.773   0.984
 7775WAT  OW   31097   3.903   0.009   1.286
 7775WAT  HW1  31098   3.872   0.093   1.319
 7775WAT  HW2  31099   3.920   0.024   1.193
 7775WAT  MW   31100   3.901   0.022   1.278
 7776WAT  OW   31101   3.455   4.797   2.759
 7776WAT  HW1  31102   3.514   4.724   2.775
 7776WAT  HW2  31103   3.438   4.835   2.845
 7776WAT  MW   31104   3.460   4.792   2.772
 7777WAT  OW   31105   4.189   1.586   2.877
 7777WAT  HW1  31106   4.113   1.547   2.834
 7777WAT  HW2  31107   4.261   1.526   2.859
 7777WAT  MW   31108   4.189   1.573   2.869
 7778WAT  OW   31109   0.756   0.897   6.653
 7778WAT  HW1  31110   0.740   0.826   6.590
 7778WAT  HW2  31111   0.820   0.861   6.714
 7778WAT  MW   31112   0.762   0.883   6.653
 7779WAT  OW   31113   2.392   2.366   3.812
 7779WAT  HW1  31114   2.355   2.451   3.789
 7779WAT  HW2  31115   2.390   2.317   3.730
 7779WAT  MW   31116   2.387   2.371   3.798
 7780WAT  OW   31117   0.424   1.086   2.017
 7780WAT  HW1  31118   0.352   1.045   1.970
 7780WAT  HW2  31119   0.502   1.039   1.987
 7780WAT  MW   31120   0.425   1.074   2.007
 7781WAT  OW   31121   5.156   4.463   1.448
 7781WAT  HW1  31122   5.226   4.427   1.502
 7781WAT  HW2  31123   5.181   4.555   1.435
 7781WAT  MW   31124   5.168   4.470   1.453
 7782WAT  OW   31125   5.856   5.208   3.277
 7782WAT  HW1  31126   5.905   5.125   3.275
 7782WAT  HW2  31127   5.877   5.251   3.195
 7782WAT  MW   31128   5.865   5.202   3.266
 7783WAT  OW   31129   0.392   3.860   1.339
 7783WAT  HW1  31130   0.324   3.910   1.295
 7783WAT  HW2  31131   0.365   3.857   1.431
 7783WAT  MW   31132   0.380   3.866   1.346
 7784WAT  OW   31133   5.594   5.386   6.606
 7784WAT  HW1  31134   5.659   5.344   6.549
 7784WAT  HW2  31135   5.626   5.476   6.616
 7784WAT  MW   31136   5.607   5.393   6.600
 7785WAT  OW   31137   0.846   3.578   1.277
 7785WAT  HW1  31138   0.844   3.543   1.366
 7785WAT  HW2  31139   0.864   3.671   1.288
 7785WAT  MW   31140   0.848   3.586   1.290
 7786WAT  OW   31141   1.763   3.950   2.930
 7786WAT  HW1  31142   1.810   3.875   2.966
 7786WAT  HW2  31143   1.832   4.008   2.898
 7786WAT  MW   31144   1.778   3.948   2.931
 7787WAT  OW   31145   1.978   2.407   2.641
 7787WAT  HW1  31146   1.936   2.415   2.726
 7787WAT  HW2  31147   2.047   2.342   2.654
 7787WAT  MW   31148   1.982   2.400   2.654
 7788WAT  OW   31149   1.239   3.269   6.069
 7788WAT  HW1  31150   1.183   3.216   6.012
 7788WAT  HW2  31151   1.191   3.351   6.080
 7788WAT  MW   31152   1.225   3.273   6.063
 7789WAT  OW   31153   3.431   6.062   5.251
 7789WAT  HW1  31154   3.484   5.982   5.250
 7789WAT  HW2  31155   3.468   6.114   5.322
 7789WAT  MW   31156   3.443   6.058   5.260
 7790WAT  OW   31157   0.280   2.398   3.380
 7790WAT  HW1  31158   0.301   2.360   3.465
 7790WAT  HW2  31159   0.361   2.391   3.329
 7790WAT  MW   31160   0.293   2.392   3.384
 7791WAT  OW   31161   4.992   5.104   3.476
 7791WAT  HW1  31162   4.913   5.113   3.528
 7791WAT  HW2  31163   4.973   5.032   3.416
 7791WAT  MW   31164   4.979   5.096   3.475
 7792WAT  OW   31165   5.742   4.087   1.750
 7792WAT  HW1  31166   5.687   4.048   1.818
 7792WAT  HW2  31167   5.831   4.067   1.777
 7792WAT  MW   31168   5.746   4.079   1.763
 7793WAT  OW   31169   3.910   2.686   5.360
 7793WAT  HW1  31170   3.823   2.666   5.326
 7793WAT  HW2  31171   3.894   2.725   5.445
 7793WAT  MW   31172   3.896   2.688   5.366
 7794WAT  OW   31173   1.262   5.692   4.520
 7794WAT  HW1  31174   1.314   5.627   4.473
 7794WAT  HW2  31175   1.257   5.767   4.461
 7794WAT  MW   31176   1.268   5.694   4.506
 7795WAT  OW   31177   5.866   6.284   0.982
 7795WAT  HW1  31178   5.948   6.305   1.027
 7795WAT  HW2  31179   5.888   6.286   0.889
 7795WAT  MW   31180   5.880   6.287   0.975
 7796WAT  OW   31181   4.728   6.300   6.305
 7796WAT  HW1  31182   4.658   6.238   6.323
 7796WAT  HW2  31183   4.716   6.368   6.372
 7796WAT  MW   31184   4.717   6.301   6.316
 7797WAT  OW   31185   6.459   2.835   5.265
 7797WAT  HW1  31186   6.418   2.781   5.198
 7797WAT  HW2  31187   6.406   2.820   5.343
 7797WAT  MW   31188   6.446   2.826   5.266
 7798WAT  OW   31189   5.614   4.241   4.485
 7798WAT  HW1  31190   5.556   4.208   4.553
 7798WAT  HW2  31191   5.627   4.334   4.507
 7798WAT  MW   31192   5.608   4.249   4.497
 7799WAT  OW   31193   0.294   5.252   4.672
 7799WAT  HW1  31194   0.254   5.212   4.594
 7799WAT  HW2  31195   0.350   5.184   4.708
 7799WAT  MW   31196   0.296   5.238   4.666
 7800WAT  OW   31197   1.507   2.510   1.613
 7800WAT  HW1  31198   1.577   2.575   1.622
 7800WAT  HW2  31199   1.533   2.438   1.671
 7800WAT  MW   31200   1.519   2.509   1.622
 7801WAT  OW   31201   5.305   5.398   0.206
 7801WAT  HW1  31202   5.294   5.371   0.297
 7801WAT  HW2  31203   5.379   5.346   0.175
 7801WAT  MW   31204   5.313   5.387   0.214
 7802WAT  OW   31205   4.049   1.967   4.984
 7802WAT  HW1  31206   4.108   1.954   5.058
 7802WAT  HW2  31207   4.000   1.885   4.977
 7802WAT  MW   31208   4.050   1.955   4.993
 7803WAT  OW   31209   3.814   2.962   1.837
 7803WAT  HW1  31210   3.817   2.910   1.917
 7803WAT  HW2  31211   3.890   2.933   1.786
 7803WAT  MW   31212   3.824   2.951   1.841
 7804WAT  OW   31213   1.034   6.172   0.177
 7804WAT  HW1  31214   1.117   6.132   0.150
 7804WAT  HW2  31215   1.060   6.242   0.237
 7804WAT  MW   31216   1.049   6.176   0.182
 7805WAT  OW   31217   3.101   6.679   3.075
 7805WAT  HW1  31218   3.195   6.660   3.085
 7805WAT  HW2  31219   3.084   6.747   3.140
 7805WAT  MW   31220   3.111   6.686   3.085
 7806WAT  OW   31221   3.049   4.469   0.769
 7806WAT  HW1  31222   2.972   4.510   0.731
 7806WAT  HW2  31223   3.074   4.401   0.706
 7806WAT  MW   31224   3.042   4.465   0.755
 7807WAT  OW   31225   6.411   3.924   3.201
 7807WAT  HW1  31226   6.361   3.978   3.139
 7807WAT  HW2  31227   6.374   3.947   3.287
 7807WAT  MW   31228   6.399   3.935   3.204
 7808WAT  OW   31229   0.109   6.101   4.074
 7808WAT  HW1  31230   0.126   6.192   4.099
 7808WAT  HW2  31231   0.187   6.054   4.102
 7808WAT  MW   31232   0.121   6.107   4.081
 7809WAT  OW   31233   6.558   5.578   3.742
 7809WAT  HW1  31234   6.599   5.507   3.793
 7809WAT  HW2  31235   6.476   5.595   3.788
 7809WAT  MW   31236   6.553   5.571   3.755
 7810WAT  OW   31237   1.015   5.964   0.381
 7810WAT  HW1  31238   1.000   6.020   0.305
 7810WAT  HW2  31239   0.999   5.875   0.349
 7810WAT  MW   31240   1.011   5.960   0.367
 7811WAT  OW   31241   4.217   4.707   6.639
 7811WAT  HW1  31242   4.230   4.616   6.614
 7811WAT  HW2  31243   4.298   4.731   6.684
 7811WAT  MW   31244   4.229   4.698   6.642
 7812WAT  OW   31245   3.447   1.054   1.964
 7812WAT  HW1  31246   3.504   1.108   1.909
 7812WAT  HW2  31247   3.385   1.116   2.001
 7812WAT  MW   31248   3.446   1.070   1.962
 7813WAT  OW   31249   1.808   0.780   3.540
 7813WAT  HW1  31250   1.849   0.693   3.542
 7813WAT  HW2  31251   1.753   0.778   3.462
 7813WAT  MW   31252   1.806   0.768   3.530
 7814WAT  OW   31253   3.941   3.649   3.925
 7814WAT  HW1  31254   4.007   3.614   3.985
 7814WAT  HW2  31255   3.860   3.644   3.975
 7814WAT  MW   31256   3.939   3.644   3.940
 7815WAT  OW   31257   5.730   3.579   5.777
 7815WAT  HW1  31258   5.799   3.639   5.751
 7815WAT  HW2  31259   5.775   3.496   5.794
 7815WAT  MW   31260   5.745   3.576   5.776
 7816WAT  OW   31261   4.496   4.643   3.653
 7816WAT  HW1  31262   4.454   4.699   3.589
 7816WAT  HW2  31263   4.590   4.648   3.632
 7816WAT  MW   31264   4.503   4.651   3.642
 7817WAT  OW   31265   0.210   5.344   5.878
 7817WAT  HW1  31266   0.182   5.255   5.901
 7817WAT  HW2  31267   0.140   5.377   5.821
 7817WAT  MW   31268   0.197   5.336   5.874
 7818WAT  OW   31269   2.581   3.699   2.993
 7818WAT  HW1  31270   2.622   3.784   3.002
 7818WAT  HW2  31271   2.634   3.653   2.928
 7818WAT  MW   31272   2.593   3.704   2.986
 7819WAT  OW   31273   2.333   2.464   1.030
 7819WAT  HW1  31274   2.251   2.474   1.079
 7819WAT  HW2  31275   2.381   2.397   1.079
 7819WAT  MW   31276   2.328   2.456   1.043
 7820WAT  OW   31277   4.952   3.340   2.900
 7820WAT  HW1  31278   4.870   3.384   2.922
 7820WAT  HW2  31279   4.993   3.395   2.834
 7820WAT  MW   31280   4.946   3.353   2.894
 7821WAT  OW   31281   4.835   0.843   4.446
 7821WAT  HW1  31282   4.783   0.763   4.441
 7821WAT  HW2  31283   4.907   0.821   4.505
 7821WAT  MW   31284   4.838   0.829   4.453
 7822WAT  OW   31285   1.288   2.843   4.938
 7822WAT  HW1  31286   1.376   2.811   4.917
 7822WAT  HW2  31287   1.255   2.878   4.856
 7822WAT  MW   31288   1.295   2.844   4.925
 7823WAT  OW   31289   5.865   3.762   1.556
 7823WAT  HW1  31290   5.847   3.856   1.545
 7823WAT  HW2  31291   5.954   3.759   1.590
 7823WAT  MW   31292   5.874   3.774   1.559
 7824WAT  OW   31293   0.688   1.227   1.785
 7824WAT  HW1  31294   0.619   1.279   1.743
 7824WAT  HW2  31295   0.769   1.261   1.747
 7824WAT  MW   31296   0.689   1.239   1.774
 7825WAT  OW   31297   3.406   0.149   4.587
 7825WAT  HW1  31298   3.354   0.071   4.567
 7825WAT  HW2  31299   3.429   0.139   4.680
 7825WAT  MW   31300   3.402   0.138   4.597
 7826WAT  OW   31301   3.705   0.000   6.014
 7826WAT  HW1  31302   3.760   0.076   5.994
 7826WAT  HW2  31303   3.628   0.012   5.957
 7826WAT  MW   31304   3.702   0.012   6.004
 7827WAT  OW   31305   3.854   1.126   3.295
 7827WAT  HW1  31306   3.935   1.129   3.245
 7827WAT  HW2  31307   3.809   1.047   3.264
 7827WAT  MW   31308   3.858   1.116   3.285
 7828WAT  OW   31309   3.866   1.224   5.070
 7828WAT  HW1  31310   3.906   1.238   5.155
 7828WAT  HW2  31311   3.778   1.192   5.090
 7828WAT  MW   31312   3.860   1.222   5.084
 7829WAT  OW   31313   0.001   6.156   6.097
 7829WAT  HW1  31314   0.047   6.235   6.071
 7829WAT  HW2  31315  -0.015   6.167   6.191
 7829WAT  MW   31316   0.005   6.168   6.106
 7830WAT  OW   31317   1.915   0.615   3.037
 7830WAT  HW1  31318   1.855   0.688   3.024
 7830WAT  HW2  31319   1.991   0.653   3.082
 7830WAT  MW   31320   1.917   0.629   3.041
 7831WAT  OW   31321   0.965   3.268   2.859
 7831WAT  HW1  31322   0.979   3.362   2.853
 7831WAT  HW2  31323   0.951   3.240   2.769
 7831WAT  MW   31324   0.965   3.276   2.846
 7832WAT  OW   31325   1.995   6.625   3.320
 7832WAT  HW1  31326   1.957   6.592   3.239
 7832WAT  HW2  31327   2.064   6.685   3.293
 7832WAT  MW   31328   1.999   6.628   3.306
 7833WAT  OW   31329   4.458   3.699   1.249
 7833WAT  HW1  31330   4.474   3.787   1.284
 7833WAT  HW2  31331   4.364   3.686   1.259
 7833WAT  MW   31332   4.448   3.709   1.255
 7834WAT  OW   31333   5.923   2.102   5.279
 7834WAT  HW1  31334   5.950   2.164   5.211
 7834WAT  HW2  31335   5.995   2.103   5.343
 7834WAT  MW   31336   5.936   2.110   5.279
 7835WAT  OW   31337   6.231   5.215   4.259
 7835WAT  HW1  31338   6.305   5.266   4.225
 7835WAT  HW2  31339   6.154   5.259   4.223
 7835WAT  MW   31340   6.231   5.227   4.249
 7836WAT  OW   31341   5.774   1.490   3.108
 7836WAT  HW1  31342   5.790   1.395   3.111
 7836WAT  HW2  31343   5.685   1.498   3.075
 7836WAT  MW   31344   5.764   1.478   3.104
 7837WAT  OW   31345   5.742   3.400   6.367
 7837WAT  HW1  31346   5.728   3.431   6.456
 7837WAT  HW2  31347   5.816   3.452   6.335
 7837WAT  MW   31348   5.750   3.411   6.375
 7838WAT  OW   31349   6.568   5.997   3.391
 7838WAT  HW1  31350   6.535   5.930   3.331
 7838WAT  HW2  31351   6.506   5.995   3.465
 7838WAT  MW   31352   6.555   5.988   3.393
 7839WAT  OW   31353   1.910   0.026   2.478
 7839WAT  HW1  31354   1.861  -0.053   2.500
 7839WAT  HW2  31355   1.874   0.093   2.535
 7839WAT  MW   31356   1.899   0.024   2.488
 7840WAT  OW   31357   0.018   4.488   4.862
 7840WAT  HW1  31358   0.084   4.556   4.849
 7840WAT  HW2  31359   0.067   4.406   4.863
 7840WAT  MW   31360   0.033   4.486   4.861
 7841WAT  OW   31361   3.245   1.175   2.921
 7841WAT  HW1  31362   3.298   1.146   2.847
 7841WAT  HW2  31363   3.270   1.117   2.993
 7841WAT  MW   31364   3.255   1.163   2.921
 7842WAT  OW   31365   2.757   1.214   5.672
 7842WAT  HW1  31366   2.793   1.266   5.743
 7842WAT  HW2  31367   2.688   1.162   5.712
 7842WAT  MW   31368   2.753   1.214   5.686
 7843WAT  OW   31369   0.310   6.459   4.862
 7843WAT  HW1  31370   0.245   6.390   4.849
 7843WAT  HW2  31371   0.258   6.540   4.862
 7843WAT  MW   31372   0.294   6.461   4.860
 7844WAT  OW   31373   4.889   3.942   3.638
 7844WAT  HW1  31374   4.942   3.966   3.715
 7844WAT  HW2  31375   4.845   4.023   3.613
 7844WAT  MW   31376   4.890   3.956   3.645
 7845WAT  OW   31377   3.630   5.867   1.175
 7845WAT  HW1  31378   3.582   5.821   1.244
 7845WAT  HW2  31379   3.722   5.856   1.199
 7845WAT  MW   31380   3.636   5.860   1.188
 7846WAT  OW   31381   6.130   1.962   3.726
 7846WAT  HW1  31382   6.161   1.963   3.817
 7846WAT  HW2  31383   6.094   1.875   3.714
 7846WAT  MW   31384   6.129   1.951   3.737
 7847WAT  OW   31385   6.616   4.664   1.800
 7847WAT  HW1  31386   6.595   4.619   1.718
 7847WAT  HW2  31387   6.650   4.594   1.856
 7847WAT  MW   31388   6.618   4.649   1.796
 7848WAT  OW   31389   1.879   5.068   3.808
 7848WAT  HW1  31390   1.900   5.028   3.892
 7848WAT  HW2  31391   1.869   4.994   3.748
 7848WAT  MW   31392   1.881   5.053   3.811
 7849WAT  OW   31393   5.387   0.146   4.263
 7849WAT  HW1  31394   5.428   0.063   4.288
 7849WAT  HW2  31395   5.446   0.182   4.196
 7849WAT  MW   31396   5.400   0.140   4.257
 7850WAT  OW   31397   3.831   2.794   2.050
 7850WAT  HW1  31398   3.749   2.805   2.098
 7850WAT  HW2  31399   3.899   2.814   2.115
 7850WAT  MW   31400   3.830   2.798   2.065
 7851WAT  OW   31401   2.440   5.474   1.091
 7851WAT  HW1  31402   2.493   5.431   1.158
 7851WAT  HW2  31403   2.497   5.477   1.014
 7851WAT  MW   31404   2.455   5.469   1.090
 7852WAT  OW   31405   5.536   6.397   1.363
 7852WAT  HW1  31406   5.577   6.402   1.277
 7852WAT  HW2  31407   5.517   6.304   1.375
 7852WAT  MW   31408   5.539   6.385   1.354
 7853WAT  OW   31409   4.505   2.272   4.456
 7853WAT  HW1  31410   4.467   2.333   4.392
 7853WAT  HW2  31411   4.599   2.286   4.450
 7853WAT  MW   31412   4.512   2.282   4.446
 7854WAT  OW   31413   3.280   6.574   5.397
 7854WAT  HW1  31414   3.322   6.568   5.483
 7854WAT  HW2  31415   3.344   6.537   5.336
 7854WAT  MW   31416   3.294   6.568   5.400
 7855WAT  OW   31417   1.210   5.546   3.264
 7855WAT  HW1  31418   1.160   5.620   3.297
 7855WAT  HW2  31419   1.236   5.572   3.176
 7855WAT  MW   31420   1.207   5.559   3.257
 7856WAT  OW   31421   6.039   4.742   5.274
 7856WAT  HW1  31422   6.076   4.825   5.305
 7856WAT  HW2  31423   5.945   4.758   5.269
 7856WAT  MW   31424   6.032   4.755   5.277
 7857WAT  OW   31425   3.668   1.544   1.779
 7857WAT  HW1  31426   3.600   1.565   1.715
 7857WAT  HW2  31427   3.745   1.591   1.748
 7857WAT  MW   31428   3.669   1.553   1.766
 7858WAT  OW   31429   5.442   4.433   0.202
 7858WAT  HW1  31430   5.475   4.484   0.128
 7858WAT  HW2  31431   5.401   4.497   0.260
 7858WAT  MW   31432   5.441   4.448   0.200
 7859WAT  OW   31433   4.682   1.766   2.438
 7859WAT  HW1  31434   4.754   1.716   2.399
 7859WAT  HW2  31435   4.725   1.826   2.499
 7859WAT  MW   31436   4.697   1.767   2.441
 7860WAT  OW   31437   0.440   5.503   1.310
 7860WAT  HW1  31438   0.485   5.492   1.226
 7860WAT  HW2  31439   0.380   5.429   1.315
 7860WAT  MW   31440   0.438   5.492   1.299
 7861WAT  OW   31441   2.577   6.069   4.931
 7861WAT  HW1  31442   2.594   6.060   4.838
 7861WAT  HW2  31443   2.482   6.054   4.940
 7861WAT  MW   31444   2.566   6.066   4.920
 7862WAT  OW   31445   5.521   1.248   0.717
 7862WAT  HW1  31446   5.546   1.297   0.639
 7862WAT  HW2  31447   5.513   1.157   0.687
 7862WAT  MW   31448   5.523   1.243   0.703
 7863WAT  OW   31449   4.904   1.801   5.725
 7863WAT  HW1  31450   4.871   1.884   5.691
 7863WAT  HW2  31451   4.826   1.756   5.758
 7863WAT  MW   31452   4.889   1.806   5.725
 7864WAT  OW   31453   4.584   2.981   0.653
 7864WAT  HW1  31454   4.592   3.000   0.746
 7864WAT  HW2  31455   4.592   2.886   0.648
 7864WAT  MW   31456   4.586   2.971   0.665
 7865WAT  OW   31457   5.567   3.661   0.078
 7865WAT  HW1  31458   5.506   3.662   0.004
 7865WAT  HW2  31459   5.639   3.604   0.049
 7865WAT  MW   31460   5.569   3.654   0.064
 7866WAT  OW   31461   2.367   5.693   4.154
 7866WAT  HW1  31462   2.349   5.743   4.075
 7866WAT  HW2  31463   2.294   5.714   4.213
 7866WAT  MW   31464   2.355   5.702   4.151
 7867WAT  OW   31465   5.973   2.589   2.749
 7867WAT  HW1  31466   5.960   2.501   2.713
 7867WAT  HW2  31467   5.884   2.623   2.763
 7867WAT  MW   31468   5.960   2.582   2.746
 7868WAT  OW   31469   6.104   4.401   4.429
 7868WAT  HW1  31470   6.073   4.479   4.384
 7868WAT  HW2  31471   6.120   4.429   4.519
 7868WAT  MW   31472   6.102   4.415   4.435
 7869WAT  OW   31473   0.149   0.872   3.871
 7869WAT  HW1  31474   0.115   0.807   3.809
 7869WAT  HW2  31475   0.111   0.846   3.955
 7869WAT  MW   31476   0.139   0.860   3.874
 7870WAT  OW   31477   6.467   1.481   2.383
 7870WAT  HW1  31478   6.537   1.428   2.421
 7870WAT  HW2  31479   6.439   1.433   2.305
 7870WAT  MW   31480   6.472   1.468   2.378
 7871WAT  OW   31481   1.438   1.297   2.830
 7871WAT  HW1  31482   1.426   1.382   2.788
 7871WAT  HW2  31483   1.372   1.241   2.791
 7871WAT  MW   31484   1.428   1.301   2.820
 7872WAT  OW   31485   2.390   5.439   4.258
 7872WAT  HW1  31486   2.470   5.404   4.220
 7872WAT  HW2  31487   2.390   5.532   4.234
 7872WAT  MW   31488   2.400   5.447   4.249
 7873WAT  OW   31489   1.622   4.783   2.631
 7873WAT  HW1  31490   1.551   4.719   2.620
 7873WAT  HW2  31491   1.633   4.821   2.543
 7873WAT  MW   31492   1.614   4.779   2.618
 7874WAT  OW   31493   0.777   4.549   3.208
 7874WAT  HW1  31494   0.713   4.619   3.221
 7874WAT  HW2  31495   0.860   4.594   3.193
 7874WAT  MW   31496   0.779   4.564   3.208
 7875WAT  OW   31497   2.362   1.129   0.537
 7875WAT  HW1  31498   2.335   1.038   0.549
 7875WAT  HW2  31499   2.390   1.157   0.624
 7875WAT  MW   31500   2.362   1.120   0.550
 7876WAT  OW   31501   0.821   1.849   0.361
 7876WAT  HW1  31502   0.872   1.893   0.293
 7876WAT  HW2  31503   0.748   1.809   0.314
 7876WAT  MW   31504   0.818   1.850   0.346
 7877WAT  OW   31505   0.489   3.794   5.072
 7877WAT  HW1  31506   0.470   3.757   5.158
 7877WAT  HW2  31507   0.452   3.882   5.074
 7877WAT  MW   31508   0.482   3.801   5.083
 7878WAT  OW   31509   4.191   5.348   4.841
 7878WAT  HW1  31510   4.215   5.430   4.884
 7878WAT  HW2  31511   4.273   5.315   4.804
 7878WAT  MW   31512   4.205   5.354   4.842
 7879WAT  OW   31513   4.842   6.506   1.884
 7879WAT  HW1  31514   4.923   6.546   1.852
 7879WAT  HW2  31515   4.783   6.580   1.898
 7879WAT  MW   31516   4.845   6.521   1.881
 7880WAT  OW   31517   5.016   1.100   3.778
 7880WAT  HW1  31518   5.055   1.094   3.691
 7880WAT  HW2  31519   4.924   1.121   3.762
 7880WAT  MW   31520   5.009   1.102   3.765
 7881WAT  OW   31521   0.010   0.543   3.285
 7881WAT  HW1  31522  -0.081   0.516   3.268
 7881WAT  HW2  31523   0.043   0.477   3.346
 7881WAT  MW   31524   0.002   0.531   3.291
 7882WAT  OW   31525   0.398   2.643   4.620
 7882WAT  HW1  31526   0.470   2.596   4.663
 7882WAT  HW2  31527   0.435   2.672   4.537
 7882WAT  MW   31528   0.412   2.641   4.615
 7883WAT  OW   31529   0.996   5.746   6.220
 7883WAT  HW1  31530   0.990   5.829   6.267
 7883WAT  HW2  31531   0.966   5.766   6.131
 7883WAT  MW   31532   0.991   5.760   6.214
 7884WAT  OW   31533   6.691   5.126   2.662
 7884WAT  HW1  31534   6.758   5.070   2.626
 7884WAT  HW2  31535   6.613   5.107   2.611
 7884WAT  MW   31536   6.689   5.116   2.651
 7885WAT  OW   31537   0.626   6.340   0.821
 7885WAT  HW1  31538   0.531   6.337   0.828
 7885WAT  HW2  31539   0.645   6.305   0.733
 7885WAT  MW   31540   0.616   6.335   0.810
 7886WAT  OW   31541   0.918   5.178   2.813
 7886WAT  HW1  31542   0.970   5.232   2.873
 7886WAT  HW2  31543   0.877   5.112   2.869
 7886WAT  MW   31544   0.919   5.177   2.828
 7887WAT  OW   31545   2.944   5.402   0.596
 7887WAT  HW1  31546   2.947   5.306   0.601
 7887WAT  HW2  31547   3.011   5.431   0.658
 7887WAT  MW   31548   2.954   5.393   0.605
 7888WAT  OW   31549   1.330   4.134   2.944
 7888WAT  HW1  31550   1.386   4.212   2.944
 7888WAT  HW2  31551   1.387   4.064   2.977
 7888WAT  MW   31552   1.345   4.135   2.948
 7889WAT  OW   31553   3.533   1.275   2.264
 7889WAT  HW1  31554   3.591   1.241   2.332
 7889WAT  HW2  31555   3.447   1.279   2.306
 7889WAT  MW   31556   3.529   1.271   2.278
 7890WAT  OW   31557   1.868   0.632   5.555
 7890WAT  HW1  31558   1.942   0.690   5.538
 7890WAT  HW2  31559   1.793   0.677   5.514
 7890WAT  MW   31560   1.868   0.646   5.547
 7891WAT  OW   31561   5.229   0.946   5.797
 7891WAT  HW1  31562   5.207   1.039   5.802
 7891WAT  HW2  31563   5.315   0.939   5.840
 7891WAT  MW   31564   5.238   0.957   5.804
 7892WAT  OW   31565   1.499   2.391   5.171
 7892WAT  HW1  31566   1.460   2.379   5.258
 7892WAT  HW2  31567   1.556   2.316   5.159
 7892WAT  MW   31568   1.501   2.380   5.181
 7893WAT  OW   31569   1.296   3.299   0.025
 7893WAT  HW1  31570   1.224   3.362   0.022
 7893WAT  HW2  31571   1.351   3.328   0.097
 7893WAT  MW   31572   1.294   3.311   0.034
 7894WAT  OW   31573   6.397   4.389   3.304
 7894WAT  HW1  31574   6.491   4.373   3.290
 7894WAT  HW2  31575   6.357   4.372   3.218
 7894WAT  MW   31576   6.404   4.384   3.291
 7895WAT  OW   31577   4.456   0.954   2.300
 7895WAT  HW1  31578   4.438   0.884   2.238
 7895WAT  HW2  31579   4.373   0.967   2.346
 7895WAT  MW   31580   4.443   0.946   2.298
 7896WAT  OW   31581   2.636   1.060   3.272
 7896WAT  HW1  31582   2.719   1.107   3.265
 7896WAT  HW2  31583   2.657   0.969   3.253
 7896WAT  MW   31584   2.649   1.054   3.269
 7897WAT  OW   31585   1.588   4.868   4.634
 7897WAT  HW1  31586   1.647   4.935   4.668
 7897WAT  HW2  31587   1.508   4.877   4.685
 7897WAT  MW   31588   1.585   4.878   4.645
 7898WAT  OW   31589   1.991   1.268   2.251
 7898WAT  HW1  31590   1.951   1.280   2.165
 7898WAT  HW2  31591   2.063   1.206   2.235
 7898WAT  MW   31592   1.995   1.261   2.238
 7899WAT  OW   31593   2.466   6.197   1.217
 7899WAT  HW1  31594   2.481   6.290   1.200
 7899WAT  HW2  31595   2.374   6.193   1.243
 7899WAT  MW   31596   2.456   6.209   1.218
 7900WAT  OW   31597   2.578   0.141   2.464
 7900WAT  HW1  31598   2.573   0.151   2.559
 7900WAT  HW2  31599   2.651   0.197   2.437
 7900WAT  MW   31600   2.587   0.150   2.473
 7901WAT  OW   31601   6.314   3.260   0.316
 7901WAT  HW1  31602   6.296   3.334   0.374
 7901WAT  HW2  31603   6.242   3.199   0.331
 7901WAT  MW   31604   6.302   3.262   0.325
 7902WAT  OW   31605   1.668   0.573   3.994
 7902WAT  HW1  31606   1.603   0.603   3.931
 7902WAT  HW2  31607   1.673   0.478   3.978
 7902WAT  MW   31608   1.660   0.564   3.983
 7903WAT  OW   31609   6.015   0.720   4.853
 7903WAT  HW1  31610   5.928   0.739   4.889
 7903WAT  HW2  31611   6.066   0.798   4.872
 7903WAT  MW   31612   6.010   0.732   4.861
 7904WAT  OW   31613   4.256   2.707   4.545
 7904WAT  HW1  31614   4.317   2.704   4.472
 7904WAT  HW2  31615   4.296   2.653   4.613
 7904WAT  MW   31616   4.269   2.700   4.545
 7905WAT  OW   31617   1.217   5.533   2.963
 7905WAT  HW1  31618   1.174   5.448   2.968
 7905WAT  HW2  31619   1.298   5.517   2.914
 7905WAT  MW   31620   1.222   5.520   2.957
 7906WAT  OW   31621   3.906   6.163   2.696
 7906WAT  HW1  31622   3.992   6.131   2.725
 7906WAT  HW2  31623   3.919   6.183   2.603
 7906WAT  MW   31624   3.919   6.161   2.688
 7907WAT  OW   31625   4.051   1.073   5.678
 7907WAT  HW1  31626   4.037   1.158   5.719
 7907WAT  HW2  31627   4.146   1.067   5.667
 7907WAT  MW   31628   4.062   1.083   5.682
 7908WAT  OW   31629   3.875   5.642   6.656
 7908WAT  HW1  31630   3.907   5.554   6.637
 7908WAT  HW2  31631   3.948   5.700   6.634
 7908WAT  MW   31632   3.889   5.638   6.650
 7909WAT  OW   31633   3.289   3.228   4.074
 7909WAT  HW1  31634   3.273   3.147   4.026
 7909WAT  HW2  31635   3.327   3.199   4.157
 7909WAT  MW   31636   3.292   3.213   4.078
 7910WAT  OW   31637   5.874   1.932   5.901
 7910WAT  HW1  31638   5.884   1.972   5.815
 7910WAT  HW2  31639   5.786   1.957   5.929
 7910WAT  MW   31640   5.863   1.941   5.893
 7911WAT  OW   31641   2.623   3.450   2.562
 7911WAT  HW1  31642   2.656   3.529   2.521
 7911WAT  HW2  31643   2.529   3.451   2.544
 7911WAT  MW   31644   2.615   3.460   2.554
 7912WAT  OW   31645   3.029   0.867   2.476
 7912WAT  HW1  31646   3.051   0.939   2.533
 7912WAT  HW2  31647   3.038   0.902   2.387
 7912WAT  MW   31648   3.033   0.881   2.472
 7913WAT  OW   31649   4.053   2.804   0.680
 7913WAT  HW1  31650   4.009   2.763   0.606
 7913WAT  HW2  31651   4.048   2.739   0.750
 7913WAT  MW   31652   4.046   2.790   0.679
 7914WAT  OW   31653   1.856   1.656   6.688
 7914WAT  HW1  31654   1.813   1.736   6.718
 7914WAT  HW2  31655   1.874   1.607   6.768
 7914WAT  MW   31656   1.853   1.660   6.702
 7915WAT  OW   31657   2.829   1.504   2.040
 7915WAT  HW1  31658   2.743   1.475   2.011
 7915WAT  HW2  31659   2.886   1.428   2.029
 7915WAT  MW   31660   2.825   1.490   2.035
 7916WAT  OW   31661   4.393   1.668   5.675
 7916WAT  HW1  31662   4.476   1.697   5.714
 7916WAT  HW2  31663   4.327   1.688   5.741
 7916WAT  MW   31664   4.396   1.675   5.689
 7917WAT  OW   31665   6.095   6.575   1.543
 7917WAT  HW1  31666   6.180   6.611   1.516
 7917WAT  HW2  31667   6.033   6.647   1.529
 7917WAT  MW   31668   6.098   6.590   1.538
 7918WAT  OW   31669   6.369   6.252   0.742
 7918WAT  HW1  31670   6.407   6.279   0.658
 7918WAT  HW2  31671   6.298   6.314   0.757
 7918WAT  MW   31672   6.365   6.264   0.733
 7919WAT  OW   31673   1.887   1.761   2.797
 7919WAT  HW1  31674   1.902   1.778   2.890
 7919WAT  HW2  31675   1.893   1.847   2.756
 7919WAT  MW   31676   1.890   1.775   2.804
 7920WAT  OW   31677   3.542   2.033   3.940
 7920WAT  HW1  31678   3.629   2.071   3.955
 7920WAT  HW2  31679   3.539   1.957   3.997
 7920WAT  MW   31680   3.553   2.028   3.949
 7921WAT  OW   31681   4.020   6.377   4.232
 7921WAT  HW1  31682   4.020   6.376   4.327
 7921WAT  HW2  31683   3.935   6.414   4.208
 7921WAT  MW   31684   4.009   6.381   4.241
 7922WAT  OW   31685   0.761   3.858   5.601
 7922WAT  HW1  31686   0.787   3.866   5.509
 7922WAT  HW2  31687   0.755   3.949   5.632
 7922WAT  MW   31688   0.763   3.871   5.593
 7923WAT  OW   31689   3.994   4.192   1.471
 7923WAT  HW1  31690   4.004   4.097   1.465
 7923WAT  HW2  31691   4.075   4.222   1.513
 7923WAT  MW   31692   4.006   4.183   1.476
 7924WAT  OW   31693   4.759   5.691   0.782
 7924WAT  HW1  31694   4.799   5.672   0.697
 7924WAT  HW2  31695   4.677   5.642   0.781
 7924WAT  MW   31696   4.753   5.682   0.770
 7925WAT  OW   31697   1.382   3.087   4.183
 7925WAT  HW1  31698   1.302   3.046   4.150
 7925WAT  HW2  31699   1.444   3.015   4.192
 7925WAT  MW   31700   1.379   3.072   4.180
 7926WAT  OW   31701   2.801   4.158   5.017
 7926WAT  HW1  31702   2.779   4.186   5.105
 7926WAT  HW2  31703   2.746   4.212   4.960
 7926WAT  MW   31704   2.791   4.168   5.021
 7927WAT  OW   31705   0.403   6.591   3.756
 7927WAT  HW1  31706   0.386   6.551   3.841
 7927WAT  HW2  31707   0.361   6.677   3.760
 7927WAT  MW   31708   0.395   6.597   3.768
 7928WAT  OW   31709   1.896   5.055   6.030
 7928WAT  HW1  31710   1.830   5.079   5.964
 7928WAT  HW2  31711   1.979   5.055   5.982
 7928WAT  MW   31712   1.898   5.058   6.015
 7929WAT  OW   31713   2.181   5.403   3.026
 7929WAT  HW1  31714   2.130   5.358   3.094
 7929WAT  HW2  31715   2.134   5.384   2.945
 7929WAT  MW   31716   2.168   5.394   3.024
 7930WAT  OW   31717   1.348   0.575   2.263
 7930WAT  HW1  31718   1.295   0.496   2.275
 7930WAT  HW2  31719   1.302   0.625   2.195
 7930WAT  MW   31720   1.335   0.571   2.255
 7931WAT  OW   31721   1.324   2.733   0.488
 7931WAT  HW1  31722   1.308   2.673   0.415
 7931WAT  HW2  31723   1.350   2.815   0.446
 7931WAT  MW   31724   1.325   2.736   0.473
 7932WAT  OW   31725   6.186   2.446   1.157
 7932WAT  HW1  31726   6.196   2.540   1.168
 7932WAT  HW2  31727   6.187   2.411   1.246
 7932WAT  MW   31728   6.187   2.454   1.170
 7933WAT  OW   31729   4.722   1.097   2.345
 7933WAT  HW1  31730   4.662   1.023   2.336
 7933WAT  HW2  31731   4.807   1.057   2.365
 7933WAT  MW   31732   4.726   1.082   2.346
 7934WAT  OW   31733   0.177   4.654   1.346
 7934WAT  HW1  31734   0.214   4.640   1.434
 7934WAT  HW2  31735   0.158   4.566   1.314
 7934WAT  MW   31736   0.180   4.641   1.354
 7935WAT  OW   31737   2.362   3.389   2.243
 7935WAT  HW1  31738   2.348   3.410   2.336
 7935WAT  HW2  31739   2.274   3.388   2.205
 7935WAT  MW   31740   2.349   3.391   2.250
 7936WAT  OW   31741   0.084   2.577   0.910
 7936WAT  HW1  31742   0.173   2.571   0.874
 7936WAT  HW2  31743   0.027   2.552   0.838
 7936WAT  MW   31744   0.088   2.573   0.896
 7937WAT  OW   31745   1.867   6.551   4.907
 7937WAT  HW1  31746   1.913   6.525   4.986
 7937WAT  HW2  31747   1.778   6.516   4.918
 7937WAT  MW   31748   1.861   6.543   4.919
 7938WAT  OW   31749   4.496   2.360   3.619
 7938WAT  HW1  31750   4.505   2.429   3.553
 7938WAT  HW2  31751   4.441   2.399   3.687
 7938WAT  MW   31752   4.490   2.375   3.619
 7939WAT  OW   31753   6.501   4.859   3.615
 7939WAT  HW1  31754   6.500   4.889   3.524
 7939WAT  HW2  31755   6.416   4.887   3.649
 7939WAT  MW   31756   6.489   4.867   3.607
 7940WAT  OW   31757   5.312   1.767   5.419
 7940WAT  HW1  31758   5.224   1.804   5.421
 7940WAT  HW2  31759   5.320   1.721   5.503
 7940WAT  MW   31760   5.302   1.766   5.430
 7941WAT  OW   31761   4.606   5.936   5.464
 7941WAT  HW1  31762   4.657   5.910   5.540
 7941WAT  HW2  31763   4.619   5.865   5.401
 7941WAT  MW   31764   4.614   5.923   5.466
 7942WAT  OW   31765   1.445   0.451   4.902
 7942WAT  HW1  31766   1.427   0.544   4.883
 7942WAT  HW2  31767   1.466   0.450   4.996
 7942WAT  MW   31768   1.446   0.463   4.912
 7943WAT  OW   31769   0.975   1.214   1.369
 7943WAT  HW1  31770   0.990   1.220   1.274
 7943WAT  HW2  31771   0.906   1.148   1.377
 7943WAT  MW   31772   0.967   1.206   1.357
 7944WAT  OW   31773   5.234   2.445   5.036
 7944WAT  HW1  31774   5.260   2.393   4.960
 7944WAT  HW2  31775   5.243   2.536   5.008
 7944WAT  MW   31776   5.239   2.450   5.023
 7945WAT  OW   31777   5.157   3.117   0.292
 7945WAT  HW1  31778   5.174   3.051   0.359
 7945WAT  HW2  31779   5.144   3.066   0.212
 7945WAT  MW   31780   5.158   3.102   0.290
 7946WAT  OW   31781   4.676   6.340   0.408
 7946WAT  HW1  31782   4.670   6.371   0.317
 7946WAT  HW2  31783   4.735   6.265   0.404
 7946WAT  MW   31784   4.683   6.334   0.395
 7947WAT  OW   31785   4.347   1.756   0.797
 7947WAT  HW1  31786   4.277   1.804   0.753
 7947WAT  HW2  31787   4.428   1.794   0.764
 7947WAT  MW   31788   4.348   1.768   0.787
 7948WAT  OW   31789   2.294   4.119   0.041
 7948WAT  HW1  31790   2.296   4.126  -0.054
 7948WAT  HW2  31791   2.242   4.194   0.069
 7948WAT  MW   31792   2.287   4.130   0.032
 7949WAT  OW   31793   1.688   5.406   6.218
 7949WAT  HW1  31794   1.774   5.372   6.192
 7949WAT  HW2  31795   1.642   5.422   6.136
 7949WAT  MW   31796   1.693   5.404   6.204
 7950WAT  OW   31797   2.303   0.524   5.592
 7950WAT  HW1  31798   2.392   0.516   5.626
 7950WAT  HW2  31799   2.302   0.468   5.514
 7950WAT  MW   31800   2.315   0.515   5.586
 7951WAT  OW   31801   4.377   0.208   1.065
 7951WAT  HW1  31802   4.466   0.204   1.100
 7951WAT  HW2  31803   4.371   0.134   1.005
 7951WAT  MW   31804   4.388   0.198   1.061
 7952WAT  OW   31805   6.080   5.904   5.401
 7952WAT  HW1  31806   6.107   5.875   5.488
 7952WAT  HW2  31807   5.989   5.931   5.412
 7952WAT  MW   31808   6.071   5.904   5.414
 7953WAT  OW   31809   2.974   0.514   6.331
 7953WAT  HW1  31810   2.920   0.481   6.403
 7953WAT  HW2  31811   2.936   0.474   6.253
 7953WAT  MW   31812   2.962   0.504   6.331
 7954WAT  OW   31813   5.407   2.220   4.483
 7954WAT  HW1  31814   5.366   2.271   4.414
 7954WAT  HW2  31815   5.369   2.132   4.475
 7954WAT  MW   31816   5.397   2.215   4.473
 7955WAT  OW   31817   2.660   0.832   6.560
 7955WAT  HW1  31818   2.596   0.769   6.529
 7955WAT  HW2  31819   2.633   0.915   6.523
 7955WAT  MW   31820   2.648   0.834   6.551
 7956WAT  OW   31821   0.940   2.015   0.172
 7956WAT  HW1  31822   0.928   1.940   0.113
 7956WAT  HW2  31823   0.894   2.087   0.129
 7956WAT  MW   31824   0.932   2.015   0.159
 7957WAT  OW   31825   0.568   1.833   0.147
 7957WAT  HW1  31826   0.533   1.922   0.144
 7957WAT  HW2  31827   0.587   1.812   0.055
 7957WAT  MW   31828   0.566   1.842   0.134
 7958WAT  OW   31829   5.488   4.196   3.449
 7958WAT  HW1  31830   5.404   4.151   3.455
 7958WAT  HW2  31831   5.553   4.127   3.463
 7958WAT  MW   31832   5.486   4.181   3.452
 7959WAT  OW   31833   4.153   0.341   2.243
 7959WAT  HW1  31834   4.202   0.346   2.161
 7959WAT  HW2  31835   4.116   0.253   2.244
 7959WAT  MW   31836   4.155   0.330   2.232
 7960WAT  OW   31837   4.681   2.249   3.994
 7960WAT  HW1  31838   4.757   2.223   4.045
 7960WAT  HW2  31839   4.703   2.225   3.904
 7960WAT  MW   31840   4.694   2.242   3.988
 7961WAT  OW   31841   4.500   0.621   0.976
 7961WAT  HW1  31842   4.479   0.532   0.946
 7961WAT  HW2  31843   4.442   0.635   1.050
 7961WAT  MW   31844   4.490   0.611   0.982
 7962WAT  OW   31845   3.246   1.113   6.626
 7962WAT  HW1  31846   3.298   1.033   6.616
 7962WAT  HW2  31847   3.312   1.182   6.637
 7962WAT  MW   31848   3.262   1.112   6.626
 7963WAT  OW   31849   6.426   4.660   3.224
 7963WAT  HW1  31850   6.495   4.593   3.222
 7963WAT  HW2  31851   6.426   4.697   3.136
 7963WAT  MW   31852   6.435   4.656   3.213
 7964WAT  OW   31853   2.662   6.625   5.961
 7964WAT  HW1  31854   2.694   6.628   5.871
 7964WAT  HW2  31855   2.648   6.717   5.984
 7964WAT  MW   31856   2.665   6.638   5.952
 7965WAT  OW   31857   5.270   3.135   1.756
 7965WAT  HW1  31858   5.257   3.226   1.780
 7965WAT  HW2  31859   5.183   3.096   1.758
 7965WAT  MW   31860   5.257   3.142   1.759
 7966WAT  OW   31861   1.773   5.298   0.806
 7966WAT  HW1  31862   1.745   5.381   0.767
 7966WAT  HW2  31863   1.754   5.308   0.900
 7966WAT  MW   31864   1.767   5.310   0.813
 7967WAT  OW   31865   1.670   0.231   4.288
 7967WAT  HW1  31866   1.592   0.202   4.336
 7967WAT  HW2  31867   1.741   0.226   4.352
 7967WAT  MW   31868   1.669   0.226   4.303
 7968WAT  OW   31869   6.169   4.509   1.849
 7968WAT  HW1  31870   6.142   4.494   1.940
 7968WAT  HW2  31871   6.246   4.564   1.856
 7968WAT  MW   31872   6.175   4.514   1.862
 7969WAT  OW   31873   3.649   6.111   5.673
 7969WAT  HW1  31874   3.690   6.025   5.660
 7969WAT  HW2  31875   3.626   6.113   5.766
 7969WAT  MW   31876   3.651   6.100   5.683
 7970WAT  OW   31877   0.380   1.993   5.114
 7970WAT  HW1  31878   0.309   1.959   5.059
 7970WAT  HW2  31879   0.348   1.982   5.203
 7970WAT  MW   31880   0.366   1.987   5.118
 7971WAT  OW   31881   4.164   5.767   5.766
 7971WAT  HW1  31882   4.195   5.825   5.835
 7971WAT  HW2  31883   4.104   5.707   5.811
 7971WAT  MW   31884   4.160   5.766   5.781
 7972WAT  OW   31885   1.833   1.563   0.262
 7972WAT  HW1  31886   1.824   1.644   0.312
 7972WAT  HW2  31887   1.744   1.542   0.233
 7972WAT  MW   31888   1.820   1.571   0.265
 7973WAT  OW   31889   6.251   5.167   3.227
 7973WAT  HW1  31890   6.244   5.192   3.135
 7973WAT  HW2  31891   6.202   5.085   3.233
 7973WAT  MW   31892   6.244   5.159   3.216
 7974WAT  OW   31893   5.428   3.265   2.191
 7974WAT  HW1  31894   5.401   3.212   2.266
 7974WAT  HW2  31895   5.475   3.204   2.134
 7974WAT  MW   31896   5.431   3.250   2.194
 7975WAT  OW   31897   3.167   2.716   4.586
 7975WAT  HW1  31898   3.226   2.641   4.591
 7975WAT  HW2  31899   3.096   2.695   4.647
 7975WAT  MW   31900   3.165   2.703   4.595
 7976WAT  OW   31901   5.045   0.146   1.005
 7976WAT  HW1  31902   5.125   0.119   1.050
 7976WAT  HW2  31903   4.974   0.115   1.062
 7976WAT  MW   31904   5.046   0.138   1.019
 7977WAT  OW   31905   1.340   3.142   3.644
 7977WAT  HW1  31906   1.394   3.220   3.657
 7977WAT  HW2  31907   1.379   3.076   3.701
 7977WAT  MW   31908   1.352   3.144   3.653
 7978WAT  OW   31909   3.130   4.812   3.783
 7978WAT  HW1  31910   3.217   4.772   3.780
 7978WAT  HW2  31911   3.127   4.870   3.707
 7978WAT  MW   31912   3.141   4.815   3.773
 7979WAT  OW   31913   5.218   3.176   5.074
 7979WAT  HW1  31914   5.244   3.265   5.051
 7979WAT  HW2  31915   5.298   3.124   5.065
 7979WAT  MW   31916   5.232   3.181   5.069
 7980WAT  OW   31917   6.483   0.223   2.678
 7980WAT  HW1  31918   6.488   0.210   2.583
 7980WAT  HW2  31919   6.574   0.231   2.706
 7980WAT  MW   31920   6.495   0.223   2.669
 7981WAT  OW   31921   2.028   6.448   5.139
 7981WAT  HW1  31922   2.105   6.506   5.133
 7981WAT  HW2  31923   1.984   6.476   5.219
 7981WAT  MW   31924   2.033   6.460   5.148
 7982WAT  OW   31925   5.121   6.093   3.502
 7982WAT  HW1  31926   5.038   6.056   3.532
 7982WAT  HW2  31927   5.128   6.177   3.548
 7982WAT  MW   31928   5.111   6.099   3.512
 7983WAT  OW   31929   1.595   0.575   6.198
 7983WAT  HW1  31930   1.579   0.526   6.279
 7983WAT  HW2  31931   1.592   0.667   6.226
 7983WAT  MW   31932   1.593   0.581   6.213
 7984WAT  OW   31933   2.513   4.959   3.463
 7984WAT  HW1  31934   2.477   5.042   3.494
 7984WAT  HW2  31935   2.608   4.968   3.473
 7984WAT  MW   31936   2.521   4.971   3.469
 7985WAT  OW   31937   1.729   5.692   4.677
 7985WAT  HW1  31938   1.752   5.605   4.642
 7985WAT  HW2  31939   1.775   5.697   4.760
 7985WAT  MW   31940   1.738   5.681   4.683
 7986WAT  OW   31941   1.517   0.469   2.493
 7986WAT  HW1  31942   1.501   0.437   2.404
 7986WAT  HW2  31943   1.442   0.524   2.514
 7986WAT  MW   31944   1.505   0.472   2.484
 7987WAT  OW   31945   2.337   6.307   5.022
 7987WAT  HW1  31946   2.425   6.342   5.009
 7987WAT  HW2  31947   2.347   6.243   5.093
 7987WAT  MW   31948   2.350   6.303   5.030
 7988WAT  OW   31949   3.673   2.613   3.231
 7988WAT  HW1  31950   3.753   2.665   3.237
 7988WAT  HW2  31951   3.650   2.616   3.138
 7988WAT  MW   31952   3.681   2.620   3.219
 7989WAT  OW   31953   1.462   6.340   3.575
 7989WAT  HW1  31954   1.487   6.429   3.550
 7989WAT  HW2  31955   1.534   6.285   3.544
 7989WAT  MW   31956   1.475   6.345   3.568
 7990WAT  OW   31957   4.703   3.549   5.577
 7990WAT  HW1  31958   4.654   3.593   5.508
 7990WAT  HW2  31959   4.676   3.593   5.658
 7990WAT  MW   31960   4.693   3.560   5.579
 7991WAT  OW   31961   1.711   3.728   1.787
 7991WAT  HW1  31962   1.785   3.746   1.728
 7991WAT  HW2  31963   1.750   3.721   1.874
 7991WAT  MW   31964   1.726   3.730   1.790
 7992WAT  OW   31965   1.842   0.257   2.605
 7992WAT  HW1  31966   1.797   0.217   2.680
 7992WAT  HW2  31967   1.884   0.335   2.642
 7992WAT  MW   31968   1.842   0.262   2.620
 7993WAT  OW   31969   4.722   4.447   6.072
 7993WAT  HW1  31970   4.782   4.374   6.056
 7993WAT  HW2  31971   4.764   4.498   6.141
 7993WAT  MW   31972   4.735   4.444   6.079
 7994WAT  OW   31973   3.697   6.114   6.606
 7994WAT  HW1  31974   3.780   6.162   6.618
 7994WAT  HW2  31975   3.637   6.178   6.569
 7994WAT  MW   31976   3.700   6.129   6.603
 7995WAT  OW   31977   4.663   4.772   0.632
 7995WAT  HW1  31978   4.617   4.856   0.635
 7995WAT  HW2  31979   4.712   4.769   0.714
 7995WAT  MW   31980   4.663   4.783   0.643
 7996WAT  OW   31981   0.997   3.775   3.462
 7996WAT  HW1  31982   1.004   3.836   3.536
 7996WAT  HW2  31983   1.058   3.809   3.396
 7996WAT  MW   31984   1.006   3.788   3.463
 7997WAT  OW   31985   4.844   2.444   1.722
 7997WAT  HW1  31986   4.903   2.483   1.657
 7997WAT  HW2  31987   4.760   2.438   1.677
 7997WAT  MW   31988   4.841   2.448   1.707
 7998WAT  OW   31989   3.442   0.192   6.534
 7998WAT  HW1  31990   3.416   0.121   6.476
 7998WAT  HW2  31991   3.536   0.178   6.549
 7998WAT  MW   31992   3.451   0.181   6.528
 7999WAT  OW   31993   2.317   3.430   4.306
 7999WAT  HW1  31994   2.243   3.409   4.364
 7999WAT  HW2  31995   2.277   3.475   4.232
 7999WAT  MW   31996   2.302   3.433   4.304
 8000WAT  OW   31997   4.556   5.915   2.121
 8000WAT  HW1  31998   4.573   5.821   2.124
 8000WAT  HW2  31999   4.633   5.952   2.077
 8000WAT  MW   32000   4.568   5.908   2.116
 8001WAT  OW   32001   1.357   0.669   2.879
 8001WAT  HW1  32002   1.304   0.611   2.825
 8001WAT  HW2  32003   1.349   0.755   2.837
 8001WAT  MW   32004   1.349   0.673   2.866
 8002WAT  OW   32005   5.561   2.590   6.207
 8002WAT  HW1  32006   5.647   2.549   6.209
 8002WAT  HW2  32007   5.516   2.549   6.133
 8002WAT  MW   32008   5.566   2.579   6.198
 8003WAT  OW   32009   1.061   2.725   1.164
 8003WAT  HW1  32010   1.097   2.649   1.119
 8003WAT  HW2  32011   1.061   2.794   1.097
 8003WAT  MW   32012   1.066   2.724   1.149
 8004WAT  OW   32013   2.594   3.214   0.305
 8004WAT  HW1  32014   2.534   3.241   0.374
 8004WAT  HW2  32015   2.568   3.264   0.228
 8004WAT  MW   32016   2.583   3.224   0.304
 8005WAT  OW   32017   4.030   2.376   6.578
 8005WAT  HW1  32018   4.052   2.425   6.499
 8005WAT  HW2  32019   4.081   2.295   6.571
 8005WAT  MW   32020   4.040   2.372   6.567
 8006WAT  OW   32021   1.121   0.881   5.116
 8006WAT  HW1  32022   1.101   0.788   5.106
 8006WAT  HW2  32023   1.211   0.890   5.084
 8006WAT  MW   32024   1.130   0.870   5.110
 8007WAT  OW   32025   4.593   3.040   1.648
 8007WAT  HW1  32026   4.624   2.986   1.721
 8007WAT  HW2  32027   4.526   3.096   1.687
 8007WAT  MW   32028   4.588   3.040   1.663
 8008WAT  OW   32029   0.270   5.737   4.279
 8008WAT  HW1  32030   0.229   5.719   4.364
 8008WAT  HW2  32031   0.364   5.721   4.294
 8008WAT  MW   32032   0.277   5.733   4.292
 8009WAT  OW   32033   6.179   2.459   0.829
 8009WAT  HW1  32034   6.138   2.542   0.853
 8009WAT  HW2  32035   6.133   2.431   0.750
 8009WAT  MW   32036   6.168   2.466   0.822
 8010WAT  OW   32037   2.787   1.763   1.933
 8010WAT  HW1  32038   2.787   1.766   1.837
 8010WAT  HW2  32039   2.819   1.676   1.955
 8010WAT  MW   32040   2.791   1.752   1.923
 8011WAT  OW   32041   0.440   5.449   5.787
 8011WAT  HW1  32042   0.353   5.428   5.820
 8011WAT  HW2  32043   0.499   5.430   5.859
 8011WAT  MW   32044   0.437   5.444   5.801
 8012WAT  OW   32045   1.461   4.887   3.967
 8012WAT  HW1  32046   1.413   4.931   3.897
 8012WAT  HW2  32047   1.524   4.831   3.922
 8012WAT  MW   32048   1.463   4.885   3.952
 8013WAT  OW   32049   3.174   0.751   1.200
 8013WAT  HW1  32050   3.153   0.676   1.255
 8013WAT  HW2  32051   3.180   0.715   1.112
 8013WAT  MW   32052   3.172   0.736   1.196
 8014WAT  OW   32053   5.742   1.794   6.244
 8014WAT  HW1  32054   5.708   1.705   6.237
 8014WAT  HW2  32055   5.832   1.783   6.275
 8014WAT  MW   32056   5.750   1.781   6.247
 8015WAT  OW   32057   5.477   0.746   6.223
 8015WAT  HW1  32058   5.447   0.795   6.300
 8015WAT  HW2  32059   5.435   0.661   6.231
 8015WAT  MW   32060   5.467   0.742   6.234
 8016WAT  OW   32061   1.619   5.986   0.616
 8016WAT  HW1  32062   1.690   6.037   0.576
 8016WAT  HW2  32063   1.549   6.050   0.631
 8016WAT  MW   32064   1.619   6.001   0.613
 8017WAT  OW   32065   6.372   6.437   3.569
 8017WAT  HW1  32066   6.285   6.465   3.597
 8017WAT  HW2  32067   6.358   6.394   3.485
 8017WAT  MW   32068   6.359   6.435   3.562
 8018WAT  OW   32069   1.401   0.289   2.738
 8018WAT  HW1  32070   1.345   0.365   2.721
 8018WAT  HW2  32071   1.485   0.326   2.764
 8018WAT  MW   32072   1.404   0.304   2.739
 8019WAT  OW   32073   3.304   2.444   5.284
 8019WAT  HW1  32074   3.361   2.498   5.338
 8019WAT  HW2  32075   3.216   2.478   5.299
 8019WAT  MW   32076   3.300   2.455   5.293
 8020WAT  OW   32077   2.098   5.137   6.370
 8020WAT  HW1  32078   2.033   5.188   6.418
 8020WAT  HW2  32079   2.179   5.189   6.377
 8020WAT  MW   32080   2.100   5.151   6.377
 8021WAT  OW   32081   2.958   1.073   4.612
 8021WAT  HW1  32082   2.985   1.054   4.522
 8021WAT  HW2  32083   2.888   1.010   4.629
 8021WAT  MW   32084   2.952   1.062   4.602
 8022WAT  OW   32085   6.169   3.747   0.547
 8022WAT  HW1  32086   6.207   3.674   0.498
 8022WAT  HW2  32087   6.079   3.721   0.564
 8022WAT  MW   32088   6.162   3.734   0.543
 8023WAT  OW   32089   2.237   5.520   2.730
 8023WAT  HW1  32090   2.294   5.456   2.771
 8023WAT  HW2  32091   2.278   5.604   2.748
 8023WAT  MW   32092   2.250   5.523   2.738
 8024WAT  OW   32093   3.089   0.109   2.189
 8024WAT  HW1  32094   3.097   0.131   2.282
 8024WAT  HW2  32095   3.111   0.016   2.185
 8024WAT  MW   32096   3.093   0.099   2.201
 8025WAT  OW   32097   5.721   0.684   2.378
 8025WAT  HW1  32098   5.777   0.683   2.300
 8025WAT  HW2  32099   5.773   0.730   2.444
 8025WAT  MW   32100   5.735   0.690   2.377
 8026WAT  OW   32101   2.733   3.236   6.693
 8026WAT  HW1  32102   2.692   3.150   6.702
 8026WAT  HW2  32103   2.823   3.216   6.668
 8026WAT  MW   32104   2.740   3.222   6.691
 8027WAT  OW   32105   3.986   3.121   2.795
 8027WAT  HW1  32106   4.050   3.133   2.865
 8027WAT  HW2  32107   4.035   3.078   2.725
 8027WAT  MW   32108   4.001   3.117   2.795
 8028WAT  OW   32109   6.203   2.090   5.093
 8028WAT  HW1  32110   6.274   2.102   5.156
 8028WAT  HW2  32111   6.241   2.037   5.023
 8028WAT  MW   32112   6.217   2.084   5.092
 8029WAT  OW   32113   1.002   6.503   6.481
 8029WAT  HW1  32114   0.985   6.536   6.393
 8029WAT  HW2  32115   0.940   6.432   6.494
 8029WAT  MW   32116   0.992   6.498   6.471
 8030WAT  OW   32117   5.026   1.185   4.477
 8030WAT  HW1  32118   5.045   1.205   4.385
 8030WAT  HW2  32119   5.095   1.124   4.503
 8030WAT  MW   32120   5.037   1.180   4.468
 8031WAT  OW   32121   3.079   1.666   5.501
 8031WAT  HW1  32122   3.026   1.701   5.429
 8031WAT  HW2  32123   3.109   1.743   5.548
 8031WAT  MW   32124   3.076   1.681   5.497
 8032WAT  OW   32125   5.511   5.816   4.370
 8032WAT  HW1  32126   5.586   5.840   4.425
 8032WAT  HW2  32127   5.509   5.720   4.374
 8032WAT  MW   32128   5.520   5.806   4.378
 8033WAT  OW   32129   0.138   1.317   4.258
 8033WAT  HW1  32130   0.199   1.300   4.186
 8033WAT  HW2  32131   0.074   1.378   4.222
 8033WAT  MW   32132   0.138   1.323   4.244
 8034WAT  OW   32133   2.863   5.716   5.137
 8034WAT  HW1  32134   2.777   5.758   5.129
 8034WAT  HW2  32135   2.878   5.675   5.052
 8034WAT  MW   32136   2.854   5.716   5.125
 8035WAT  OW   32137   4.872   6.431   3.776
 8035WAT  HW1  32138   4.816   6.360   3.744
 8035WAT  HW2  32139   4.821   6.472   3.846
 8035WAT  MW   32140   4.858   6.427   3.781
 8036WAT  OW   32141   5.069   3.409   6.309
 8036WAT  HW1  32142   5.096   3.466   6.238
 8036WAT  HW2  32143   5.063   3.322   6.269
 8036WAT  MW   32144   5.072   3.405   6.295
 8037WAT  OW   32145   4.269   0.383   3.291
 8037WAT  HW1  32146   4.301   0.362   3.379
 8037WAT  HW2  32147   4.194   0.441   3.306
 8037WAT  MW   32148   4.263   0.388   3.305
 8038WAT  OW   32149   1.430   4.201   4.694
 8038WAT  HW1  32150   1.416   4.200   4.789
 8038WAT  HW2  32151   1.422   4.293   4.669
 8038WAT  MW   32152   1.427   4.213   4.703
 8039WAT  OW   32153   3.327   3.631   5.646
 8039WAT  HW1  32154   3.343   3.598   5.557
 8039WAT  HW2  32155   3.315   3.725   5.635
 8039WAT  MW   32156   3.327   3.639   5.633
 8040WAT  OW   32157   3.613   2.540   4.757
 8040WAT  HW1  32158   3.526   2.514   4.786
 8040WAT  HW2  32159   3.598   2.606   4.690
 8040WAT  MW   32160   3.600   2.545   4.752
 8041WAT  OW   32161   6.452   0.950   4.860
 8041WAT  HW1  32162   6.457   0.980   4.951
 8041WAT  HW2  32163   6.362   0.969   4.834
 8041WAT  MW   32164   6.441   0.957   4.869
 8042WAT  OW   32165   1.424   1.851   6.232
 8042WAT  HW1  32166   1.400   1.768   6.190
 8042WAT  HW2  32167   1.386   1.919   6.177
 8042WAT  MW   32168   1.416   1.849   6.220
 8043WAT  OW   32169   4.153   3.329   5.868
 8043WAT  HW1  32170   4.177   3.255   5.813
 8043WAT  HW2  32171   4.144   3.402   5.807
 8043WAT  MW   32172   4.155   3.329   5.853
 8044WAT  OW   32173   4.279   1.943   6.403
 8044WAT  HW1  32174   4.353   1.980   6.355
 8044WAT  HW2  32175   4.202   1.981   6.362
 8044WAT  MW   32176   4.279   1.953   6.391
 8045WAT  OW   32177   5.951   0.646   0.164
 8045WAT  HW1  32178   6.032   0.691   0.139
 8045WAT  HW2  32179   5.954   0.642   0.259
 8045WAT  MW   32180   5.962   0.651   0.173
 8046WAT  OW   32181   1.398   2.635   1.353
 8046WAT  HW1  32182   1.381   2.575   1.281
 8046WAT  HW2  32183   1.425   2.578   1.425
 8046WAT  MW   32184   1.399   2.620   1.353
 8047WAT  OW   32185   5.859   0.299   2.865
 8047WAT  HW1  32186   5.792   0.257   2.919
 8047WAT  HW2  32187   5.887   0.231   2.804
 8047WAT  MW   32188   5.854   0.285   2.864
 8048WAT  OW   32189   6.352   4.424   1.491
 8048WAT  HW1  32190   6.294   4.495   1.462
 8048WAT  HW2  32191   6.294   4.357   1.526
 8048WAT  MW   32192   6.337   4.425   1.491
 8049WAT  OW   32193   5.182   6.102   5.915
 8049WAT  HW1  32194   5.106   6.157   5.893
 8049WAT  HW2  32195   5.193   6.045   5.840
 8049WAT  MW   32196   5.173   6.102   5.902
 8050WAT  OW   32197   0.277   4.077   2.553
 8050WAT  HW1  32198   0.269   4.033   2.638
 8050WAT  HW2  32199   0.305   4.008   2.493
 8050WAT  MW   32200   0.279   4.062   2.556
 8051WAT  OW   32201   6.458   2.984   1.861
 8051WAT  HW1  32202   6.416   2.980   1.775
 8051WAT  HW2  32203   6.388   2.962   1.923
 8051WAT  MW   32204   6.443   2.981   1.858
 8052WAT  OW   32205   5.195   1.083   6.481
 8052WAT  HW1  32206   5.127   1.148   6.460
 8052WAT  HW2  32207   5.149   1.017   6.535
 8052WAT  MW   32208   5.180   1.083   6.485
 8053WAT  OW   32209   0.423   4.783   4.162
 8053WAT  HW1  32210   0.364   4.858   4.172
 8053WAT  HW2  32211   0.395   4.741   4.081
 8053WAT  MW   32212   0.412   4.787   4.153
 8054WAT  OW   32213   5.001   0.762   5.231
 8054WAT  HW1  32214   5.065   0.816   5.278
 8054WAT  HW2  32215   5.004   0.677   5.275
 8054WAT  MW   32216   5.010   0.758   5.243
 8055WAT  OW   32217   0.727   1.246   5.374
 8055WAT  HW1  32218   0.689   1.233   5.287
 8055WAT  HW2  32219   0.787   1.320   5.363
 8055WAT  MW   32220   0.730   1.254   5.361
 8056WAT  OW   32221   6.655   1.920   6.350
 8056WAT  HW1  32222   6.562   1.940   6.348
 8056WAT  HW2  32223   6.659   1.825   6.362
 8056WAT  MW   32224   6.643   1.910   6.351
 8057WAT  OW   32225   6.647   5.799   0.996
 8057WAT  HW1  32226   6.729   5.756   1.020
 8057WAT  HW2  32227   6.593   5.729   0.958
 8057WAT  MW   32228   6.651   5.784   0.994
 8058WAT  OW   32229   4.214   6.025   2.437
 8058WAT  HW1  32230   4.233   5.950   2.494
 8058WAT  HW2  32231   4.243   6.101   2.487
 8058WAT  MW   32232   4.220   6.025   2.451
 8059WAT  OW   32233   1.489   4.771   1.082
 8059WAT  HW1  32234   1.404   4.802   1.114
 8059WAT  HW2  32235   1.471   4.683   1.049
 8059WAT  MW   32236   1.475   4.764   1.082
 8060WAT  OW   32237   4.746   2.151   2.550
 8060WAT  HW1  32238   4.808   2.148   2.477
 8060WAT  HW2  32239   4.663   2.174   2.510
 8060WAT  MW   32240   4.743   2.154   2.535
 8061WAT  OW   32241   1.300   1.540   6.589
 8061WAT  HW1  32242   1.247   1.505   6.660
 8061WAT  HW2  32243   1.278   1.633   6.586
 8061WAT  MW   32244   1.290   1.548   6.598
 8062WAT  OW   32245   2.216   3.476   1.500
 8062WAT  HW1  32246   2.157   3.530   1.552
 8062WAT  HW2  32247   2.301   3.484   1.542
 8062WAT  MW   32248   2.220   3.484   1.512
 8063WAT  OW   32249   3.420   3.688   0.321
 8063WAT  HW1  32250   3.487   3.730   0.375
 8063WAT  HW2  32251   3.432   3.727   0.234
 8063WAT  MW   32252   3.431   3.699   0.317
 8064WAT  OW   32253   4.879   0.844   3.718
 8064WAT  HW1  32254   4.884   0.864   3.625
 8064WAT  HW2  32255   4.901   0.926   3.762
 8064WAT  MW   32256   4.882   0.857   3.712
 8065WAT  OW   32257   4.725   3.083   1.246
 8065WAT  HW1  32258   4.705   3.154   1.307
 8065WAT  HW2  32259   4.787   3.028   1.294
 8065WAT  MW   32260   4.730   3.085   1.261
 8066WAT  OW   32261   0.177   3.448   4.459
 8066WAT  HW1  32262   0.108   3.451   4.393
 8066WAT  HW2  32263   0.174   3.533   4.502
 8066WAT  MW   32264   0.168   3.459   4.456
 8067WAT  OW   32265   0.790   1.299   3.645
 8067WAT  HW1  32266   0.867   1.256   3.608
 8067WAT  HW2  32267   0.750   1.345   3.572
 8067WAT  MW   32268   0.795   1.300   3.631
 8068WAT  OW   32269   1.705   6.531   2.543
 8068WAT  HW1  32270   1.759   6.463   2.585
 8068WAT  HW2  32271   1.648   6.563   2.613
 8068WAT  MW   32272   1.705   6.526   2.558
 8069WAT  OW   32273   4.140   2.990   5.232
 8069WAT  HW1  32274   4.227   2.979   5.192
 8069WAT  HW2  32275   4.118   2.903   5.264
 8069WAT  MW   32276   4.149   2.977   5.231
 8070WAT  OW   32277   5.741   5.646   6.642
 8070WAT  HW1  32278   5.826   5.603   6.636
 8070WAT  HW2  32279   5.760   5.739   6.632
 8070WAT  MW   32280   5.755   5.652   6.640
 8071WAT  OW   32281   2.391   5.471   1.502
 8071WAT  HW1  32282   2.441   5.422   1.438
 8071WAT  HW2  32283   2.455   5.497   1.568
 8071WAT  MW   32284   2.406   5.468   1.502
 8072WAT  OW   32285   4.953   1.737   2.940
 8072WAT  HW1  32286   4.965   1.699   3.028
 8072WAT  HW2  32287   4.972   1.830   2.952
 8072WAT  MW   32288   4.957   1.744   2.953
 8073WAT  OW   32289   3.992   4.106   5.894
 8073WAT  HW1  32290   4.040   4.106   5.811
 8073WAT  HW2  32291   3.901   4.118   5.868
 8073WAT  MW   32292   3.986   4.108   5.880
 8074WAT  OW   32293   5.998   1.932   1.260
 8074WAT  HW1  32294   5.956   1.993   1.200
 8074WAT  HW2  32295   6.026   1.987   1.334
 8074WAT  MW   32296   5.996   1.948   1.262
 8075WAT  OW   32297   1.917   0.603   3.857
 8075WAT  HW1  32298   1.829   0.642   3.859
 8075WAT  HW2  32299   1.975   0.672   3.890
 8075WAT  MW   32300   1.913   0.617   3.862
 8076WAT  OW   32301   2.633   4.362   5.649
 8076WAT  HW1  32302   2.633   4.432   5.584
 8076WAT  HW2  32303   2.707   4.382   5.706
 8076WAT  MW   32304   2.643   4.374   5.648
 8077WAT  OW   32305   1.283   4.917   2.296
 8077WAT  HW1  32306   1.220   4.976   2.256
 8077WAT  HW2  32307   1.347   4.975   2.337
 8077WAT  MW   32308   1.283   4.932   2.296
 8078WAT  OW   32309   2.525   1.767   0.690
 8078WAT  HW1  32310   2.441   1.790   0.732
 8078WAT  HW2  32311   2.519   1.673   0.673
 8078WAT  MW   32312   2.513   1.758   0.693
 8079WAT  OW   32313   0.333   1.827   0.291
 8079WAT  HW1  32314   0.423   1.798   0.276
 8079WAT  HW2  32315   0.292   1.821   0.205
 8079WAT  MW   32316   0.340   1.823   0.278
 8080WAT  OW   32317   3.508   4.684   1.813
 8080WAT  HW1  32318   3.463   4.693   1.897
 8080WAT  HW2  32319   3.441   4.652   1.753
 8080WAT  MW   32320   3.494   4.681   1.816
 8081WAT  OW   32321   1.953   0.770   2.388
 8081WAT  HW1  32322   1.986   0.754   2.477
 8081WAT  HW2  32323   1.932   0.863   2.386
 8081WAT  MW   32324   1.954   0.780   2.400
 8082WAT  OW   32325   5.214   6.495   0.958
 8082WAT  HW1  32326   5.222   6.536   0.872
 8082WAT  HW2  32327   5.159   6.419   0.944
 8082WAT  MW   32328   5.208   6.491   0.945
 8083WAT  OW   32329   1.106   3.762   4.374
 8083WAT  HW1  32330   1.175   3.825   4.351
 8083WAT  HW2  32331   1.080   3.786   4.463
 8083WAT  MW   32332   1.112   3.774   4.382
 8084WAT  OW   32333   4.328   4.154   4.383
 8084WAT  HW1  32334   4.402   4.100   4.356
 8084WAT  HW2  32335   4.250   4.102   4.362
 8084WAT  MW   32336   4.327   4.140   4.376
 8085WAT  OW   32337   4.966   3.736   4.975
 8085WAT  HW1  32338   4.963   3.676   5.049
 8085WAT  HW2  32339   5.015   3.688   4.907
 8085WAT  MW   32340   4.972   3.722   4.976
 8086WAT  OW   32341   6.078   6.165   4.374
 8086WAT  HW1  32342   6.151   6.105   4.360
 8086WAT  HW2  32343   6.106   6.247   4.333
 8086WAT  MW   32344   6.091   6.167   4.366
 8087WAT  OW   32345   0.654   5.260   1.714
 8087WAT  HW1  32346   0.624   5.349   1.692
 8087WAT  HW2  32347   0.586   5.225   1.771
 8087WAT  MW   32348   0.641   5.267   1.719
 8088WAT  OW   32349   4.315   0.505   2.408
 8088WAT  HW1  32350   4.256   0.446   2.363
 8088WAT  HW2  32351   4.399   0.459   2.408
 8088WAT  MW   32352   4.319   0.491   2.402
 8089WAT  OW   32353   6.244   2.290   1.611
 8089WAT  HW1  32354   6.332   2.279   1.646
 8089WAT  HW2  32355   6.195   2.332   1.681
 8089WAT  MW   32356   6.249   2.294   1.625
 8090WAT  OW   32357   4.452   3.644   0.815
 8090WAT  HW1  32358   4.407   3.568   0.852
 8090WAT  HW2  32359   4.384   3.712   0.812
 8090WAT  MW   32360   4.437   3.643   0.819
 8091WAT  OW   32361   2.464   3.557   6.288
 8091WAT  HW1  32362   2.469   3.527   6.197
 8091WAT  HW2  32363   2.490   3.481   6.340
 8091WAT  MW   32364   2.468   3.543   6.283
 8092WAT  OW   32365   3.531   0.754   6.357
 8092WAT  HW1  32366   3.608   0.804   6.330
 8092WAT  HW2  32367   3.520   0.688   6.289
 8092WAT  MW   32368   3.540   0.752   6.345
 8093WAT  OW   32369   4.585   2.703   0.005
 8093WAT  HW1  32370   4.568   2.609   0.007
 8093WAT  HW2  32371   4.576   2.727  -0.087
 8093WAT  MW   32372   4.582   2.694  -0.007
 8094WAT  OW   32373   2.083   5.511   1.446
 8094WAT  HW1  32374   2.174   5.528   1.470
 8094WAT  HW2  32375   2.065   5.425   1.483
 8094WAT  MW   32376   2.093   5.502   1.454
 8095WAT  OW   32377   3.294   2.773   6.585
 8095WAT  HW1  32378   3.315   2.706   6.649
 8095WAT  HW2  32379   3.329   2.854   6.623
 8095WAT  MW   32380   3.301   2.775   6.598
 8096WAT  OW   32381   3.850   4.437   1.189
 8096WAT  HW1  32382   3.860   4.532   1.195
 8096WAT  HW2  32383   3.774   4.425   1.131
 8096WAT  MW   32384   3.841   4.448   1.182
 8097WAT  OW   32385   4.825   0.285   6.144
 8097WAT  HW1  32386   4.769   0.362   6.148
 8097WAT  HW2  32387   4.766   0.213   6.123
 8097WAT  MW   32388   4.810   0.285   6.142
 8098WAT  OW   32389   3.975   4.624   2.829
 8098WAT  HW1  32390   4.021   4.665   2.756
 8098WAT  HW2  32391   3.976   4.531   2.809
 8098WAT  MW   32392   3.982   4.617   2.817
 8099WAT  OW   32393   5.673   5.316   4.832
 8099WAT  HW1  32394   5.683   5.319   4.737
 8099WAT  HW2  32395   5.709   5.231   4.857
 8099WAT  MW   32396   5.679   5.305   4.823
 8100WAT  OW   32397   0.379   5.582   3.986
 8100WAT  HW1  32398   0.288   5.601   4.008
 8100WAT  HW2  32399   0.389   5.613   3.896
 8100WAT  MW   32400   0.369   5.589   3.977
 8101WAT  OW   32401   1.897   5.997   4.856
 8101WAT  HW1  32402   1.927   6.048   4.931
 8101WAT  HW2  32403   1.932   6.043   4.780
 8101WAT  MW   32404   1.906   6.009   4.856
 8102WAT  OW   32405   2.641   0.702   4.550
 8102WAT  HW1  32406   2.566   0.705   4.490
 8102WAT  HW2  32407   2.660   0.794   4.568
 8102WAT  MW   32408   2.633   0.714   4.545
 8103WAT  OW   32409   1.422   3.778   2.785
 8103WAT  HW1  32410   1.359   3.834   2.740
 8103WAT  HW2  32411   1.480   3.838   2.831
 8103WAT  MW   32412   1.422   3.793   2.785
 8104WAT  OW   32413   6.468   3.593   2.690
 8104WAT  HW1  32414   6.555   3.567   2.661
 8104WAT  HW2  32415   6.466   3.688   2.678
 8104WAT  MW   32416   6.479   3.602   2.685
 8105WAT  OW   32417   0.529   6.542   2.098
 8105WAT  HW1  32418   0.453   6.495   2.064
 8105WAT  HW2  32419   0.603   6.485   2.077
 8105WAT  MW   32420   0.529   6.528   2.091
 8106WAT  OW   32421   1.495   5.520   6.377
 8106WAT  HW1  32422   1.555   5.481   6.314
 8106WAT  HW2  32423   1.408   5.508   6.339
 8106WAT  MW   32424   1.491   5.513   6.364
 8107WAT  OW   32425   4.278   5.002   1.024
 8107WAT  HW1  32426   4.317   5.044   1.100
 8107WAT  HW2  32427   4.244   5.075   0.971
 8107WAT  MW   32428   4.279   5.018   1.027
 8108WAT  OW   32429   3.047   5.094   1.553
 8108WAT  HW1  32430   3.008   5.007   1.559
 8108WAT  HW2  32431   3.140   5.080   1.569
 8108WAT  MW   32432   3.054   5.081   1.556
 8109WAT  OW   32433   0.606   6.282   2.460
 8109WAT  HW1  32434   0.650   6.333   2.528
 8109WAT  HW2  32435   0.564   6.347   2.404
 8109WAT  MW   32436   0.606   6.297   2.462
 8110WAT  OW   32437   6.417   4.441   4.899
 8110WAT  HW1  32438   6.480   4.458   4.830
 8110WAT  HW2  32439   6.463   4.386   4.963
 8110WAT  MW   32440   6.431   4.436   4.899
 8111WAT  OW   32441   1.628   1.981   4.219
 8111WAT  HW1  32442   1.608   2.061   4.168
 8111WAT  HW2  32443   1.611   1.910   4.157
 8111WAT  MW   32444   1.623   1.982   4.204
 8112WAT  OW   32445   3.756   6.232   1.867
 8112WAT  HW1  32446   3.807   6.290   1.924
 8112WAT  HW2  32447   3.729   6.160   1.923
 8112WAT  MW   32448   3.760   6.230   1.882
 8113WAT  OW   32449   2.890   0.591   0.339
 8113WAT  HW1  32450   2.981   0.564   0.343
 8113WAT  HW2  32451   2.860   0.587   0.430
 8113WAT  MW   32452   2.898   0.587   0.352
 8114WAT  OW   32453   2.626   1.847   4.364
 8114WAT  HW1  32454   2.686   1.774   4.348
 8114WAT  HW2  32455   2.676   1.925   4.341
 8114WAT  MW   32456   2.640   1.848   4.358
 8115WAT  OW   32457   4.530   0.391   3.743
 8115WAT  HW1  32458   4.501   0.382   3.652
 8115WAT  HW2  32459   4.486   0.471   3.774
 8115WAT  MW   32460   4.521   0.401   3.735
 8116WAT  OW   32461   0.163   0.062   2.274
 8116WAT  HW1  32462   0.234   0.085   2.215
 8116WAT  HW2  32463   0.110   0.000   2.224
 8116WAT  MW   32464   0.165   0.057   2.260
 8117WAT  OW   32465   1.133   1.492   0.605
 8117WAT  HW1  32466   1.115   1.446   0.523
 8117WAT  HW2  32467   1.121   1.584   0.584
 8117WAT  MW   32468   1.129   1.498   0.592
 8118WAT  OW   32469   6.607   1.901   4.601
 8118WAT  HW1  32470   6.540   1.957   4.640
 8118WAT  HW2  32471   6.602   1.919   4.507
 8118WAT  MW   32472   6.598   1.911   4.594
 8119WAT  OW   32473   5.324   5.519   3.108
 8119WAT  HW1  32474   5.301   5.608   3.081
 8119WAT  HW2  32475   5.348   5.475   3.027
 8119WAT  MW   32476   5.324   5.525   3.094
 8120WAT  OW   32477   3.626   3.829   6.129
 8120WAT  HW1  32478   3.562   3.773   6.173
 8120WAT  HW2  32479   3.633   3.906   6.185
 8120WAT  MW   32480   3.618   3.832   6.142
 8121WAT  OW   32481   3.588   1.512   3.428
 8121WAT  HW1  32482   3.590   1.444   3.361
 8121WAT  HW2  32483   3.505   1.557   3.415
 8121WAT  MW   32484   3.577   1.509   3.417
 8122WAT  OW   32485   0.066   4.791   6.518
 8122WAT  HW1  32486   0.098   4.705   6.489
 8122WAT  HW2  32487  -0.028   4.779   6.527
 8122WAT  MW   32488   0.058   4.778   6.515
 8123WAT  OW   32489   2.696   2.684   2.639
 8123WAT  HW1  32490   2.645   2.690   2.558
 8123WAT  HW2  32491   2.787   2.682   2.610
 8123WAT  MW   32492   2.701   2.684   2.625
 8124WAT  OW   32493   3.196   0.707   3.069
 8124WAT  HW1  32494   3.129   0.699   3.001
 8124WAT  HW2  32495   3.266   0.649   3.040
 8124WAT  MW   32496   3.196   0.698   3.057
 8125WAT  OW   32497   3.407   6.101   0.053
 8125WAT  HW1  32498   3.459   6.025   0.027
 8125WAT  HW2  32499   3.324   6.064   0.084
 8125WAT  MW   32500   3.403   6.086   0.054
 8126WAT  OW   32501   2.236   5.587   3.870
 8126WAT  HW1  32502   2.321   5.631   3.873
 8126WAT  HW2  32503   2.250   5.504   3.916
 8126WAT  MW   32504   2.249   5.582   3.877
 8127WAT  OW   32505   0.002   2.942   3.882
 8127WAT  HW1  32506   0.017   2.871   3.945
 8127WAT  HW2  32507  -0.034   3.013   3.935
 8127WAT  MW   32508  -0.001   2.942   3.897
 8128WAT  OW   32509   0.643   3.257   2.905
 8128WAT  HW1  32510   0.636   3.179   2.851
 8128WAT  HW2  32511   0.715   3.239   2.965
 8128WAT  MW   32512   0.651   3.244   2.906
 8129WAT  OW   32513   0.927   4.091   1.741
 8129WAT  HW1  32514   0.987   4.062   1.672
 8129WAT  HW2  32515   0.853   4.030   1.736
 8129WAT  MW   32516   0.925   4.079   1.731
 8130WAT  OW   32517   2.007   0.724   0.570
 8130WAT  HW1  32518   1.926   0.769   0.593
 8130WAT  HW2  32519   1.992   0.633   0.595
 8130WAT  MW   32520   1.994   0.718   0.576
 8131WAT  OW   32521   0.784   0.127   1.022
 8131WAT  HW1  32522   0.792   0.076   0.941
 8131WAT  HW2  32523   0.743   0.209   0.994
 8131WAT  MW   32524   0.780   0.131   1.007
 8132WAT  OW   32525   6.464   6.295   0.470
 8132WAT  HW1  32526   6.551   6.318   0.504
 8132WAT  HW2  32527   6.459   6.338   0.385
 8132WAT  MW   32528   6.475   6.304   0.464
 8133WAT  OW   32529   2.168   5.786   1.144
 8133WAT  HW1  32530   2.117   5.745   1.074
 8133WAT  HW2  32531   2.137   5.876   1.147
 8133WAT  MW   32532   2.157   5.792   1.135
 8134WAT  OW   32533   6.376   3.416   2.491
 8134WAT  HW1  32534   6.390   3.462   2.408
 8134WAT  HW2  32535   6.407   3.477   2.558
 8134WAT  MW   32536   6.382   3.430   2.489
 8135WAT  OW   32537   3.528   1.904   1.818
 8135WAT  HW1  32538   3.485   1.921   1.734
 8135WAT  HW2  32539   3.493   1.820   1.847
 8135WAT  MW   32540   3.518   1.895   1.811
 8136WAT  OW   32541   0.538   1.650   3.679
 8136WAT  HW1  32542   0.523   1.689   3.766
 8136WAT  HW2  32543   0.500   1.713   3.618
 8136WAT  MW   32544   0.531   1.663   3.683
 8137WAT  OW   32545   0.540   4.686   2.414
 8137WAT  HW1  32546   0.529   4.592   2.398
 8137WAT  HW2  32547   0.505   4.728   2.335
 8137WAT  MW   32548   0.534   4.679   2.401
 8138WAT  OW   32549   5.740   5.807   1.438
 8138WAT  HW1  32550   5.651   5.774   1.427
 8138WAT  HW2  32551   5.784   5.740   1.490
 8138WAT  MW   32552   5.734   5.794   1.444
 8139WAT  OW   32553   1.528   3.965   1.753
 8139WAT  HW1  32554   1.555   3.874   1.766
 8139WAT  HW2  32555   1.437   3.968   1.783
 8139WAT  MW   32556   1.520   3.954   1.759
 8140WAT  OW   32557   4.075   4.353   0.596
 8140WAT  HW1  32558   4.042   4.293   0.529
 8140WAT  HW2  32559   4.169   4.355   0.583
 8140WAT  MW   32560   4.083   4.346   0.586
 8141WAT  OW   32561   0.055   1.763   6.586
 8141WAT  HW1  32562   0.018   1.682   6.550
 8141WAT  HW2  32563   0.005   1.779   6.666
 8141WAT  MW   32564   0.043   1.754   6.592
 8142WAT  OW   32565   0.165   6.153   4.450
 8142WAT  HW1  32566   0.259   6.141   4.465
 8142WAT  HW2  32567   0.130   6.179   4.536
 8142WAT  MW   32568   0.173   6.155   4.463
 8143WAT  OW   32569   4.825   3.734   4.526
 8143WAT  HW1  32570   4.848   3.646   4.496
 8143WAT  HW2  32571   4.899   3.788   4.500
 8143WAT  MW   32572   4.837   3.729   4.518
 8144WAT  OW   32573   4.722   3.420   1.927
 8144WAT  HW1  32574   4.721   3.515   1.937
 8144WAT  HW2  32575   4.705   3.405   1.834
 8144WAT  MW   32576   4.719   3.431   1.916
 8145WAT  OW   32577   0.769   5.195   2.597
 8145WAT  HW1  32578   0.825   5.204   2.520
 8145WAT  HW2  32579   0.830   5.200   2.671
 8145WAT  MW   32580   0.784   5.197   2.596
 8146WAT  OW   32581   1.713   1.302   6.648
 8146WAT  HW1  32582   1.646   1.338   6.590
 8146WAT  HW2  32583   1.665   1.244   6.707
 8146WAT  MW   32584   1.698   1.299   6.648
 8147WAT  OW   32585   0.856   5.168   6.594
 8147WAT  HW1  32586   0.785   5.191   6.654
 8147WAT  HW2  32587   0.932   5.152   6.650
 8147WAT  MW   32588   0.857   5.169   6.609
 8148WAT  OW   32589   2.244   2.359   2.856
 8148WAT  HW1  32590   2.180   2.291   2.838
 8148WAT  HW2  32591   2.285   2.377   2.771
 8148WAT  MW   32592   2.241   2.353   2.843
 8149WAT  OW   32593   2.936   4.975   5.022
 8149WAT  HW1  32594   2.944   5.025   4.941
 8149WAT  HW2  32595   2.920   5.040   5.090
 8149WAT  MW   32596   2.935   4.990   5.020
 8150WAT  OW   32597   2.637   0.720   1.454
 8150WAT  HW1  32598   2.666   0.670   1.531
 8150WAT  HW2  32599   2.566   0.668   1.417
 8150WAT  MW   32600   2.631   0.706   1.459
 8151WAT  OW   32601   3.073   4.143   3.079
 8151WAT  HW1  32602   3.113   4.193   3.151
 8151WAT  HW2  32603   3.117   4.058   3.081
 8151WAT  MW   32604   3.084   4.139   3.089
 8152WAT  OW   32605   5.905   1.535   6.147
 8152WAT  HW1  32606   5.935   1.506   6.233
 8152WAT  HW2  32607   5.974   1.594   6.116
 8152WAT  MW   32608   5.918   1.539   6.154
 8153WAT  OW   32609   5.532   2.524   1.775
 8153WAT  HW1  32610   5.455   2.492   1.822
 8153WAT  HW2  32611   5.576   2.445   1.744
 8153WAT  MW   32612   5.528   2.509   1.777
 8154WAT  OW   32613   0.756   6.374   2.105
 8154WAT  HW1  32614   0.759   6.284   2.074
 8154WAT  HW2  32615   0.833   6.415   2.067
 8154WAT  MW   32616   0.766   6.368   2.096
 8155WAT  OW   32617   0.449   3.534   4.394
 8155WAT  HW1  32618   0.363   3.528   4.436
 8155WAT  HW2  32619   0.453   3.458   4.337
 8155WAT  MW   32620   0.438   3.523   4.392
 8156WAT  OW   32621   2.139   0.209   5.196
 8156WAT  HW1  32622   2.192   0.259   5.258
 8156WAT  HW2  32623   2.142   0.260   5.115
 8156WAT  MW   32624   2.146   0.222   5.194
 8157WAT  OW   32625   0.278   5.068   1.628
 8157WAT  HW1  32626   0.334   4.991   1.627
 8157WAT  HW2  32627   0.270   5.091   1.721
 8157WAT  MW   32628   0.284   5.061   1.641
 8158WAT  OW   32629   5.290   5.867   4.565
 8158WAT  HW1  32630   5.369   5.853   4.513
 8158WAT  HW2  32631   5.302   5.954   4.603
 8158WAT  MW   32632   5.302   5.877   4.563
 8159WAT  OW   32633   2.319   5.416   5.326
 8159WAT  HW1  32634   2.245   5.425   5.266
 8159WAT  HW2  32635   2.304   5.333   5.371
 8159WAT  MW   32636   2.307   5.407   5.324
 8160WAT  OW   32637   3.117   3.502   1.646
 8160WAT  HW1  32638   3.106   3.518   1.739
 8160WAT  HW2  32639   3.042   3.546   1.605
 8160WAT  MW   32640   3.106   3.510   1.653
 8161WAT  OW   32641   0.581   0.941   4.965
 8161WAT  HW1  32642   0.486   0.946   4.971
 8161WAT  HW2  32643   0.612   0.966   5.053
 8161WAT  MW   32644   0.573   0.945   4.978
 8162WAT  OW   32645   5.350   0.038   5.629
 8162WAT  HW1  32646   5.366  -0.056   5.623
 8162WAT  HW2  32647   5.437   0.077   5.618
 8162WAT  MW   32648   5.364   0.031   5.626
 8163WAT  OW   32649   2.212   2.099   2.406
 8163WAT  HW1  32650   2.212   2.007   2.380
 8163WAT  HW2  32651   2.135   2.137   2.364
 8163WAT  MW   32652   2.202   2.092   2.397
 8164WAT  OW   32653   5.355   0.979   4.820
 8164WAT  HW1  32654   5.407   1.020   4.889
 8164WAT  HW2  32655   5.273   0.955   4.862
 8164WAT  MW   32656   5.351   0.981   4.834
 8165WAT  OW   32657   4.693   0.420   3.399
 8165WAT  HW1  32658   4.743   0.423   3.318
 8165WAT  HW2  32659   4.753   0.382   3.463
 8165WAT  MW   32660   4.708   0.415   3.397
 8166WAT  OW   32661   1.032   0.619   4.302
 8166WAT  HW1  32662   1.074   0.703   4.320
 8166WAT  HW2  32663   0.955   0.642   4.250
 8166WAT  MW   32664   1.027   0.633   4.298
 8167WAT  OW   32665   1.651   5.237   3.680
 8167WAT  HW1  32666   1.704   5.186   3.742
 8167WAT  HW2  32667   1.652   5.185   3.600
 8167WAT  MW   32668   1.658   5.223   3.678
 8168WAT  OW   32669   3.307   3.901   1.387
 8168WAT  HW1  32670   3.332   3.983   1.343
 8168WAT  HW2  32671   3.303   3.924   1.480
 8168WAT  MW   32672   3.310   3.915   1.393
 8169WAT  OW   32673   5.247   2.185   5.148
 8169WAT  HW1  32674   5.219   2.270   5.112
 8169WAT  HW2  32675   5.303   2.148   5.080
 8169WAT  MW   32676   5.251   2.191   5.134
 8170WAT  OW   32677   1.789   3.298   1.131
 8170WAT  HW1  32678   1.812   3.240   1.204
 8170WAT  HW2  32679   1.844   3.375   1.144
 8170WAT  MW   32680   1.799   3.300   1.142
 8171WAT  OW   32681   5.589   4.299   5.236
 8171WAT  HW1  32682   5.541   4.317   5.156
 8171WAT  HW2  32683   5.562   4.368   5.297
 8171WAT  MW   32684   5.579   4.311   5.234
 8172WAT  OW   32685   5.670   0.603   4.582
 8172WAT  HW1  32686   5.762   0.624   4.599
 8172WAT  HW2  32687   5.621   0.654   4.647
 8172WAT  MW   32688   5.676   0.613   4.593
 8173WAT  OW   32689   2.328   4.320   3.250
 8173WAT  HW1  32690   2.410   4.313   3.299
 8173WAT  HW2  32691   2.286   4.234   3.261
 8173WAT  MW   32692   2.333   4.307   3.258
 8174WAT  OW   32693   3.620   0.236   0.382
 8174WAT  HW1  32694   3.699   0.287   0.399
 8174WAT  HW2  32695   3.652   0.150   0.354
 8174WAT  MW   32696   3.635   0.231   0.381
 8175WAT  OW   32697   6.422   4.814   2.990
 8175WAT  HW1  32698   6.501   4.862   3.015
 8175WAT  HW2  32699   6.365   4.881   2.950
 8175WAT  MW   32700   6.425   4.829   2.988
 8176WAT  OW   32701   3.477   2.117   4.707
 8176WAT  HW1  32702   3.562   2.093   4.744
 8176WAT  HW2  32703   3.499   2.159   4.624
 8176WAT  MW   32704   3.491   2.119   4.701
 8177WAT  OW   32705   5.721   6.470   1.131
 8177WAT  HW1  32706   5.778   6.413   1.081
 8177WAT  HW2  32707   5.633   6.453   1.096
 8177WAT  MW   32708   5.717   6.460   1.120
 8178WAT  OW   32709   1.068   5.300   4.816
 8178WAT  HW1  32710   0.990   5.296   4.761
 8178WAT  HW2  32711   1.132   5.244   4.771
 8178WAT  MW   32712   1.066   5.292   4.803
 8179WAT  OW   32713   4.266   6.407   6.576
 8179WAT  HW1  32714   4.293   6.498   6.566
 8179WAT  HW2  32715   4.208   6.407   6.651
 8179WAT  MW   32716   4.262   6.419   6.584
 8180WAT  OW   32717   3.125   2.649   5.035
 8180WAT  HW1  32718   3.093   2.617   5.119
 8180WAT  HW2  32719   3.181   2.578   5.002
 8180WAT  MW   32720   3.128   2.635   5.042
 8181WAT  OW   32721   1.908   3.512   1.212
 8181WAT  HW1  32722   1.904   3.503   1.307
 8181WAT  HW2  32723   2.001   3.511   1.191
 8181WAT  MW   32724   1.920   3.511   1.222
 8182WAT  OW   32725   2.472   5.837   1.924
 8182WAT  HW1  32726   2.521   5.838   2.007
 8182WAT  HW2  32727   2.535   5.866   1.859
 8182WAT  MW   32728   2.487   5.841   1.926
 8183WAT  OW   32729   5.887   4.307   5.200
 8183WAT  HW1  32730   5.800   4.273   5.180
 8183WAT  HW2  32731   5.920   4.250   5.269
 8183WAT  MW   32732   5.880   4.295   5.206
 8184WAT  OW   32733   5.054   4.532   3.323
 8184WAT  HW1  32734   5.001   4.609   3.305
 8184WAT  HW2  32735   5.118   4.528   3.252
 8184WAT  MW   32736   5.055   4.542   3.311
 8185WAT  OW   32737   6.035   5.849   3.021
 8185WAT  HW1  32738   6.011   5.940   3.009
 8185WAT  HW2  32739   5.969   5.813   3.080
 8185WAT  MW   32740   6.023   5.856   3.027
 8186WAT  OW   32741   1.371   3.514   0.759
 8186WAT  HW1  32742   1.452   3.485   0.801
 8186WAT  HW2  32743   1.351   3.597   0.801
 8186WAT  MW   32744   1.379   3.521   0.770
 8187WAT  OW   32745   3.941   3.408   0.982
 8187WAT  HW1  32746   3.852   3.374   0.981
 8187WAT  HW2  32747   3.932   3.498   0.952
 8187WAT  MW   32748   3.928   3.415   0.978
 8188WAT  OW   32749   2.596   2.940   0.081
 8188WAT  HW1  32750   2.671   2.891   0.048
 8188WAT  HW2  32751   2.604   2.935   0.176
 8188WAT  MW   32752   2.607   2.933   0.089
 8189WAT  OW   32753   0.497   6.139   5.148
 8189WAT  HW1  32754   0.563   6.198   5.185
 8189WAT  HW2  32755   0.424   6.197   5.125
 8189WAT  MW   32756   0.496   6.155   5.150
 8190WAT  OW   32757   2.876   4.946   6.674
 8190WAT  HW1  32758   2.957   4.899   6.653
 8190WAT  HW2  32759   2.858   5.000   6.597
 8190WAT  MW   32760   2.885   4.947   6.661
 8191WAT  OW   32761   6.644   2.050   2.456
 8191WAT  HW1  32762   6.594   1.973   2.427
 8191WAT  HW2  32763   6.649   2.106   2.378
 8191WAT  MW   32764   6.638   2.048   2.442
 8192WAT  OW   32765   3.271   2.933   6.210
 8192WAT  HW1  32766   3.329   2.997   6.169
 8192WAT  HW2  32767   3.323   2.897   6.282
 8192WAT  MW   32768   3.285   2.937   6.214
 8193WAT  OW   32769   4.907   4.135   6.373
 8193WAT  HW1  32770   4.859   4.134   6.290
 8193WAT  HW2  32771   4.873   4.060   6.421
 8193WAT  MW   32772   4.896   4.125   6.368
 8194WAT  OW   32773   3.348   1.911   2.599
 8194WAT  HW1  32774   3.282   1.945   2.539
 8194WAT  HW2  32775   3.422   1.972   2.591
 8194WAT  MW   32776   3.349   1.924   2.590
 8195WAT  OW   32777   1.080   3.407   3.999
 8195WAT  HW1  32778   1.056   3.477   3.939
 8195WAT  HW2  32779   1.157   3.440   4.045
 8195WAT  MW   32780   1.087   3.421   3.997
 8196WAT  OW   32781   1.816   6.485   5.737
 8196WAT  HW1  32782   1.745   6.451   5.683
 8196WAT  HW2  32783   1.860   6.407   5.771
 8196WAT  MW   32784   1.813   6.470   5.734
 8197WAT  OW   32785   1.155   5.948   6.032
 8197WAT  HW1  32786   1.234   5.927   6.081
 8197WAT  HW2  32787   1.186   6.006   5.962
 8197WAT  MW   32788   1.170   5.952   6.029
 8198WAT  OW   32789   3.590   2.233   4.446
 8198WAT  HW1  32790   3.681   2.256   4.424
 8198WAT  HW2  32791   3.574   2.152   4.398
 8198WAT  MW   32792   3.600   2.226   4.437
 8199WAT  OW   32793   5.266   2.075   4.040
 8199WAT  HW1  32794   5.351   2.107   4.072
 8199WAT  HW2  32795   5.234   2.018   4.110
 8199WAT  MW   32796   5.273   2.072   4.054
 8200WAT  OW   32797   5.838   1.865   4.538
 8200WAT  HW1  32798   5.919   1.904   4.504
 8200WAT  HW2  32799   5.797   1.826   4.462
 8200WAT  MW   32800   5.844   1.865   4.524
 8201WAT  OW   32801   6.409   5.631   0.635
 8201WAT  HW1  32802   6.435   5.722   0.620
 8201WAT  HW2  32803   6.436   5.612   0.724
 8201WAT  MW   32804   6.416   5.640   0.645
 8202WAT  OW   32805   6.125   0.224   0.463
 8202WAT  HW1  32806   6.055   0.191   0.407
 8202WAT  HW2  32807   6.203   0.177   0.434
 8202WAT  MW   32808   6.126   0.213   0.452
 8203WAT  OW   32809   0.192   3.905   0.222
 8203WAT  HW1  32810   0.129   3.969   0.189
 8203WAT  HW2  32811   0.170   3.824   0.176
 8203WAT  MW   32812   0.181   3.903   0.211
 8204WAT  OW   32813   4.741   4.184   1.870
 8204WAT  HW1  32814   4.663   4.210   1.919
 8204WAT  HW2  32815   4.762   4.260   1.817
 8204WAT  MW   32816   4.733   4.197   1.870
 8205WAT  OW   32817   5.463   0.845   0.138
 8205WAT  HW1  32818   5.388   0.903   0.149
 8205WAT  HW2  32819   5.462   0.788   0.215
 8205WAT  MW   32820   5.453   0.845   0.149
 8206WAT  OW   32821   2.712   2.106   4.206
 8206WAT  HW1  32822   2.778   2.152   4.257
 8206WAT  HW2  32823   2.631   2.155   4.222
 8206WAT  MW   32824   2.710   2.118   4.215
 8207WAT  OW   32825   5.814   5.778   0.964
 8207WAT  HW1  32826   5.734   5.761   1.015
 8207WAT  HW2  32827   5.824   5.873   0.966
 8207WAT  MW   32828   5.805   5.788   0.971
 8208WAT  OW   32829   0.395   1.141   1.651
 8208WAT  HW1  32830   0.374   1.187   1.732
 8208WAT  HW2  32831   0.326   1.164   1.590
 8208WAT  MW   32832   0.383   1.150   1.654
 8209WAT  OW   32833   3.779   4.656   6.433
 8209WAT  HW1  32834   3.785   4.741   6.475
 8209WAT  HW2  32835   3.725   4.670   6.355
 8209WAT  MW   32836   3.772   4.669   6.428
 8210WAT  OW   32837   1.482   5.611   5.289
 8210WAT  HW1  32838   1.475   5.517   5.275
 8210WAT  HW2  32839   1.521   5.619   5.376
 8210WAT  MW   32840   1.486   5.600   5.299
 8211WAT  OW   32841   0.011   4.186   0.359
 8211WAT  HW1  32842   0.042   4.160   0.445
 8211WAT  HW2  32843  -0.036   4.109   0.326
 8211WAT  MW   32844   0.009   4.172   0.366
 8212WAT  OW   32845   3.522   4.369   6.165
 8212WAT  HW1  32846   3.432   4.393   6.142
 8212WAT  HW2  32847   3.521   4.365   6.261
 8212WAT  MW   32848   3.510   4.372   6.175
 8213WAT  OW   32849   2.051   4.872   0.649
 8213WAT  HW1  32850   2.087   4.950   0.608
 8213WAT  HW2  32851   2.006   4.904   0.727
 8213WAT  MW   32852   2.050   4.886   0.654
 8214WAT  OW   32853   4.445   5.247   3.556
 8214WAT  HW1  32854   4.459   5.317   3.492
 8214WAT  HW2  32855   4.367   5.202   3.526
 8214WAT  MW   32856   4.437   5.250   3.544
 8215WAT  OW   32857   2.557   4.639   0.970
 8215WAT  HW1  32858   2.576   4.545   0.963
 8215WAT  HW2  32859   2.502   4.658   0.894
 8215WAT  MW   32860   2.552   4.629   0.959
 8216WAT  OW   32861   3.998   3.259   3.935
 8216WAT  HW1  32862   4.004   3.351   3.960
 8216WAT  HW2  32863   4.040   3.212   4.007
 8216WAT  MW   32864   4.005   3.265   3.948
 8217WAT  OW   32865   1.461   5.127   2.414
 8217WAT  HW1  32866   1.439   5.155   2.503
 8217WAT  HW2  32867   1.477   5.209   2.367
 8217WAT  MW   32868   1.460   5.142   2.419
 8218WAT  OW   32869   2.285   5.149   4.597
 8218WAT  HW1  32870   2.293   5.067   4.646
 8218WAT  HW2  32871   2.199   5.145   4.556
 8218WAT  MW   32872   2.275   5.138   4.598
 8219WAT  OW   32873   2.787   2.992   4.196
 8219WAT  HW1  32874   2.839   3.050   4.140
 8219WAT  HW2  32875   2.698   3.025   4.190
 8219WAT  MW   32876   2.782   3.004   4.188
 8220WAT  OW   32877   5.603   1.365   3.613
 8220WAT  HW1  32878   5.514   1.336   3.631
 8220WAT  HW2  32879   5.659   1.296   3.648
 8220WAT  MW   32880   5.599   1.352   3.620
 8221WAT  OW   32881   0.630   1.696   2.861
 8221WAT  HW1  32882   0.653   1.643   2.937
 8221WAT  HW2  32883   0.606   1.781   2.898
 8221WAT  MW   32884   0.630   1.700   2.876
 8222WAT  OW   32885   6.270   1.288   3.166
 8222WAT  HW1  32886   6.195   1.279   3.107
 8222WAT  HW2  32887   6.346   1.272   3.111
 8222WAT  MW   32888   6.270   1.285   3.151
 8223WAT  OW   32889   3.996   5.096   1.406
 8223WAT  HW1  32890   4.001   5.048   1.324
 8223WAT  HW2  32891   4.048   5.175   1.392
 8223WAT  MW   32892   4.004   5.100   1.394
 8224WAT  OW   32893   2.792   5.500   6.092
 8224WAT  HW1  32894   2.840   5.449   6.158
 8224WAT  HW2  32895   2.833   5.586   6.094
 8224WAT  MW   32896   2.804   5.504   6.101
 8225WAT  OW   32897   1.083   2.732   0.252
 8225WAT  HW1  32898   1.170   2.695   0.239
 8225WAT  HW2  32899   1.025   2.656   0.259
 8225WAT  MW   32900   1.087   2.717   0.251
 8226WAT  OW   32901   2.806   0.321   2.440
 8226WAT  HW1  32902   2.817   0.315   2.345
 8226WAT  HW2  32903   2.766   0.406   2.455
 8226WAT  MW   32904   2.803   0.332   2.429
 8227WAT  OW   32905   6.338   4.705   0.120
 8227WAT  HW1  32906   6.292   4.789   0.131
 8227WAT  HW2  32907   6.273   4.647   0.081
 8227WAT  MW   32908   6.324   4.708   0.117
 8228WAT  OW   32909   4.735   6.342   3.384
 8228WAT  HW1  32910   4.742   6.263   3.331
 8228WAT  HW2  32911   4.749   6.312   3.474
 8228WAT  MW   32912   4.738   6.328   3.389
 8229WAT  OW   32913   1.735   1.867   2.287
 8229WAT  HW1  32914   1.791   1.789   2.290
 8229WAT  HW2  32915   1.653   1.836   2.249
 8229WAT  MW   32916   1.732   1.852   2.282
 8230WAT  OW   32917   3.240   3.411   3.720
 8230WAT  HW1  32918   3.159   3.361   3.713
 8230WAT  HW2  32919   3.239   3.446   3.809
 8230WAT  MW   32920   3.229   3.409   3.731
 8231WAT  OW   32921   1.961   0.402   1.487
 8231WAT  HW1  32922   1.953   0.441   1.573
 8231WAT  HW2  32923   2.005   0.319   1.502
 8231WAT  MW   32924   1.966   0.396   1.500
 8232WAT  OW   32925   1.151   1.290   2.869
 8232WAT  HW1  32926   1.129   1.375   2.830
 8232WAT  HW2  32927   1.066   1.253   2.894
 8232WAT  MW   32928   1.137   1.297   2.867
 8233WAT  OW   32929   5.633   4.128   6.517
 8233WAT  HW1  32930   5.557   4.127   6.576
 8233WAT  HW2  32931   5.687   4.055   6.547
 8233WAT  MW   32932   5.630   4.118   6.529
 8234WAT  OW   32933   0.528   4.662   0.106
 8234WAT  HW1  32934   0.517   4.712   0.186
 8234WAT  HW2  32935   0.487   4.577   0.125
 8234WAT  MW   32936   0.521   4.657   0.119
 8235WAT  OW   32937   3.452   0.595   2.564
 8235WAT  HW1  32938   3.407   0.580   2.481
 8235WAT  HW2  32939   3.410   0.537   2.627
 8235WAT  MW   32940   3.441   0.586   2.562
 8236WAT  OW   32941   2.480   3.984   4.313
 8236WAT  HW1  32942   2.568   4.006   4.284
 8236WAT  HW2  32943   2.448   3.921   4.249
 8236WAT  MW   32944   2.487   3.979   4.301
 8237WAT  OW   32945   5.570   5.316   0.380
 8237WAT  HW1  32946   5.596   5.399   0.339
 8237WAT  HW2  32947   5.651   5.281   0.416
 8237WAT  MW   32948   5.584   5.323   0.380
 8238WAT  OW   32949   4.438   2.134   3.946
 8238WAT  HW1  32950   4.527   2.166   3.965
 8238WAT  HW2  32951   4.452   2.050   3.903
 8238WAT  MW   32952   4.452   2.127   3.943
 8239WAT  OW   32953   2.365   0.077   1.951
 8239WAT  HW1  32954   2.438   0.088   2.012
 8239WAT  HW2  32955   2.300   0.142   1.980
 8239WAT  MW   32956   2.366   0.087   1.963
 8240WAT  OW   32957   5.600   5.842   2.926
 8240WAT  HW1  32958   5.681   5.790   2.928
 8240WAT  HW2  32959   5.567   5.832   2.837
 8240WAT  MW   32960   5.607   5.834   2.915
 8241WAT  OW   32961   1.247   5.097   4.720
 8241WAT  HW1  32962   1.233   5.048   4.639
 8241WAT  HW2  32963   1.341   5.117   4.720
 8241WAT  MW   32964   1.258   5.093   4.709
 8242WAT  OW   32965   1.897   1.976   1.333
 8242WAT  HW1  32966   1.816   2.021   1.309
 8242WAT  HW2  32967   1.940   2.034   1.396
 8242WAT  MW   32968   1.892   1.989   1.338
 8243WAT  OW   32969   2.930   4.860   1.560
 8243WAT  HW1  32970   2.853   4.882   1.611
 8243WAT  HW2  32971   2.907   4.780   1.514
 8243WAT  MW   32972   2.917   4.852   1.561
 8244WAT  OW   32973   0.316   0.901   0.455
 8244WAT  HW1  32974   0.301   0.931   0.545
 8244WAT  HW2  32975   0.234   0.861   0.428
 8244WAT  MW   32976   0.303   0.900   0.464
 8245WAT  OW   32977   6.160   4.960   1.697
 8245WAT  HW1  32978   6.236   4.915   1.659
 8245WAT  HW2  32979   6.169   4.949   1.791
 8245WAT  MW   32980   6.171   4.953   1.704
 8246WAT  OW   32981   1.772   6.329   3.893
 8246WAT  HW1  32982   1.765   6.421   3.918
 8246WAT  HW2  32983   1.812   6.330   3.806
 8246WAT  MW   32984   1.776   6.341   3.885
 8247WAT  OW   32985   3.329   3.137   1.973
 8247WAT  HW1  32986   3.383   3.207   2.011
 8247WAT  HW2  32987   3.316   3.075   2.045
 8247WAT  MW   32988   3.335   3.138   1.988
 8248WAT  OW   32989   1.618   5.744   1.385
 8248WAT  HW1  32990   1.661   5.672   1.338
 8248WAT  HW2  32991   1.678   5.763   1.457
 8248WAT  MW   32992   1.632   5.737   1.388
 8249WAT  OW   32993   5.802   3.348   5.186
 8249WAT  HW1  32994   5.888   3.312   5.166
 8249WAT  HW2  32995   5.756   3.348   5.102
 8249WAT  MW   32996   5.807   3.343   5.173
 8250WAT  OW   32997   0.015   3.267   6.429
 8250WAT  HW1  32998   0.009   3.171   6.428
 8250WAT  HW2  32999  -0.040   3.294   6.502
 8250WAT  MW   33000   0.007   3.258   6.438
 8251WAT  OW   33001   4.857   1.150   1.772
 8251WAT  HW1  33002   4.881   1.203   1.848
 8251WAT  HW2  33003   4.841   1.063   1.809
 8251WAT  MW   33004   4.858   1.145   1.787
 8252WAT  OW   33005   0.999   5.752   5.682
 8252WAT  HW1  33006   0.956   5.726   5.764
 8252WAT  HW2  33007   1.038   5.671   5.649
 8252WAT  MW   33008   0.998   5.738   5.689
 8253WAT  OW   33009   2.127   2.016   1.148
 8253WAT  HW1  33010   2.067   1.957   1.194
 8253WAT  HW2  33011   2.075   2.094   1.130
 8253WAT  MW   33012   2.112   2.019   1.152
 8254WAT  OW   33013   2.166   0.109   3.208
 8254WAT  HW1  33014   2.100   0.178   3.204
 8254WAT  HW2  33015   2.237   0.147   3.258
 8254WAT  MW   33016   2.167   0.123   3.214
 8255WAT  OW   33017   0.982   1.843   1.703
 8255WAT  HW1  33018   0.934   1.836   1.785
 8255WAT  HW2  33019   0.948   1.923   1.662
 8255WAT  MW   33020   0.972   1.853   1.708
 8256WAT  OW   33021   3.373   1.864   4.517
 8256WAT  HW1  33022   3.317   1.930   4.557
 8256WAT  HW2  33023   3.458   1.875   4.560
 8256WAT  MW   33024   3.377   1.874   4.528
 8257WAT  OW   33025   1.281   2.747   4.258
 8257WAT  HW1  33026   1.316   2.685   4.322
 8257WAT  HW2  33027   1.351   2.810   4.244
 8257WAT  MW   33028   1.295   2.747   4.265
 8258WAT  OW   33029   1.891   2.511   3.509
 8258WAT  HW1  33030   1.934   2.426   3.510
 8258WAT  HW2  33031   1.855   2.521   3.597
 8258WAT  MW   33032   1.892   2.501   3.521
 8259WAT  OW   33033   4.742   1.396   6.222
 8259WAT  HW1  33034   4.650   1.374   6.204
 8259WAT  HW2  33035   4.792   1.341   6.162
 8259WAT  MW   33036   4.736   1.386   6.212
 8260WAT  OW   33037   5.884   0.920   4.526
 8260WAT  HW1  33038   5.885   0.829   4.556
 8260WAT  HW2  33039   5.974   0.938   4.501
 8260WAT  MW   33040   5.896   0.910   4.527
 8261WAT  OW   33041   4.674   6.002   1.359
 8261WAT  HW1  33042   4.766   6.027   1.348
 8261WAT  HW2  33043   4.678   5.911   1.391
 8261WAT  MW   33044   4.687   5.993   1.362
 8262WAT  OW   33045   0.394   2.421   2.432
 8262WAT  HW1  33046   0.374   2.514   2.439
 8262WAT  HW2  33047   0.334   2.389   2.364
 8262WAT  MW   33048   0.383   2.429   2.424
 8263WAT  OW   33049   3.073   0.277   6.687
 8263WAT  HW1  33050   3.015   0.211   6.724
 8263WAT  HW2  33051   3.063   0.266   6.592
 8263WAT  MW   33052   3.064   0.267   6.679
 8264WAT  OW   33053   3.859   1.065   2.139
 8264WAT  HW1  33054   3.932   1.017   2.101
 8264WAT  HW2  33055   3.855   1.146   2.088
 8264WAT  MW   33056   3.868   1.070   2.127
 8265WAT  OW   33057   1.018   3.230   5.784
 8265WAT  HW1  33058   0.936   3.211   5.738
 8265WAT  HW2  33059   1.012   3.323   5.805
 8265WAT  MW   33060   1.006   3.240   5.781
 8266WAT  OW   33061   1.004   6.531   3.311
 8266WAT  HW1  33062   1.043   6.508   3.395
 8266WAT  HW2  33063   0.965   6.617   3.324
 8266WAT  MW   33064   1.004   6.540   3.324
 8267WAT  OW   33065   1.684   2.187   5.026
 8267WAT  HW1  33066   1.719   2.098   5.022
 8267WAT  HW2  33067   1.743   2.239   4.973
 8267WAT  MW   33068   1.696   2.182   5.019
 8268WAT  OW   33069   2.385   5.296   2.768
 8268WAT  HW1  33070   2.292   5.276   2.768
 8268WAT  HW2  33071   2.402   5.330   2.680
 8268WAT  MW   33072   2.375   5.298   2.756
 8269WAT  OW   33073   3.044   1.088   2.633
 8269WAT  HW1  33074   2.951   1.109   2.623
 8269WAT  HW2  33075   3.056   1.082   2.728
 8269WAT  MW   33076   3.033   1.090   2.644
 8270WAT  OW   33077   6.482   1.102   5.422
 8270WAT  HW1  33078   6.560   1.125   5.473
 8270WAT  HW2  33079   6.427   1.053   5.483
 8270WAT  MW   33080   6.485   1.099   5.437
 8271WAT  OW   33081   6.014   0.717   6.566
 8271WAT  HW1  33082   5.922   0.722   6.589
 8271WAT  HW2  33083   6.016   0.660   6.488
 8271WAT  MW   33084   6.002   0.710   6.558
 8272WAT  OW   33085   4.643   3.906   5.580
 8272WAT  HW1  33086   4.732   3.938   5.594
 8272WAT  HW2  33087   4.591   3.952   5.646
 8272WAT  MW   33088   4.648   3.916   5.591
 8273WAT  OW   33089   0.817   0.987   1.299
 8273WAT  HW1  33090   0.742   0.991   1.359
 8273WAT  HW2  33091   0.779   0.960   1.216
 8273WAT  MW   33092   0.802   0.984   1.296
 8274WAT  OW   33093   3.428   4.038   4.369
 8274WAT  HW1  33094   3.439   4.132   4.387
 8274WAT  HW2  33095   3.513   4.000   4.393
 8274WAT  MW   33096   3.441   4.046   4.374
 8275WAT  OW   33097   1.080   6.293   1.309
 8275WAT  HW1  33098   1.127   6.373   1.331
 8275WAT  HW2  33099   1.041   6.311   1.224
 8275WAT  MW   33100   1.081   6.306   1.301
 8276WAT  OW   33101   2.806   5.486   5.796
 8276WAT  HW1  33102   2.716   5.510   5.776
 8276WAT  HW2  33103   2.814   5.497   5.890
 8276WAT  MW   33104   2.795   5.491   5.805
 8277WAT  OW   33105   4.726   2.023   4.736
 8277WAT  HW1  33106   4.687   2.034   4.650
 8277WAT  HW2  33107   4.654   2.036   4.797
 8277WAT  MW   33108   4.712   2.026   4.733
 8278WAT  OW   33109   6.084   3.560   5.652
 8278WAT  HW1  33110   6.163   3.578   5.702
 8278WAT  HW2  33111   6.023   3.629   5.679
 8278WAT  MW   33112   6.086   3.572   5.662
 8279WAT  OW   33113   1.902   5.363   2.632
 8279WAT  HW1  33114   1.931   5.454   2.635
 8279WAT  HW2  33115   1.883   5.347   2.539
 8279WAT  MW   33116   1.903   5.373   2.620
 8280WAT  OW   33117   4.722   1.917   1.851
 8280WAT  HW1  33118   4.630   1.944   1.847
 8280WAT  HW2  33119   4.758   1.940   1.765
 8280WAT  MW   33120   4.714   1.923   1.839
 8281WAT  OW   33121   3.834   0.474   0.194
 8281WAT  HW1  33122   3.864   0.562   0.217
 8281WAT  HW2  33123   3.871   0.418   0.263
 8281WAT  MW   33124   3.843   0.478   0.206
 8282WAT  OW   33125   2.527   5.733   5.431
 8282WAT  HW1  33126   2.553   5.641   5.431
 8282WAT  HW2  33127   2.432   5.731   5.434
 8282WAT  MW   33128   2.518   5.721   5.431
 8283WAT  OW   33129   2.913   1.417   4.213
 8283WAT  HW1  33130   2.996   1.413   4.260
 8283WAT  HW2  33131   2.885   1.325   4.207
 8283WAT  MW   33132   2.920   1.404   4.218
 8284WAT  OW   33133   3.132   2.019   6.479
 8284WAT  HW1  33134   3.123   1.977   6.564
 8284WAT  HW2  33135   3.081   2.100   6.487
 8284WAT  MW   33136   3.124   2.024   6.491
 8285WAT  OW   33137   3.314   4.017   1.632
 8285WAT  HW1  33138   3.331   3.973   1.715
 8285WAT  HW2  33139   3.219   4.012   1.622
 8285WAT  MW   33140   3.303   4.010   1.641
 8286WAT  OW   33141   0.712   6.211   6.337
 8286WAT  HW1  33142   0.637   6.152   6.346
 8286WAT  HW2  33143   0.678   6.284   6.284
 8286WAT  MW   33144   0.698   6.213   6.331
 8287WAT  OW   33145   0.175   3.769   4.474
 8287WAT  HW1  33146   0.246   3.771   4.537
 8287WAT  HW2  33147   0.096   3.758   4.527
 8287WAT  MW   33148   0.174   3.768   4.489
 8288WAT  OW   33149   2.472   3.529   1.629
 8288WAT  HW1  33150   2.528   3.548   1.554
 8288WAT  HW2  33151   2.489   3.437   1.649
 8288WAT  MW   33152   2.482   3.520   1.622
 8289WAT  OW   33153   0.821   1.856   1.945
 8289WAT  HW1  33154   0.803   1.782   2.004
 8289WAT  HW2  33155   0.858   1.923   2.002
 8289WAT  MW   33156   0.824   1.855   1.961
 8290WAT  OW   33157   5.364   3.370   6.601
 8290WAT  HW1  33158   5.443   3.349   6.650
 8290WAT  HW2  33159   5.372   3.321   6.519
 8290WAT  MW   33160   5.375   3.361   6.596
 8291WAT  OW   33161   4.752   1.316   2.188
 8291WAT  HW1  33162   4.761   1.250   2.257
 8291WAT  HW2  33163   4.772   1.399   2.232
 8291WAT  MW   33164   4.756   1.319   2.203
 8292WAT  OW   33165   5.085   5.356   1.558
 8292WAT  HW1  33166   5.040   5.275   1.580
 8292WAT  HW2  33167   5.147   5.369   1.629
 8292WAT  MW   33168   5.087   5.347   1.570
 8293WAT  OW   33169   0.586   0.424   5.364
 8293WAT  HW1  33170   0.592   0.488   5.293
 8293WAT  HW2  33171   0.665   0.372   5.355
 8293WAT  MW   33172   0.597   0.426   5.353
 8294WAT  OW   33173   4.170   4.827   0.462
 8294WAT  HW1  33174   4.099   4.822   0.398
 8294WAT  HW2  33175   4.241   4.871   0.416
 8294WAT  MW   33176   4.170   4.832   0.448
 8295WAT  OW   33177   4.946   5.407   1.904
 8295WAT  HW1  33178   5.041   5.412   1.891
 8295WAT  HW2  33179   4.911   5.408   1.815
 8295WAT  MW   33180   4.954   5.408   1.891
 8296WAT  OW   33181   1.415   0.635   0.865
 8296WAT  HW1  33182   1.507   0.657   0.879
 8296WAT  HW2  33183   1.369   0.677   0.938
 8296WAT  MW   33184   1.421   0.644   0.876
 8297WAT  OW   33185   6.510   2.754   2.344
 8297WAT  HW1  33186   6.507   2.694   2.269
 8297WAT  HW2  33187   6.426   2.740   2.388
 8297WAT  MW   33188   6.498   2.744   2.340
 8298WAT  OW   33189   2.610   4.858   3.971
 8298WAT  HW1  33190   2.624   4.923   3.902
 8298WAT  HW2  33191   2.566   4.785   3.927
 8298WAT  MW   33192   2.606   4.857   3.956
 8299WAT  OW   33193   6.047   4.075   3.463
 8299WAT  HW1  33194   6.045   3.982   3.438
 8299WAT  HW2  33195   6.091   4.076   3.547
 8299WAT  MW   33196   6.052   4.063   3.470
 8300WAT  OW   33197   2.134   2.792   2.230
 8300WAT  HW1  33198   2.143   2.835   2.315
 8300WAT  HW2  33199   2.223   2.764   2.209
 8300WAT  MW   33200   2.147   2.794   2.238
 8301WAT  OW   33201   1.485   3.761   1.106
 8301WAT  HW1  33202   1.505   3.679   1.152
 8301WAT  HW2  33203   1.410   3.739   1.051
 8301WAT  MW   33204   1.477   3.747   1.105
 8302WAT  OW   33205   3.840   4.487   5.775
 8302WAT  HW1  33206   3.744   4.488   5.780
 8302WAT  HW2  33207   3.865   4.579   5.779
 8302WAT  MW   33208   3.831   4.499   5.776
 8303WAT  OW   33209   5.513   6.310   4.818
 8303WAT  HW1  33210   5.514   6.406   4.812
 8303WAT  HW2  33211   5.597   6.288   4.859
 8303WAT  MW   33212   5.525   6.320   4.822
 8304WAT  OW   33213   2.190   5.983   3.358
 8304WAT  HW1  33214   2.264   6.000   3.299
 8304WAT  HW2  33215   2.229   5.936   3.432
 8304WAT  MW   33216   2.205   5.979   3.360
 8305WAT  OW   33217   0.922   1.288   0.714
 8305WAT  HW1  33218   0.959   1.208   0.677
 8305WAT  HW2  33219   0.986   1.356   0.693
 8305WAT  MW   33220   0.935   1.286   0.706
 8306WAT  OW   33221   2.703   3.563   4.696
 8306WAT  HW1  33222   2.650   3.484   4.704
 8306WAT  HW2  33223   2.772   3.539   4.633
 8306WAT  MW   33224   2.705   3.549   4.689
 8307WAT  OW   33225   2.368   1.512   2.721
 8307WAT  HW1  33226   2.285   1.547   2.689
 8307WAT  HW2  33227   2.432   1.534   2.653
 8307WAT  MW   33228   2.366   1.520   2.708
 8308WAT  OW   33229   2.956   5.094   2.080
 8308WAT  HW1  33230   3.041   5.097   2.122
 8308WAT  HW2  33231   2.941   5.001   2.062
 8308WAT  MW   33232   2.965   5.082   2.083
 8309WAT  OW   33233   0.312   3.238   0.912
 8309WAT  HW1  33234   0.398   3.202   0.891
 8309WAT  HW2  33235   0.315   3.328   0.879
 8309WAT  MW   33236   0.324   3.245   0.905
 8310WAT  OW   33237   0.707   4.838   5.090
 8310WAT  HW1  33238   0.655   4.897   5.144
 8310WAT  HW2  33239   0.762   4.790   5.153
 8310WAT  MW   33240   0.708   4.839   5.106
 8311WAT  OW   33241   0.852   4.886   2.469
 8311WAT  HW1  33242   0.834   4.802   2.510
 8311WAT  HW2  33243   0.948   4.892   2.468
 8311WAT  MW   33244   0.862   4.876   2.474
 8312WAT  OW   33245   4.648   1.728   4.166
 8312WAT  HW1  33246   4.596   1.733   4.247
 8312WAT  HW2  33247   4.700   1.809   4.167
 8312WAT  MW   33248   4.648   1.740   4.177
 8313WAT  OW   33249   2.915   0.895   1.119
 8313WAT  HW1  33250   2.980   0.826   1.104
 8313WAT  HW2  33251   2.942   0.966   1.061
 8313WAT  MW   33252   2.927   0.895   1.110
 8314WAT  OW   33253   0.349   2.400   1.231
 8314WAT  HW1  33254   0.415   2.467   1.245
 8314WAT  HW2  33255   0.373   2.330   1.291
 8314WAT  MW   33256   0.361   2.399   1.241
 8315WAT  OW   33257   0.244   0.199   5.850
 8315WAT  HW1  33258   0.327   0.190   5.802
 8315WAT  HW2  33259   0.190   0.255   5.793
 8315WAT  MW   33260   0.248   0.206   5.836
 8316WAT  OW   33261   4.196   0.133   3.248
 8316WAT  HW1  33262   4.102   0.139   3.234
 8316WAT  HW2  33263   4.226   0.224   3.253
 8316WAT  MW   33264   4.188   0.146   3.247
 8317WAT  OW   33265   2.325   6.138   0.401
 8317WAT  HW1  33266   2.292   6.222   0.433
 8317WAT  HW2  33267   2.247   6.085   0.386
 8317WAT  MW   33268   2.311   6.142   0.403
 8318WAT  OW   33269   2.671   0.556   2.475
 8318WAT  HW1  33270   2.678   0.648   2.450
 8318WAT  HW2  33271   2.583   0.531   2.448
 8318WAT  MW   33272   2.660   0.565   2.468
 8319WAT  OW   33273   3.867   5.174   5.859
 8319WAT  HW1  33274   3.821   5.238   5.914
 8319WAT  HW2  33275   3.808   5.099   5.855
 8319WAT  MW   33276   3.853   5.172   5.866
 8320WAT  OW   33277   5.438   0.418   2.749
 8320WAT  HW1  33278   5.513   0.435   2.692
 8320WAT  HW2  33279   5.401   0.505   2.766
 8320WAT  MW   33280   5.443   0.432   2.744
 8321WAT  OW   33281   3.894   4.479   6.652
 8321WAT  HW1  33282   3.875   4.516   6.566
 8321WAT  HW2  33283   3.899   4.555   6.710
 8321WAT  MW   33284   3.892   4.494   6.649
 8322WAT  OW   33285   1.582   4.156   4.077
 8322WAT  HW1  33286   1.607   4.240   4.114
 8322WAT  HW2  33287   1.500   4.174   4.030
 8322WAT  MW   33288   1.574   4.169   4.076
 8323WAT  OW   33289   4.107   1.402   3.140
 8323WAT  HW1  33290   4.116   1.453   3.059
 8323WAT  HW2  33291   4.023   1.431   3.177
 8323WAT  MW   33292   4.097   1.412   3.134
 8324WAT  OW   33293   0.632   5.066   2.396
 8324WAT  HW1  33294   0.654   5.146   2.443
 8324WAT  HW2  33295   0.698   5.003   2.422
 8324WAT  MW   33296   0.643   5.068   2.405
 8325WAT  OW   33297   1.061   4.228   1.361
 8325WAT  HW1  33298   1.061   4.153   1.301
 8325WAT  HW2  33299   0.978   4.272   1.344
 8325WAT  MW   33300   1.050   4.224   1.350
 8326WAT  OW   33301   1.295   1.945   3.693
 8326WAT  HW1  33302   1.329   1.905   3.772
 8326WAT  HW2  33303   1.281   2.037   3.716
 8326WAT  MW   33304   1.298   1.952   3.706
 8327WAT  OW   33305   3.162   1.044   0.305
 8327WAT  HW1  33306   3.131   1.046   0.214
 8327WAT  HW2  33307   3.244   0.995   0.301
 8327WAT  MW   33308   3.169   1.038   0.292
 8328WAT  OW   33309   5.176   4.428   6.137
 8328WAT  HW1  33310   5.164   4.378   6.218
 8328WAT  HW2  33311   5.267   4.412   6.112
 8328WAT  MW   33312   5.187   4.420   6.145
 8329WAT  OW   33313   0.044   0.277   1.945
 8329WAT  HW1  33314  -0.020   0.259   1.876
 8329WAT  HW2  33315   0.073   0.367   1.928
 8329WAT  MW   33316   0.040   0.287   1.933
 8330WAT  OW   33317   2.422   6.584   2.672
 8330WAT  HW1  33318   2.466   6.665   2.698
 8330WAT  HW2  33319   2.482   6.544   2.609
 8330WAT  MW   33320   2.436   6.590   2.667
 8331WAT  OW   33321   2.895   0.467   0.634
 8331WAT  HW1  33322   2.964   0.427   0.687
 8331WAT  HW2  33323   2.814   0.444   0.678
 8331WAT  MW   33324   2.893   0.459   0.646
 8332WAT  OW   33325   2.795   0.434   2.872
 8332WAT  HW1  33326   2.726   0.473   2.820
 8332WAT  HW2  33327   2.876   0.470   2.835
 8332WAT  MW   33328   2.797   0.444   2.860
 8333WAT  OW   33329   0.447   4.441   3.876
 8333WAT  HW1  33330   0.532   4.484   3.868
 8333WAT  HW2  33331   0.436   4.393   3.794
 8333WAT  MW   33332   0.457   4.440   3.864
 8334WAT  OW   33333   4.512   4.010   6.248
 8334WAT  HW1  33334   4.422   4.005   6.215
 8334WAT  HW2  33335   4.502   4.032   6.341
 8334WAT  MW   33336   4.499   4.012   6.256
 8335WAT  OW   33337   4.658   0.526   2.906
 8335WAT  HW1  33338   4.699   0.573   2.979
 8335WAT  HW2  33339   4.596   0.467   2.948
 8335WAT  MW   33340   4.655   0.524   2.921
 8336WAT  OW   33341   0.500   0.950   2.292
 8336WAT  HW1  33342   0.473   1.005   2.219
 8336WAT  HW2  33343   0.501   1.009   2.368
 8336WAT  MW   33344   0.497   0.965   2.292
 8337WAT  OW   33345   4.822   5.201   4.529
 8337WAT  HW1  33346   4.851   5.286   4.563
 8337WAT  HW2  33347   4.903   5.154   4.510
 8337WAT  MW   33348   4.837   5.206   4.531
 8338WAT  OW   33349   1.760   2.440   5.483
 8338WAT  HW1  33350   1.790   2.426   5.393
 8338WAT  HW2  33351   1.731   2.353   5.512
 8338WAT  MW   33352   1.760   2.427   5.475
 8339WAT  OW   33353   6.115   6.440   3.171
 8339WAT  HW1  33354   6.132   6.529   3.202
 8339WAT  HW2  33355   6.144   6.441   3.079
 8339WAT  MW   33356   6.121   6.452   3.163
 8340WAT  OW   33357   4.692   2.054   0.467
 8340WAT  HW1  33358   4.743   1.997   0.410
 8340WAT  HW2  33359   4.748   2.067   0.544
 8340WAT  MW   33360   4.706   2.049   0.470
 8341WAT  OW   33361   5.424   5.733   0.680
 8341WAT  HW1  33362   5.490   5.665   0.669
 8341WAT  HW2  33363   5.396   5.754   0.591
 8341WAT  MW   33364   5.429   5.727   0.667
 8342WAT  OW   33365   2.082   6.016   0.383
 8342WAT  HW1  33366   2.116   5.991   0.298
 8342WAT  HW2  33367   2.019   5.947   0.405
 8342WAT  MW   33368   2.078   6.004   0.375
 8343WAT  OW   33369   4.530   5.512   0.715
 8343WAT  HW1  33370   4.525   5.466   0.799
 8343WAT  HW2  33371   4.461   5.473   0.662
 8343WAT  MW   33372   4.521   5.501   0.719
 8344WAT  OW   33373   1.355   5.744   1.424
 8344WAT  HW1  33374   1.331   5.831   1.455
 8344WAT  HW2  33375   1.449   5.750   1.408
 8344WAT  MW   33376   1.364   5.756   1.426
 8345WAT  OW   33377   0.160   0.101   0.215
 8345WAT  HW1  33378   0.164   0.075   0.123
 8345WAT  HW2  33379   0.067   0.122   0.229
 8345WAT  MW   33380   0.148   0.101   0.204
 8346WAT  OW   33381   0.919   3.712   0.258
 8346WAT  HW1  33382   0.975   3.722   0.335
 8346WAT  HW2  33383   0.889   3.800   0.238
 8346WAT  MW   33384   0.922   3.725   0.265
 8347WAT  OW   33385   1.036   2.382   1.840
 8347WAT  HW1  33386   1.079   2.378   1.754
 8347WAT  HW2  33387   0.951   2.421   1.822
 8347WAT  MW   33388   1.031   2.386   1.826
 8348WAT  OW   33389   1.665   6.579   1.322
 8348WAT  HW1  33390   1.717   6.595   1.400
 8348WAT  HW2  33391   1.707   6.630   1.253
 8348WAT  MW   33392   1.677   6.588   1.323
 8349WAT  OW   33393   0.238   5.776   2.031
 8349WAT  HW1  33394   0.211   5.754   2.120
 8349WAT  HW2  33395   0.307   5.714   2.010
 8349WAT  MW   33396   0.243   5.765   2.040
 8350WAT  OW   33397   1.311   2.368   3.634
 8350WAT  HW1  33398   1.387   2.378   3.576
 8350WAT  HW2  33399   1.300   2.455   3.673
 8350WAT  MW   33400   1.320   2.381   3.631
 8351WAT  OW   33401   0.991   3.490   5.032
 8351WAT  HW1  33402   0.973   3.576   4.994
 8351WAT  HW2  33403   0.907   3.461   5.067
 8351WAT  MW   33404   0.978   3.497   5.032
 8352WAT  OW   33405   5.709   2.033   6.423
 8352WAT  HW1  33406   5.726   1.967   6.356
 8352WAT  HW2  33407   5.628   2.004   6.465
 8352WAT  MW   33408   5.701   2.020   6.420
 8353WAT  OW   33409   1.436   0.974   1.735
 8353WAT  HW1  33410   1.495   1.031   1.687
 8353WAT  HW2  33411   1.422   0.899   1.678
 8353WAT  MW   33412   1.442   0.972   1.721
 8354WAT  OW   33413   0.823   5.929   2.062
 8354WAT  HW1  33414   0.742   5.881   2.078
 8354WAT  HW2  33415   0.892   5.872   2.097
 8354WAT  MW   33416   0.822   5.915   2.069
 8355WAT  OW   33417   4.655   5.249   4.947
 8355WAT  HW1  33418   4.604   5.319   4.989
 8355WAT  HW2  33419   4.604   5.170   4.962
 8355WAT  MW   33420   4.641   5.248   4.955
 8356WAT  OW   33421   0.027   5.696   5.906
 8356WAT  HW1  33422   0.040   5.635   5.979
 8356WAT  HW2  33423  -0.030   5.764   5.941
 8356WAT  MW   33424   0.021   5.697   5.920
 8357WAT  OW   33425   4.452   2.983   4.371
 8357WAT  HW1  33426   4.503   3.050   4.325
 8357WAT  HW2  33427   4.493   2.900   4.345
 8357WAT  MW   33428   4.464   2.981   4.361
 8358WAT  OW   33429   6.559   1.281   1.924
 8358WAT  HW1  33430   6.518   1.306   2.007
 8358WAT  HW2  33431   6.639   1.334   1.920
 8358WAT  MW   33432   6.564   1.291   1.935
 8359WAT  OW   33433   4.404   2.687   2.560
 8359WAT  HW1  33434   4.408   2.603   2.515
 8359WAT  HW2  33435   4.427   2.667   2.651
 8359WAT  MW   33436   4.408   2.673   2.566
 8360WAT  OW   33437   4.527   5.884   0.506
 8360WAT  HW1  33438   4.497   5.972   0.483
 8360WAT  HW2  33439   4.488   5.868   0.592
 8360WAT  MW   33440   4.518   5.893   0.515
 8361WAT  OW   33441   6.494   0.162   3.679
 8361WAT  HW1  33442   6.404   0.159   3.645
 8361WAT  HW2  33443   6.522   0.071   3.680
 8361WAT  MW   33444   6.486   0.150   3.675
 8362WAT  OW   33445   4.332   1.418   5.616
 8362WAT  HW1  33446   4.362   1.507   5.632
 8362WAT  HW2  33447   4.267   1.427   5.546
 8362WAT  MW   33448   4.328   1.431   5.609
 8363WAT  OW   33449   2.526   5.722   2.900
 8363WAT  HW1  33450   2.600   5.680   2.856
 8363WAT  HW2  33451   2.491   5.655   2.959
 8363WAT  MW   33452   2.531   5.707   2.902
 8364WAT  OW   33453   0.098   2.260   5.182
 8364WAT  HW1  33454   0.060   2.226   5.101
 8364WAT  HW2  33455   0.032   2.322   5.214
 8364WAT  MW   33456   0.084   2.264   5.175
 8365WAT  OW   33457   5.997   4.762   6.581
 8365WAT  HW1  33458   5.972   4.748   6.490
 8365WAT  HW2  33459   5.945   4.698   6.630
 8365WAT  MW   33460   5.987   4.752   6.576
 8366WAT  OW   33461   4.727   2.619   5.429
 8366WAT  HW1  33462   4.789   2.576   5.488
 8366WAT  HW2  33463   4.641   2.588   5.457
 8366WAT  MW   33464   4.723   2.609   5.441
 8367WAT  OW   33465   4.066   5.044   4.794
 8367WAT  HW1  33466   4.114   5.126   4.805
 8367WAT  HW2  33467   4.111   4.999   4.723
 8367WAT  MW   33468   4.078   5.049   4.786
 8368WAT  OW   33469   5.989   2.663   0.470
 8368WAT  HW1  33470   5.923   2.609   0.513
 8368WAT  HW2  33471   5.969   2.753   0.498
 8368WAT  MW   33472   5.978   2.668   0.480
 8369WAT  OW   33473   5.054   1.243   2.379
 8369WAT  HW1  33474   5.148   1.227   2.392
 8369WAT  HW2  33475   5.011   1.167   2.418
 8369WAT  MW   33476   5.061   1.231   2.386
 8370WAT  OW   33477   2.497   1.808   2.372
 8370WAT  HW1  33478   2.504   1.756   2.292
 8370WAT  HW2  33479   2.404   1.810   2.392
 8370WAT  MW   33480   2.486   1.801   2.364
 8371WAT  OW   33481   0.811   1.139   5.750
 8371WAT  HW1  33482   0.726   1.172   5.781
 8371WAT  HW2  33483   0.856   1.112   5.830
 8371WAT  MW   33484   0.806   1.140   5.765
 8372WAT  OW   33485   4.256   2.332   2.692
 8372WAT  HW1  33486   4.211   2.252   2.666
 8372WAT  HW2  33487   4.185   2.395   2.706
 8372WAT  MW   33488   4.241   2.330   2.691
 8373WAT  OW   33489   1.084   6.308   2.975
 8373WAT  HW1  33490   1.001   6.348   2.947
 8373WAT  HW2  33491   1.065   6.215   2.979
 8373WAT  MW   33492   1.070   6.301   2.972
 8374WAT  OW   33493   6.219   5.322   5.722
 8374WAT  HW1  33494   6.192   5.346   5.633
 8374WAT  HW2  33495   6.210   5.227   5.725
 8374WAT  MW   33496   6.214   5.313   5.711
 8375WAT  OW   33497   2.388   1.232   0.781
 8375WAT  HW1  33498   2.455   1.171   0.811
 8375WAT  HW2  33499   2.308   1.205   0.827
 8375WAT  MW   33500   2.386   1.220   0.791
 8376WAT  OW   33501   4.570   0.216   6.587
 8376WAT  HW1  33502   4.665   0.209   6.583
 8376WAT  HW2  33503   4.538   0.131   6.557
 8376WAT  MW   33504   4.578   0.204   6.582
 8377WAT  OW   33505   4.268   5.192   2.361
 8377WAT  HW1  33506   4.288   5.208   2.268
 8377WAT  HW2  33507   4.240   5.101   2.364
 8377WAT  MW   33508   4.267   5.182   2.349
 8378WAT  OW   33509   1.533   2.849   5.255
 8378WAT  HW1  33510   1.557   2.794   5.330
 8378WAT  HW2  33511   1.610   2.903   5.240
 8378WAT  MW   33512   1.546   2.849   5.263
 8379WAT  OW   33513   3.906   5.855   1.209
 8379WAT  HW1  33514   3.911   5.790   1.279
 8379WAT  HW2  33515   3.990   5.901   1.211
 8379WAT  MW   33516   3.917   5.853   1.218
 8380WAT  OW   33517   3.612   0.211   5.312
 8380WAT  HW1  33518   3.635   0.118   5.314
 8380WAT  HW2  33519   3.637   0.244   5.398
 8380WAT  MW   33520   3.618   0.203   5.324
 8381WAT  OW   33521   2.607   1.924   1.057
 8381WAT  HW1  33522   2.651   1.839   1.048
 8381WAT  HW2  33523   2.664   1.985   1.009
 8381WAT  MW   33524   2.620   1.921   1.049
 8382WAT  OW   33525   4.091   0.428   4.681
 8382WAT  HW1  33526   4.110   0.376   4.759
 8382WAT  HW2  33527   4.137   0.381   4.610
 8382WAT  MW   33528   4.100   0.415   4.682
 8383WAT  OW   33529   1.851   1.954   5.084
 8383WAT  HW1  33530   1.895   1.930   5.002
 8383WAT  HW2  33531   1.922   1.987   5.140
 8383WAT  MW   33532   1.867   1.955   5.081
 8384WAT  OW   33533   3.261   0.421   5.783
 8384WAT  HW1  33534   3.236   0.500   5.733
 8384WAT  HW2  33535   3.182   0.368   5.785
 8384WAT  MW   33536   3.248   0.425   5.777
 8385WAT  OW   33537   6.238   3.494   1.114
 8385WAT  HW1  33538   6.232   3.590   1.112
 8385WAT  HW2  33539   6.218   3.467   1.025
 8385WAT  MW   33540   6.234   3.503   1.102
 8386WAT  OW   33541   4.170   3.661   4.378
 8386WAT  HW1  33542   4.236   3.673   4.446
 8386WAT  HW2  33543   4.101   3.724   4.400
 8386WAT  MW   33544   4.169   3.671   4.390
 8387WAT  OW   33545   5.119   2.567   5.927
 8387WAT  HW1  33546   5.077   2.481   5.928
 8387WAT  HW2  33547   5.207   2.552   5.960
 8387WAT  MW   33548   5.125   2.554   5.932
 8388WAT  OW   33549   0.129   0.628   5.907
 8388WAT  HW1  33550   0.156   0.681   5.983
 8388WAT  HW2  33551   0.036   0.646   5.898
 8388WAT  MW   33552   0.120   0.638   5.916
 8389WAT  OW   33553   1.286   2.221   2.668
 8389WAT  HW1  33554   1.322   2.302   2.705
 8389WAT  HW2  33555   1.363   2.174   2.636
 8389WAT  MW   33556   1.301   2.225   2.669
 8390WAT  OW   33557   3.887   6.061   3.771
 8390WAT  HW1  33558   3.798   6.071   3.803
 8390WAT  HW2  33559   3.895   5.968   3.752
 8390WAT  MW   33560   3.876   6.050   3.772
 8391WAT  OW   33561   2.300   4.880   4.703
 8391WAT  HW1  33562   2.365   4.839   4.760
 8391WAT  HW2  33563   2.231   4.815   4.694
 8391WAT  MW   33564   2.300   4.866   4.709
 8392WAT  OW   33565   4.724   5.740   1.432
 8392WAT  HW1  33566   4.733   5.688   1.353
 8392WAT  HW2  33567   4.633   5.728   1.459
 8392WAT  MW   33568   4.713   5.732   1.425
 8393WAT  OW   33569   4.091   0.067   0.287
 8393WAT  HW1  33570   4.028   0.138   0.282
 8393WAT  HW2  33571   4.171   0.103   0.248
 8393WAT  MW   33572   4.093   0.081   0.281
 8394WAT  OW   33573   4.036   6.401   4.511
 8394WAT  HW1  33574   3.993   6.430   4.591
 8394WAT  HW2  33575   4.061   6.310   4.528
 8394WAT  MW   33576   4.033   6.393   4.524
 8395WAT  OW   33577   6.664   3.799   1.183
 8395WAT  HW1  33578   6.674   3.729   1.248
 8395WAT  HW2  33579   6.570   3.810   1.174
 8395WAT  MW   33580   6.653   3.791   1.191
 8396WAT  OW   33581   2.340   5.752   1.407
 8396WAT  HW1  33582   2.277   5.747   1.335
 8396WAT  HW2  33583   2.358   5.660   1.429
 8396WAT  MW   33584   2.334   5.739   1.400
 8397WAT  OW   33585   6.289   5.724   4.661
 8397WAT  HW1  33586   6.273   5.663   4.733
 8397WAT  HW2  33587   6.273   5.811   4.699
 8397WAT  MW   33588   6.284   5.727   4.675
 8398WAT  OW   33589   1.379   2.844   0.092
 8398WAT  HW1  33590   1.426   2.899   0.030
 8398WAT  HW2  33591   1.448   2.800   0.142
 8398WAT  MW   33592   1.394   2.845   0.091
 8399WAT  OW   33593   3.906   2.288   3.096
 8399WAT  HW1  33594   3.833   2.315   3.151
 8399WAT  HW2  33595   3.869   2.224   3.036
 8399WAT  MW   33596   3.892   2.283   3.095
 8400WAT  OW   33597   1.984   0.302   3.272
 8400WAT  HW1  33598   1.928   0.314   3.196
 8400WAT  HW2  33599   1.934   0.244   3.330
 8400WAT  MW   33600   1.970   0.296   3.270
 8401WAT  OW   33601   2.681   5.824   0.199
 8401WAT  HW1  33602   2.666   5.733   0.174
 8401WAT  HW2  33603   2.692   5.822   0.294
 8401WAT  MW   33604   2.680   5.812   0.208
 8402WAT  OW   33605   3.966   1.410   0.431
 8402WAT  HW1  33606   4.050   1.440   0.395
 8402WAT  HW2  33607   3.958   1.320   0.401
 8402WAT  MW   33608   3.976   1.402   0.422
 8403WAT  OW   33609   2.371   4.421   5.738
 8403WAT  HW1  33610   2.384   4.462   5.823
 8403WAT  HW2  33611   2.459   4.400   5.707
 8403WAT  MW   33612   2.384   4.424   5.745
 8404WAT  OW   33613   5.740   3.813   3.966
 8404WAT  HW1  33614   5.704   3.884   3.914
 8404WAT  HW2  33615   5.828   3.800   3.932
 8404WAT  MW   33616   5.747   3.820   3.955
 8405WAT  OW   33617   2.599   2.404   1.850
 8405WAT  HW1  33618   2.558   2.402   1.937
 8405WAT  HW2  33619   2.667   2.471   1.857
 8405WAT  MW   33620   2.602   2.412   1.863
 8406WAT  OW   33621   1.138   5.423   2.456
 8406WAT  HW1  33622   1.191   5.436   2.377
 8406WAT  HW2  33623   1.156   5.499   2.510
 8406WAT  MW   33624   1.148   5.435   2.453
 8407WAT  OW   33625   5.749   2.537   5.195
 8407WAT  HW1  33626   5.805   2.602   5.238
 8407WAT  HW2  33627   5.761   2.457   5.246
 8407WAT  MW   33628   5.758   2.535   5.207
 8408WAT  OW   33629   1.053   6.444   3.928
 8408WAT  HW1  33630   1.120   6.378   3.909
 8408WAT  HW2  33631   0.970   6.399   3.911
 8408WAT  MW   33632   1.051   6.430   3.923
 8409WAT  OW   33633   2.229   3.680   5.054
 8409WAT  HW1  33634   2.198   3.656   5.141
 8409WAT  HW2  33635   2.150   3.683   5.001
 8409WAT  MW   33636   2.214   3.677   5.058
 8410WAT  OW   33637   6.694   5.404   5.692
 8410WAT  HW1  33638   6.726   5.488   5.658
 8410WAT  HW2  33639   6.610   5.426   5.733
 8410WAT  MW   33640   6.687   5.418   5.693
 8411WAT  OW   33641   0.122   4.564   2.395
 8411WAT  HW1  33642   0.108   4.469   2.391
 8411WAT  HW2  33643   0.200   4.579   2.341
 8411WAT  MW   33644   0.131   4.553   2.387
 8412WAT  OW   33645   5.096   2.156   2.052
 8412WAT  HW1  33646   5.153   2.079   2.055
 8412WAT  HW2  33647   5.008   2.121   2.064
 8412WAT  MW   33648   5.092   2.141   2.054
 8413WAT  OW   33649   2.891   6.476   2.285
 8413WAT  HW1  33650   2.910   6.383   2.299
 8413WAT  HW2  33651   2.949   6.522   2.346
 8413WAT  MW   33652   2.901   6.470   2.295
 8414WAT  OW   33653   5.965   2.183   3.653
 8414WAT  HW1  33654   5.883   2.171   3.701
 8414WAT  HW2  33655   6.020   2.110   3.681
 8414WAT  MW   33656   5.961   2.172   3.663
 8415WAT  OW   33657   3.942   2.774   4.251
 8415WAT  HW1  33658   4.011   2.838   4.271
 8415WAT  HW2  33659   3.982   2.714   4.189
 8415WAT  MW   33660   3.956   2.775   4.245
 8416WAT  OW   33661   5.957   0.348   1.080
 8416WAT  HW1  33662   5.909   0.283   1.132
 8416WAT  HW2  33663   5.891   0.384   1.020
 8416WAT  MW   33664   5.942   0.344   1.079
 8417WAT  OW   33665   0.216   0.957   1.936
 8417WAT  HW1  33666   0.121   0.964   1.944
 8417WAT  HW2  33667   0.230   0.925   1.846
 8417WAT  MW   33668   0.205   0.954   1.925
 8418WAT  OW   33669   6.365   5.835   2.449
 8418WAT  HW1  33670   6.369   5.924   2.485
 8418WAT  HW2  33671   6.421   5.839   2.371
 8418WAT  MW   33672   6.373   5.847   2.443
 8419WAT  OW   33673   0.475   2.468   4.012
 8419WAT  HW1  33674   0.423   2.521   4.073
 8419WAT  HW2  33675   0.439   2.380   4.020
 8419WAT  MW   33676   0.464   2.463   4.021
 8420WAT  OW   33677   3.311   5.645   2.048
 8420WAT  HW1  33678   3.368   5.704   2.097
 8420WAT  HW2  33679   3.227   5.648   2.094
 8420WAT  MW   33680   3.307   5.653   2.060
 8421WAT  OW   33681   5.515   6.651   3.952
 8421WAT  HW1  33682   5.542   6.621   4.039
 8421WAT  HW2  33683   5.420   6.640   3.952
 8421WAT  MW   33684   5.506   6.645   3.964
 8422WAT  OW   33685   0.410   6.468   5.363
 8422WAT  HW1  33686   0.340   6.459   5.428
 8422WAT  HW2  33687   0.472   6.398   5.383
 8422WAT  MW   33688   0.409   6.457   5.374
 8423WAT  OW   33689   0.240   1.251   2.964
 8423WAT  HW1  33690   0.245   1.159   2.987
 8423WAT  HW2  33691   0.157   1.280   3.002
 8423WAT  MW   33692   0.229   1.243   2.972
 8424WAT  OW   33693   2.394   1.789   2.887
 8424WAT  HW1  33694   2.381   1.735   2.965
 8424WAT  HW2  33695   2.378   1.730   2.814
 8424WAT  MW   33696   2.391   1.774   2.888
 8425WAT  OW   33697   6.514   2.025   5.752
 8425WAT  HW1  33698   6.466   2.105   5.733
 8425WAT  HW2  33699   6.449   1.966   5.790
 8425WAT  MW   33700   6.499   2.028   5.754
 8426WAT  OW   33701   5.948   4.351   6.001
 8426WAT  HW1  33702   5.908   4.437   6.015
 8426WAT  HW2  33703   5.909   4.295   6.068
 8426WAT  MW   33704   5.938   4.355   6.012
 8427WAT  OW   33705   5.001   3.065   1.754
 8427WAT  HW1  33706   4.967   3.084   1.667
 8427WAT  HW2  33707   4.989   3.147   1.803
 8427WAT  MW   33708   4.995   3.079   1.749
 8428WAT  OW   33709   1.385   3.493   0.215
 8428WAT  HW1  33710   1.384   3.586   0.190
 8428WAT  HW2  33711   1.312   3.484   0.277
 8428WAT  MW   33712   1.375   3.504   0.220
 8429WAT  OW   33713   1.940   2.977   0.017
 8429WAT  HW1  33714   1.900   2.890   0.015
 8429WAT  HW2  33715   1.881   3.030   0.070
 8429WAT  MW   33716   1.927   2.972   0.024
 8430WAT  OW   33717   1.034   0.695   5.398
 8430WAT  HW1  33718   1.102   0.759   5.420
 8430WAT  HW2  33719   1.049   0.623   5.460
 8430WAT  MW   33720   1.045   0.694   5.409
 8431WAT  OW   33721   3.118   2.510   6.425
 8431WAT  HW1  33722   3.128   2.543   6.514
 8431WAT  HW2  33723   3.079   2.423   6.435
 8431WAT  MW   33724   3.114   2.503   6.438
 8432WAT  OW   33725   4.830   5.498   4.337
 8432WAT  HW1  33726   4.868   5.580   4.304
 8432WAT  HW2  33727   4.805   5.449   4.258
 8432WAT  MW   33728   4.832   5.503   4.322
 8433WAT  OW   33729   3.274   4.080   4.614
 8433WAT  HW1  33730   3.336   4.121   4.674
 8433WAT  HW2  33731   3.326   4.059   4.536
 8433WAT  MW   33732   3.289   4.082   4.612
 8434WAT  OW   33733   1.141   4.863   2.519
 8434WAT  HW1  33734   1.175   4.781   2.553
 8434WAT  HW2  33735   1.191   4.879   2.439
 8434WAT  MW   33736   1.152   4.854   2.513
 8435WAT  OW   33737   3.994   3.307   1.226
 8435WAT  HW1  33738   4.067   3.246   1.223
 8435WAT  HW2  33739   3.989   3.344   1.138
 8435WAT  MW   33740   4.003   3.304   1.214
 8436WAT  OW   33741   0.714   6.622   4.758
 8436WAT  HW1  33742   0.742   6.699   4.709
 8436WAT  HW2  33743   0.632   6.595   4.716
 8436WAT  MW   33744   0.707   6.629   4.746
 8437WAT  OW   33745   0.097   5.486   6.081
 8437WAT  HW1  33746   0.085   5.424   6.153
 8437WAT  HW2  33747   0.128   5.432   6.008
 8437WAT  MW   33748   0.100   5.471   6.080
 8438WAT  OW   33749   1.413   2.583   4.471
 8438WAT  HW1  33750   1.363   2.623   4.542
 8438WAT  HW2  33751   1.436   2.496   4.503
 8438WAT  MW   33752   1.409   2.577   4.485
 8439WAT  OW   33753   2.137   2.830   4.305
 8439WAT  HW1  33754   2.057   2.839   4.253
 8439WAT  HW2  33755   2.179   2.752   4.269
 8439WAT  MW   33756   2.132   2.821   4.293
 8440WAT  OW   33757   2.863   5.489   6.483
 8440WAT  HW1  33758   2.940   5.531   6.523
 8440WAT  HW2  33759   2.792   5.551   6.497
 8440WAT  MW   33760   2.864   5.503   6.490
 8441WAT  OW   33761   3.976   3.263   3.640
 8441WAT  HW1  33762   3.990   3.356   3.658
 8441WAT  HW2  33763   3.971   3.223   3.726
 8441WAT  MW   33764   3.977   3.270   3.654
 8442WAT  OW   33765   6.104   1.694   2.891
 8442WAT  HW1  33766   6.128   1.606   2.860
 8442WAT  HW2  33767   6.121   1.692   2.985
 8442WAT  MW   33768   6.109   1.682   2.899
 8443WAT  OW   33769   0.997   4.636   1.826
 8443WAT  HW1  33770   1.027   4.722   1.795
 8443WAT  HW2  33771   1.021   4.576   1.756
 8443WAT  MW   33772   1.004   4.640   1.813
 8444WAT  OW   33773   4.816   1.517   4.285
 8444WAT  HW1  33774   4.746   1.452   4.280
 8444WAT  HW2  33775   4.779   1.596   4.248
 8444WAT  MW   33776   4.802   1.519   4.280
 8445WAT  OW   33777   1.695   3.568   2.429
 8445WAT  HW1  33778   1.642   3.645   2.452
 8445WAT  HW2  33779   1.688   3.510   2.505
 8445WAT  MW   33780   1.687   3.571   2.442
 8446WAT  OW   33781   3.786   1.444   6.468
 8446WAT  HW1  33782   3.804   1.537   6.459
 8446WAT  HW2  33783   3.748   1.435   6.555
 8446WAT  MW   33784   3.783   1.455   6.478
 8447WAT  OW   33785   0.080   0.331   5.673
 8447WAT  HW1  33786   0.072   0.261   5.609
 8447WAT  HW2  33787  -0.009   0.342   5.707
 8447WAT  MW   33788   0.067   0.323   5.669
 8448WAT  OW   33789   0.047   2.080   3.915
 8448WAT  HW1  33790  -0.042   2.096   3.885
 8448WAT  HW2  33791   0.065   1.989   3.890
 8448WAT  MW   33792   0.037   2.070   3.908
 8449WAT  OW   33793   1.937   4.176   2.454
 8449WAT  HW1  33794   2.018   4.219   2.426
 8449WAT  HW2  33795   1.884   4.246   2.493
 8449WAT  MW   33796   1.941   4.191   2.456
 8450WAT  OW   33797   6.152   5.478   0.547
 8450WAT  HW1  33798   6.233   5.427   0.544
 8450WAT  HW2  33799   6.111   5.463   0.462
 8450WAT  MW   33800   6.157   5.469   0.536
 8451WAT  OW   33801   6.073   5.997   1.101
 8451WAT  HW1  33802   5.991   5.978   1.148
 8451WAT  HW2  33803   6.085   6.091   1.113
 8451WAT  MW   33804   6.064   6.007   1.109
 8452WAT  OW   33805   3.974   4.114   2.511
 8452WAT  HW1  33806   4.059   4.090   2.547
 8452WAT  HW2  33807   3.911   4.085   2.578
 8452WAT  MW   33808   3.977   4.107   2.525
 8453WAT  OW   33809   5.261   5.357   0.508
 8453WAT  HW1  33810   5.185   5.308   0.478
 8453WAT  HW2  33811   5.230   5.405   0.585
 8453WAT  MW   33812   5.247   5.357   0.514
 8454WAT  OW   33813   6.244   2.348   5.393
 8454WAT  HW1  33814   6.270   2.367   5.303
 8454WAT  HW2  33815   6.323   2.366   5.444
 8454WAT  MW   33816   6.258   2.353   5.388
 8455WAT  OW   33817   2.285   3.733   2.451
 8455WAT  HW1  33818   2.332   3.730   2.368
 8455WAT  HW2  33819   2.286   3.825   2.476
 8455WAT  MW   33820   2.291   3.745   2.443
 8456WAT  OW   33821   0.398   4.739   2.646
 8456WAT  HW1  33822   0.436   4.750   2.559
 8456WAT  HW2  33823   0.455   4.676   2.689
 8456WAT  MW   33824   0.411   4.732   2.640
 8457WAT  OW   33825   0.949   0.894   3.487
 8457WAT  HW1  33826   0.992   0.846   3.557
 8457WAT  HW2  33827   0.856   0.876   3.499
 8457WAT  MW   33828   0.942   0.885   3.498
 8458WAT  OW   33829   1.558   1.727   5.414
 8458WAT  HW1  33830   1.639   1.765   5.381
 8458WAT  HW2  33831   1.501   1.720   5.337
 8458WAT  MW   33832   1.561   1.731   5.400
 8459WAT  OW   33833   1.639   2.610   5.092
 8459WAT  HW1  33834   1.593   2.535   5.127
 8459WAT  HW2  33835   1.623   2.680   5.155
 8459WAT  MW   33836   1.631   2.610   5.105
 8460WAT  OW   33837   1.557   4.723   1.722
 8460WAT  HW1  33838   1.542   4.692   1.812
 8460WAT  HW2  33839   1.651   4.713   1.710
 8460WAT  MW   33840   1.567   4.718   1.733
 8461WAT  OW   33841   6.444   0.824   5.157
 8461WAT  HW1  33842   6.396   0.878   5.219
 8461WAT  HW2  33843   6.524   0.873   5.139
 8461WAT  MW   33844   6.448   0.837   5.163
 8462WAT  OW   33845   2.718   4.859   1.029
 8462WAT  HW1  33846   2.657   4.788   1.005
 8462WAT  HW2  33847   2.751   4.891   0.945
 8462WAT  MW   33848   2.714   4.854   1.014
 8463WAT  OW   33849   3.215   4.936   5.302
 8463WAT  HW1  33850   3.303   4.941   5.341
 8463WAT  HW2  33851   3.216   5.003   5.234
 8463WAT  MW   33852   3.227   4.946   5.298
 8464WAT  OW   33853   6.453   5.463   5.810
 8464WAT  HW1  33854   6.386   5.400   5.784
 8464WAT  HW2  33855   6.455   5.458   5.905
 8464WAT  MW   33856   6.444   5.454   5.819
 8465WAT  OW   33857   4.428   2.409   2.478
 8465WAT  HW1  33858   4.382   2.388   2.559
 8465WAT  HW2  33859   4.432   2.325   2.431
 8465WAT  MW   33860   4.422   2.395   2.483
 8466WAT  OW   33861   1.247   5.145   5.193
 8466WAT  HW1  33862   1.259   5.106   5.280
 8466WAT  HW2  33863   1.207   5.075   5.141
 8466WAT  MW   33864   1.244   5.130   5.197
 8467WAT  OW   33865   4.538   2.404   2.797
 8467WAT  HW1  33866   4.450   2.368   2.785
 8467WAT  HW2  33867   4.527   2.498   2.783
 8467WAT  MW   33868   4.525   2.411   2.793
 8468WAT  OW   33869   3.506   0.170   4.872
 8468WAT  HW1  33870   3.497   0.076   4.885
 8468WAT  HW2  33871   3.600   0.184   4.864
 8468WAT  MW   33872   3.517   0.159   4.873
 8469WAT  OW   33873   3.017   0.732   4.666
 8469WAT  HW1  33874   3.056   0.804   4.617
 8469WAT  HW2  33875   2.967   0.683   4.601
 8469WAT  MW   33876   3.016   0.735   4.651
 8470WAT  OW   33877   1.614   2.878   3.164
 8470WAT  HW1  33878   1.691   2.822   3.154
 8470WAT  HW2  33879   1.645   2.966   3.138
 8470WAT  MW   33880   1.629   2.883   3.159
 8471WAT  OW   33881   5.212   4.998   4.233
 8471WAT  HW1  33882   5.182   4.917   4.191
 8471WAT  HW2  33883   5.281   5.031   4.175
 8471WAT  MW   33884   5.217   4.991   4.220
 8472WAT  OW   33885   5.088   6.553   1.795
 8472WAT  HW1  33886   5.093   6.460   1.817
 8472WAT  HW2  33887   5.132   6.560   1.710
 8472WAT  MW   33888   5.094   6.542   1.786
 8473WAT  OW   33889   6.152   0.721   4.450
 8473WAT  HW1  33890   6.166   0.725   4.356
 8473WAT  HW2  33891   6.224   0.666   4.482
 8473WAT  MW   33892   6.164   0.714   4.442
 8474WAT  OW   33893   0.760   1.568   6.677
 8474WAT  HW1  33894   0.797   1.484   6.652
 8474WAT  HW2  33895   0.705   1.549   6.752
 8474WAT  MW   33896   0.758   1.555   6.683
 8475WAT  OW   33897   6.209   3.781   5.306
 8475WAT  HW1  33898   6.211   3.849   5.239
 8475WAT  HW2  33899   6.265   3.814   5.376
 8475WAT  MW   33900   6.217   3.794   5.306
 8476WAT  OW   33901   5.429   0.716   1.520
 8476WAT  HW1  33902   5.392   0.804   1.511
 8476WAT  HW2  33903   5.524   0.730   1.523
 8476WAT  MW   33904   5.437   0.730   1.519
 8477WAT  OW   33905   2.764   4.050   5.999
 8477WAT  HW1  33906   2.838   4.084   5.949
 8477WAT  HW2  33907   2.795   3.967   6.035
 8477WAT  MW   33908   2.778   4.044   5.997
 8478WAT  OW   33909   4.199   1.572   4.208
 8478WAT  HW1  33910   4.135   1.505   4.232
 8478WAT  HW2  33911   4.171   1.602   4.122
 8478WAT  MW   33912   4.187   1.567   4.200
 8479WAT  OW   33913   4.313   4.557   2.719
 8479WAT  HW1  33914   4.340   4.515   2.801
 8479WAT  HW2  33915   4.367   4.635   2.712
 8479WAT  MW   33916   4.323   4.562   2.729
 8480WAT  OW   33917   3.564   0.785   0.626
 8480WAT  HW1  33918   3.592   0.869   0.591
 8480WAT  HW2  33919   3.561   0.727   0.550
 8480WAT  MW   33920   3.567   0.789   0.611
 8481WAT  OW   33921   3.369   6.315   5.932
 8481WAT  HW1  33922   3.312   6.312   6.009
 8481WAT  HW2  33923   3.310   6.300   5.858
 8481WAT  MW   33924   3.354   6.313   5.933
 8482WAT  OW   33925   2.551   4.014   6.149
 8482WAT  HW1  33926   2.482   4.027   6.084
 8482WAT  HW2  33927   2.632   4.009   6.099
 8482WAT  MW   33928   2.553   4.015   6.134
 8483WAT  OW   33929   4.214   0.391   6.187
 8483WAT  HW1  33930   4.120   0.388   6.173
 8483WAT  HW2  33931   4.251   0.408   6.100
 8483WAT  MW   33932   4.207   0.393   6.173
 8484WAT  OW   33933   6.433   3.226   5.909
 8484WAT  HW1  33934   6.527   3.225   5.889
 8484WAT  HW2  33935   6.404   3.313   5.883
 8484WAT  MW   33936   6.442   3.237   5.903
 8485WAT  OW   33937   4.098   2.103   3.707
 8485WAT  HW1  33938   4.162   2.130   3.640
 8485WAT  HW2  33939   4.019   2.080   3.657
 8485WAT  MW   33940   4.096   2.104   3.692
 8486WAT  OW   33941   0.351   5.471   3.252
 8486WAT  HW1  33942   0.273   5.416   3.253
 8486WAT  HW2  33943   0.414   5.425   3.309
 8486WAT  MW   33944   0.349   5.458   3.260
 8487WAT  OW   33945   1.764   4.352   2.084
 8487WAT  HW1  33946   1.779   4.392   2.170
 8487WAT  HW2  33947   1.670   4.362   2.068
 8487WAT  MW   33948   1.754   4.359   2.093
 8488WAT  OW   33949   1.557   4.159   1.078
 8488WAT  HW1  33950   1.478   4.113   1.106
 8488WAT  HW2  33951   1.624   4.091   1.069
 8488WAT  MW   33952   1.556   4.144   1.081
 8489WAT  OW   33953   0.885   6.308   4.475
 8489WAT  HW1  33954   0.856   6.345   4.392
 8489WAT  HW2  33955   0.806   6.269   4.513
 8489WAT  MW   33956   0.871   6.308   4.469
 8490WAT  OW   33957   4.778   5.055   0.488
 8490WAT  HW1  33958   4.685   5.079   0.486
 8490WAT  HW2  33959   4.782   4.968   0.449
 8490WAT  MW   33960   4.766   5.047   0.483
 8491WAT  OW   33961   0.467   6.106   6.636
 8491WAT  HW1  33962   0.416   6.184   6.614
 8491WAT  HW2  33963   0.404   6.034   6.629
 8491WAT  MW   33964   0.452   6.107   6.632
 8492WAT  OW   33965   2.532   5.329   1.303
 8492WAT  HW1  33966   2.530   5.241   1.266
 8492WAT  HW2  33967   2.625   5.349   1.311
 8492WAT  MW   33968   2.544   5.320   1.299
 8493WAT  OW   33969   0.818   5.397   4.238
 8493WAT  HW1  33970   0.900   5.393   4.287
 8493WAT  HW2  33971   0.792   5.306   4.227
 8493WAT  MW   33972   0.825   5.385   4.243
 8494WAT  OW   33973   0.083   6.686   5.262
 8494WAT  HW1  33974   0.172   6.713   5.286
 8494WAT  HW2  33975   0.068   6.724   5.175
 8494WAT  MW   33976   0.093   6.695   5.254
 8495WAT  OW   33977   2.107   0.925   5.956
 8495WAT  HW1  33978   2.014   0.942   5.939
 8495WAT  HW2  33979   2.108   0.860   6.026
 8495WAT  MW   33980   2.095   0.919   5.963
 8496WAT  OW   33981   0.692   0.948   5.604
 8496WAT  HW1  33982   0.744   1.009   5.657
 8496WAT  HW2  33983   0.746   0.931   5.527
 8496WAT  MW   33984   0.706   0.954   5.601
 8497WAT  OW   33985   5.147   2.922   0.056
 8497WAT  HW1  33986   5.068   2.869   0.056
 8497WAT  HW2  33987   5.116   3.011   0.036
 8497WAT  MW   33988   5.133   2.927   0.053
 8498WAT  OW   33989   3.320   0.514   4.245
 8498WAT  HW1  33990   3.414   0.530   4.240
 8498WAT  HW2  33991   3.306   0.440   4.186
 8498WAT  MW   33992   3.331   0.506   4.236
 8499WAT  OW   33993   6.556   6.010   1.524
 8499WAT  HW1  33994   6.547   5.986   1.431
 8499WAT  HW2  33995   6.641   6.054   1.529
 8499WAT  MW   33996   6.566   6.013   1.512
 8500WAT  OW   33997   0.662   0.261   2.078
 8500WAT  HW1  33998   0.664   0.208   1.998
 8500WAT  HW2  33999   0.708   0.207   2.143
 8500WAT  MW   34000   0.668   0.247   2.076
 8501WAT  OW   34001   5.282   6.138   4.628
 8501WAT  HW1  34002   5.198   6.177   4.604
 8501WAT  HW2  34003   5.347   6.192   4.584
 8501WAT  MW   34004   5.280   6.150   4.619
 8502WAT  OW   34005   1.052   6.493   4.218
 8502WAT  HW1  34006   1.114   6.566   4.224
 8502WAT  HW2  34007   1.050   6.472   4.124
 8502WAT  MW   34008   1.060   6.500   4.206
 8503WAT  OW   34009   6.111   5.715   6.099
 8503WAT  HW1  34010   6.083   5.799   6.063
 8503WAT  HW2  34011   6.160   5.674   6.028
 8503WAT  MW   34012   6.114   5.721   6.085
 8504WAT  OW   34013   1.096   0.412   4.866
 8504WAT  HW1  34014   1.140   0.327   4.873
 8504WAT  HW2  34015   1.023   0.395   4.805
 8504WAT  MW   34016   1.092   0.398   4.859
 8505WAT  OW   34017   5.522   3.511   1.512
 8505WAT  HW1  34018   5.471   3.590   1.530
 8505WAT  HW2  34019   5.542   3.475   1.599
 8505WAT  MW   34020   5.518   3.517   1.526
 8506WAT  OW   34021   2.662   5.547   0.149
 8506WAT  HW1  34022   2.653   5.563   0.055
 8506WAT  HW2  34023   2.582   5.499   0.172
 8506WAT  MW   34024   2.650   5.543   0.139
 8507WAT  OW   34025   1.951   1.142   5.702
 8507WAT  HW1  34026   1.925   1.233   5.717
 8507WAT  HW2  34027   1.900   1.092   5.764
 8507WAT  MW   34028   1.941   1.148   5.712
 8508WAT  OW   34029   1.799   3.412   5.737
 8508WAT  HW1  34030   1.711   3.400   5.702
 8508WAT  HW2  34031   1.791   3.485   5.798
 8508WAT  MW   34032   1.786   3.420   5.740
 8509WAT  OW   34033   4.938   3.529   6.512
 8509WAT  HW1  34034   4.967   3.489   6.594
 8509WAT  HW2  34035   4.999   3.496   6.446
 8509WAT  MW   34036   4.950   3.519   6.515
 8510WAT  OW   34037   0.445   1.521   3.378
 8510WAT  HW1  34038   0.461   1.477   3.294
 8510WAT  HW2  34039   0.426   1.612   3.354
 8510WAT  MW   34040   0.445   1.527   3.364
 8511WAT  OW   34041   1.464   6.046   3.930
 8511WAT  HW1  34042   1.432   6.129   3.965
 8511WAT  HW2  34043   1.414   6.035   3.848
 8511WAT  MW   34044   1.453   6.056   3.924
 8512WAT  OW   34045   2.688   1.878   3.755
 8512WAT  HW1  34046   2.771   1.831   3.764
 8512WAT  HW2  34047   2.707   1.966   3.788
 8512WAT  MW   34048   2.702   1.884   3.761
 8513WAT  OW   34049   2.747   4.909   3.056
 8513WAT  HW1  34050   2.661   4.892   3.096
 8513WAT  HW2  34051   2.747   5.004   3.041
 8513WAT  MW   34052   2.735   4.919   3.059
 8514WAT  OW   34053   3.450   5.398   0.949
 8514WAT  HW1  34054   3.448   5.320   0.894
 8514WAT  HW2  34055   3.466   5.470   0.889
 8514WAT  MW   34056   3.452   5.397   0.934
 8515WAT  OW   34057   3.166   1.601   2.250
 8515WAT  HW1  34058   3.188   1.605   2.343
 8515WAT  HW2  34059   3.100   1.532   2.245
 8515WAT  MW   34060   3.160   1.592   2.261
 8516WAT  OW   34061   3.852   4.007   3.460
 8516WAT  HW1  34062   3.946   4.011   3.441
 8516WAT  HW2  34063   3.834   3.913   3.467
 8516WAT  MW   34064   3.862   3.995   3.459
 8517WAT  OW   34065   2.751   0.606   3.973
 8517WAT  HW1  34066   2.694   0.529   3.983
 8517WAT  HW2  34067   2.692   0.676   3.945
 8517WAT  MW   34068   2.735   0.605   3.971
 8518WAT  OW   34069   1.236   1.631   6.164
 8518WAT  HW1  34070   1.217   1.612   6.073
 8518WAT  HW2  34071   1.304   1.567   6.189
 8518WAT  MW   34072   1.243   1.620   6.155
 8519WAT  OW   34073   2.222   5.059   5.046
 8519WAT  HW1  34074   2.197   4.967   5.036
 8519WAT  HW2  34075   2.173   5.104   4.977
 8519WAT  MW   34076   2.212   5.052   5.035
 8520WAT  OW   34077   5.440   6.367   3.493
 8520WAT  HW1  34078   5.421   6.301   3.427
 8520WAT  HW2  34079   5.354   6.396   3.525
 8520WAT  MW   34080   5.426   6.362   3.489
 8521WAT  OW   34081   0.294   1.840   4.785
 8521WAT  HW1  34082   0.275   1.893   4.707
 8521WAT  HW2  34083   0.226   1.863   4.847
 8521WAT  MW   34084   0.283   1.850   4.783
 8522WAT  OW   34085   0.707   5.096   0.883
 8522WAT  HW1  34086   0.651   5.129   0.953
 8522WAT  HW2  34087   0.788   5.146   0.892
 8522WAT  MW   34088   0.710   5.107   0.894
 8523WAT  OW   34089   1.800   5.755   6.185
 8523WAT  HW1  34090   1.802   5.705   6.266
 8523WAT  HW2  34091   1.891   5.757   6.156
 8523WAT  MW   34092   1.813   5.749   6.192
 8524WAT  OW   34093   0.457   6.370   1.150
 8524WAT  HW1  34094   0.453   6.290   1.096
 8524WAT  HW2  34095   0.401   6.433   1.104
 8524WAT  MW   34096   0.449   6.367   1.137
 8525WAT  OW   34097   5.552   5.073   2.988
 8525WAT  HW1  34098   5.464   5.109   2.998
 8525WAT  HW2  34099   5.539   4.980   2.970
 8525WAT  MW   34100   5.539   5.066   2.987
 8526WAT  OW   34101   6.297   1.893   1.506
 8526WAT  HW1  34102   6.383   1.853   1.521
 8526WAT  HW2  34103   6.242   1.820   1.478
 8526WAT  MW   34104   6.301   1.878   1.504
 8527WAT  OW   34105   2.787   1.448   5.272
 8527WAT  HW1  34106   2.785   1.458   5.368
 8527WAT  HW2  34107   2.834   1.366   5.258
 8527WAT  MW   34108   2.793   1.439   5.283
 8528WAT  OW   34109   3.682   0.400   4.550
 8528WAT  HW1  34110   3.625   0.465   4.509
 8528WAT  HW2  34111   3.707   0.438   4.634
 8528WAT  MW   34112   3.677   0.413   4.555
 8529WAT  OW   34113   5.813   6.521   4.439
 8529WAT  HW1  34114   5.902   6.546   4.460
 8529WAT  HW2  34115   5.759   6.565   4.505
 8529WAT  MW   34116   5.817   6.530   4.450
 8530WAT  OW   34117   3.699   2.293   0.344
 8530WAT  HW1  34118   3.648   2.213   0.353
 8530WAT  HW2  34119   3.703   2.329   0.433
 8530WAT  MW   34120   3.693   2.287   0.357
 8531WAT  OW   34121   3.059   1.333   0.664
 8531WAT  HW1  34122   3.061   1.238   0.656
 8531WAT  HW2  34123   2.969   1.353   0.692
 8531WAT  MW   34124   3.047   1.323   0.667
 8532WAT  OW   34125   1.079   1.417   1.905
 8532WAT  HW1  34126   1.105   1.504   1.875
 8532WAT  HW2  34127   1.046   1.431   1.994
 8532WAT  MW   34128   1.078   1.430   1.913
 8533WAT  OW   34129   0.770   3.218   2.274
 8533WAT  HW1  34130   0.786   3.307   2.240
 8533WAT  HW2  34131   0.781   3.226   2.368
 8533WAT  MW   34132   0.774   3.231   2.282
 8534WAT  OW   34133   1.905   1.049   0.014
 8534WAT  HW1  34134   1.888   0.988   0.086
 8534WAT  HW2  34135   1.931   1.131   0.057
 8534WAT  MW   34136   1.906   1.052   0.029
 8535WAT  OW   34137   4.183   5.043   3.781
 8535WAT  HW1  34138   4.237   4.988   3.837
 8535WAT  HW2  34139   4.146   5.109   3.840
 8535WAT  MW   34140   4.185   5.045   3.796
 8536WAT  OW   34141   3.466   0.881   2.945
 8536WAT  HW1  34142   3.415   0.922   3.014
 8536WAT  HW2  34143   3.457   0.939   2.870
 8536WAT  MW   34144   3.458   0.894   2.944
 8537WAT  OW   34145   4.285   4.356   3.461
 8537WAT  HW1  34146   4.274   4.319   3.549
 8537WAT  HW2  34147   4.275   4.451   3.474
 8537WAT  MW   34148   4.282   4.364   3.474
 8538WAT  OW   34149   5.408   2.758   0.056
 8538WAT  HW1  34150   5.324   2.804   0.062
 8538WAT  HW2  34151   5.385   2.669   0.029
 8538WAT  MW   34152   5.394   2.752   0.053
 8539WAT  OW   34153   2.093   2.853   4.886
 8539WAT  HW1  34154   2.098   2.758   4.889
 8539WAT  HW2  34155   2.183   2.882   4.871
 8539WAT  MW   34156   2.105   2.845   4.885
 8540WAT  OW   34157   5.785   3.464   3.365
 8540WAT  HW1  34158   5.757   3.523   3.295
 8540WAT  HW2  34159   5.796   3.520   3.442
 8540WAT  MW   34160   5.783   3.479   3.366
 8541WAT  OW   34161   3.966   1.374   1.183
 8541WAT  HW1  34162   3.930   1.418   1.260
 8541WAT  HW2  34163   4.001   1.292   1.218
 8541WAT  MW   34164   3.966   1.369   1.198
 8542WAT  OW   34165   2.240   0.268   1.756
 8542WAT  HW1  34166   2.163   0.287   1.810
 8542WAT  HW2  34167   2.310   0.251   1.819
 8542WAT  MW   34168   2.239   0.269   1.771
 8543WAT  OW   34169   4.055   2.193   3.305
 8543WAT  HW1  34170   4.096   2.109   3.285
 8543WAT  HW2  34171   4.006   2.216   3.225
 8543WAT  MW   34172   4.054   2.185   3.291
 8544WAT  OW   34173   5.574   0.502   6.556
 8544WAT  HW1  34174   5.495   0.552   6.575
 8544WAT  HW2  34175   5.553   0.449   6.479
 8544WAT  MW   34176   5.561   0.502   6.549
 8545WAT  OW   34177   4.185   6.565   1.103
 8545WAT  HW1  34178   4.225   6.587   1.019
 8545WAT  HW2  34179   4.100   6.527   1.080
 8545WAT  MW   34180   4.179   6.563   1.089
 8546WAT  OW   34181   4.067   1.189   4.696
 8546WAT  HW1  34182   4.031   1.166   4.782
 8546WAT  HW2  34183   4.142   1.131   4.686
 8546WAT  MW   34184   4.072   1.179   4.706
 8547WAT  OW   34185   4.502   4.288   1.045
 8547WAT  HW1  34186   4.417   4.245   1.050
 8547WAT  HW2  34187   4.565   4.219   1.070
 8547WAT  MW   34188   4.499   4.273   1.049
 8548WAT  OW   34189   4.824   5.726   3.774
 8548WAT  HW1  34190   4.840   5.759   3.862
 8548WAT  HW2  34191   4.842   5.632   3.780
 8548WAT  MW   34192   4.829   5.718   3.786
 8549WAT  OW   34193   4.770   5.007   2.595
 8549WAT  HW1  34194   4.677   5.013   2.613
 8549WAT  HW2  34195   4.776   5.002   2.499
 8549WAT  MW   34196   4.759   5.007   2.584
 8550WAT  OW   34197   4.282   5.878   2.052
 8550WAT  HW1  34198   4.245   5.793   2.077
 8550WAT  HW2  34199   4.370   5.878   2.090
 8550WAT  MW   34200   4.289   5.867   2.060
 8551WAT  OW   34201   1.839   5.997   1.884
 8551WAT  HW1  34202   1.789   5.984   1.803
 8551WAT  HW2  34203   1.911   5.934   1.878
 8551WAT  MW   34204   1.842   5.987   1.873
 8552WAT  OW   34205   3.639   4.245   3.423
 8552WAT  HW1  34206   3.647   4.282   3.335
 8552WAT  HW2  34207   3.717   4.189   3.432
 8552WAT  MW   34208   3.650   4.242   3.413
 8553WAT  OW   34209   3.323   4.867   3.220
 8553WAT  HW1  34210   3.245   4.830   3.178
 8553WAT  HW2  34211   3.371   4.908   3.149
 8553WAT  MW   34212   3.319   4.867   3.205
 8554WAT  OW   34213   3.329   2.240   1.197
 8554WAT  HW1  34214   3.313   2.304   1.128
 8554WAT  HW2  34215   3.374   2.168   1.152
 8554WAT  MW   34216   3.333   2.239   1.182
 8555WAT  OW   34217   2.992   2.452   4.623
 8555WAT  HW1  34218   2.941   2.468   4.544
 8555WAT  HW2  34219   2.971   2.361   4.647
 8555WAT  MW   34220   2.983   2.442   4.616
 8556WAT  OW   34221   3.660   5.170   3.310
 8556WAT  HW1  34222   3.709   5.115   3.248
 8556WAT  HW2  34223   3.645   5.113   3.385
 8556WAT  MW   34224   3.665   5.155   3.312
 8557WAT  OW   34225   3.994   3.434   2.683
 8557WAT  HW1  34226   4.077   3.456   2.726
 8557WAT  HW2  34227   3.987   3.339   2.694
 8557WAT  MW   34228   4.004   3.424   2.690
 8558WAT  OW   34229   5.770   4.744   3.457
 8558WAT  HW1  34230   5.746   4.668   3.403
 8558WAT  HW2  34231   5.863   4.731   3.476
 8558WAT  MW   34232   5.779   4.732   3.452
 8559WAT  OW   34233   4.465   5.388   3.192
 8559WAT  HW1  34234   4.487   5.455   3.257
 8559WAT  HW2  34235   4.390   5.341   3.231
 8559WAT  MW   34236   4.458   5.390   3.206
 8560WAT  OW   34237   2.209   6.044   4.549
 8560WAT  HW1  34238   2.213   6.101   4.473
 8560WAT  HW2  34239   2.237   6.099   4.622
 8560WAT  MW   34240   2.213   6.059   4.549
 8561WAT  OW   34241   5.742   4.830   4.966
 8561WAT  HW1  34242   5.820   4.795   4.924
 8561WAT  HW2  34243   5.673   4.822   4.900
 8561WAT  MW   34244   5.743   4.825   4.952
 8562WAT  OW   34245   5.845   2.125   1.088
 8562WAT  HW1  34246   5.916   2.117   1.025
 8562WAT  HW2  34247   5.830   2.219   1.096
 8562WAT  MW   34248   5.852   2.136   1.081
 8563WAT  OW   34249   3.426   5.107   6.428
 8563WAT  HW1  34250   3.477   5.027   6.418
 8563WAT  HW2  34251   3.357   5.100   6.362
 8563WAT  MW   34252   3.423   5.096   6.418
 8564WAT  OW   34253   5.275   4.328   0.008
 8564WAT  HW1  34254   5.336   4.372   0.068
 8564WAT  HW2  34255   5.289   4.371  -0.076
 8564WAT  MW   34256   5.285   4.339   0.005
 8565WAT  OW   34257   3.941   0.524   4.470
 8565WAT  HW1  34258   3.853   0.486   4.473
 8565WAT  HW2  34259   3.983   0.495   4.551
 8565WAT  MW   34260   3.935   0.516   4.481
 8566WAT  OW   34261   5.232   4.297   1.225
 8566WAT  HW1  34262   5.286   4.372   1.198
 8566WAT  HW2  34263   5.186   4.327   1.303
 8566WAT  MW   34264   5.233   4.311   1.231
 8567WAT  OW   34265   6.081   3.591   0.214
 8567WAT  HW1  34266   6.095   3.686   0.208
 8567WAT  HW2  34267   6.117   3.567   0.299
 8567WAT  MW   34268   6.088   3.601   0.225
 8568WAT  OW   34269   5.937   5.440   5.916
 8568WAT  HW1  34270   6.027   5.424   5.946
 8568WAT  HW2  34271   5.886   5.445   5.997
 8568WAT  MW   34272   5.942   5.439   5.931
 8569WAT  OW   34273   0.824   4.368   1.391
 8569WAT  HW1  34274   0.825   4.448   1.337
 8569WAT  HW2  34275   0.740   4.370   1.436
 8569WAT  MW   34276   0.813   4.379   1.389
 8570WAT  OW   34277   1.652   6.562   4.007
 8570WAT  HW1  34278   1.628   6.553   4.099
 8570WAT  HW2  34279   1.577   6.606   3.966
 8570WAT  MW   34280   1.639   6.567   4.013
 8571WAT  OW   34281   6.355   2.546   1.447
 8571WAT  HW1  34282   6.325   2.471   1.498
 8571WAT  HW2  34283   6.448   2.552   1.466
 8571WAT  MW   34284   6.363   2.537   1.457
 8572WAT  OW   34285   0.714   4.039   1.256
 8572WAT  HW1  34286   0.735   4.109   1.194
 8572WAT  HW2  34287   0.664   3.976   1.204
 8572WAT  MW   34288   0.710   4.040   1.241
 8573WAT  OW   34289   4.769   3.930   6.518
 8573WAT  HW1  34290   4.696   3.874   6.489
 8573WAT  HW2  34291   4.847   3.875   6.507
 8573WAT  MW   34292   4.770   3.915   6.513
 8574WAT  OW   34293   2.566   5.011   1.580
 8574WAT  HW1  34294   2.636   5.038   1.639
 8574WAT  HW2  34295   2.513   5.090   1.570
 8574WAT  MW   34296   2.568   5.025   1.586
 8575WAT  OW   34297   0.576   3.176   1.168
 8575WAT  HW1  34298   0.565   3.093   1.213
 8575WAT  HW2  34299   0.564   3.156   1.075
 8575WAT  MW   34300   0.573   3.163   1.162
 8576WAT  OW   34301   1.480   4.527   5.819
 8576WAT  HW1  34302   1.438   4.595   5.872
 8576WAT  HW2  34303   1.446   4.543   5.730
 8576WAT  MW   34304   1.470   4.538   5.814
 8577WAT  OW   34305   6.071   2.387   4.659
 8577WAT  HW1  34306   6.029   2.473   4.653
 8577WAT  HW2  34307   6.002   2.329   4.693
 8577WAT  MW   34308   6.056   2.391   4.663
 8578WAT  OW   34309   5.581   5.516   0.662
 8578WAT  HW1  34310   5.646   5.512   0.732
 8578WAT  HW2  34311   5.535   5.432   0.666
 8578WAT  MW   34312   5.583   5.505   0.671
 8579WAT  OW   34313   1.767   3.450   2.165
 8579WAT  HW1  34314   1.721   3.500   2.233
 8579WAT  HW2  34315   1.837   3.404   2.212
 8579WAT  MW   34316   1.770   3.450   2.180
 8580WAT  OW   34317   4.933   3.699   1.125
 8580WAT  HW1  34318   4.873   3.662   1.190
 8580WAT  HW2  34319   4.941   3.791   1.149
 8580WAT  MW   34320   4.926   3.706   1.136
 8581WAT  OW   34321   4.104   1.214   6.134
 8581WAT  HW1  34322   4.021   1.177   6.164
 8581WAT  HW2  34323   4.086   1.308   6.125
 8581WAT  MW   34324   4.090   1.221   6.137
 8582WAT  OW   34325   4.452   2.670   2.828
 8582WAT  HW1  34326   4.368   2.693   2.868
 8582WAT  HW2  34327   4.517   2.694   2.893
 8582WAT  MW   34328   4.450   2.676   2.842
 8583WAT  OW   34329   0.618   4.520   1.518
 8583WAT  HW1  34330   0.656   4.528   1.606
 8583WAT  HW2  34331   0.592   4.610   1.496
 8583WAT  MW   34332   0.620   4.533   1.527
 8584WAT  OW   34333   2.628   6.127   1.430
 8584WAT  HW1  34334   2.632   6.045   1.383
 8584WAT  HW2  34335   2.573   6.184   1.375
 8584WAT  MW   34336   2.621   6.124   1.417
 8585WAT  OW   34337   5.304   5.044   0.793
 8585WAT  HW1  34338   5.349   5.128   0.778
 8585WAT  HW2  34339   5.367   4.978   0.767
 8585WAT  MW   34340   5.318   5.047   0.787
 8586WAT  OW   34341   2.982   4.452   1.977
 8586WAT  HW1  34342   2.914   4.512   1.946
 8586WAT  HW2  34343   2.936   4.369   1.991
 8586WAT  MW   34344   2.967   4.449   1.975
 8587WAT  OW   34345   1.300   0.500   1.247
 8587WAT  HW1  34346   1.323   0.472   1.335
 8587WAT  HW2  34347   1.381   0.540   1.213
 8587WAT  MW   34348   1.314   0.501   1.254
 8588WAT  OW   34349   5.004   3.316   3.638
 8588WAT  HW1  34350   5.061   3.313   3.561
 8588WAT  HW2  34351   5.002   3.409   3.662
 8588WAT  MW   34352   5.011   3.328   3.631
 8589WAT  OW   34353   4.181   2.371   4.511
 8589WAT  HW1  34354   4.236   2.294   4.525
 8589WAT  HW2  34355   4.201   2.429   4.584
 8589WAT  MW   34356   4.191   2.369   4.523
 8590WAT  OW   34357   5.419   4.775   2.656
 8590WAT  HW1  34358   5.510   4.793   2.681
 8590WAT  HW2  34359   5.367   4.834   2.710
 8590WAT  MW   34360   5.424   4.785   2.667
 8591WAT  OW   34361   1.482   3.164   0.239
 8591WAT  HW1  34362   1.414   3.119   0.289
 8591WAT  HW2  34363   1.486   3.117   0.156
 8591WAT  MW   34364   1.474   3.152   0.234
 8592WAT  OW   34365   1.446   1.765   1.170
 8592WAT  HW1  34366   1.457   1.836   1.106
 8592WAT  HW2  34367   1.420   1.690   1.117
 8592WAT  MW   34368   1.444   1.765   1.154
 8593WAT  OW   34369   6.617   0.948   3.224
 8593WAT  HW1  34370   6.594   1.010   3.155
 8593WAT  HW2  34371   6.616   1.000   3.304
 8593WAT  MW   34372   6.613   0.963   3.225
 8594WAT  OW   34373   2.101   3.210   6.662
 8594WAT  HW1  34374   2.084   3.227   6.569
 8594WAT  HW2  34375   2.071   3.120   6.675
 8594WAT  MW   34376   2.094   3.200   6.651
 8595WAT  OW   34377   4.428   5.423   4.443
 8595WAT  HW1  34378   4.343   5.464   4.427
 8595WAT  HW2  34379   4.488   5.497   4.451
 8595WAT  MW   34380   4.425   5.438   4.442
 8596WAT  OW   34381   2.189   4.518   1.494
 8596WAT  HW1  34382   2.142   4.455   1.549
 8596WAT  HW2  34383   2.128   4.538   1.423
 8596WAT  MW   34384   2.175   4.512   1.492
 8597WAT  OW   34385   5.784   5.615   2.811
 8597WAT  HW1  34386   5.741   5.542   2.855
 8597WAT  HW2  34387   5.872   5.582   2.790
 8597WAT  MW   34388   5.790   5.601   2.814
 8598WAT  OW   34389   1.166   0.997   5.421
 8598WAT  HW1  34390   1.168   0.995   5.325
 8598WAT  HW2  34391   1.103   1.066   5.442
 8598WAT  MW   34392   1.158   1.006   5.411
 8599WAT  OW   34393   2.166   0.493   1.019
 8599WAT  HW1  34394   2.260   0.499   1.033
 8599WAT  HW2  34395   2.155   0.414   0.966
 8599WAT  MW   34396   2.177   0.484   1.014
 8600WAT  OW   34397   1.533   4.152   5.347
 8600WAT  HW1  34398   1.488   4.158   5.431
 8600WAT  HW2  34399   1.610   4.207   5.356
 8600WAT  MW   34400   1.537   4.160   5.359
 8601WAT  OW   34401   5.870   2.446   3.575
 8601WAT  HW1  34402   5.776   2.427   3.574
 8601WAT  HW2  34403   5.912   2.362   3.588
 8601WAT  MW   34404   5.863   2.433   3.577
 8602WAT  OW   34405   1.825   1.265   2.646
 8602WAT  HW1  34406   1.758   1.202   2.620
 8602WAT  HW2  34407   1.794   1.299   2.730
 8602WAT  MW   34408   1.812   1.261   2.654
 8603WAT  OW   34409   2.246   3.077   1.741
 8603WAT  HW1  34410   2.261   2.987   1.714
 8603WAT  HW2  34411   2.168   3.105   1.693
 8603WAT  MW   34412   2.238   3.069   1.731
 8604WAT  OW   34413   2.161   3.107   4.396
 8604WAT  HW1  34414   2.147   3.012   4.389
 8604WAT  HW2  34415   2.187   3.121   4.487
 8604WAT  MW   34416   2.162   3.096   4.407
 8605WAT  OW   34417   0.608   2.563   1.284
 8605WAT  HW1  34418   0.696   2.597   1.298
 8605WAT  HW2  34419   0.564   2.576   1.368
 8605WAT  MW   34420   0.614   2.569   1.297
 8606WAT  OW   34421   1.013   3.420   6.357
 8606WAT  HW1  34422   1.098   3.432   6.400
 8606WAT  HW2  34423   1.029   3.445   6.266
 8606WAT  MW   34424   1.026   3.425   6.350
 8607WAT  OW   34425   5.511   6.448   2.961
 8607WAT  HW1  34426   5.526   6.495   3.043
 8607WAT  HW2  34427   5.452   6.504   2.911
 8607WAT  MW   34428   5.505   6.462   2.965
 8608WAT  OW   34429   2.818   0.199   2.172
 8608WAT  HW1  34430   2.770   0.126   2.131
 8608WAT  HW2  34431   2.908   0.167   2.177
 8608WAT  MW   34432   2.824   0.185   2.167
 8609WAT  OW   34433   2.411   1.353   4.756
 8609WAT  HW1  34434   2.382   1.428   4.703
 8609WAT  HW2  34435   2.470   1.304   4.699
 8609WAT  MW   34436   2.415   1.357   4.741
 8610WAT  OW   34437   6.195   5.703   5.235
 8610WAT  HW1  34438   6.117   5.659   5.202
 8610WAT  HW2  34439   6.163   5.763   5.303
 8610WAT  MW   34440   6.181   5.705   5.240
 8611WAT  OW   34441   2.698   5.142   4.689
 8611WAT  HW1  34442   2.756   5.069   4.711
 8611WAT  HW2  34443   2.636   5.145   4.762
 8611WAT  MW   34444   2.697   5.133   4.702
 8612WAT  OW   34445   2.278   0.949   2.744
 8612WAT  HW1  34446   2.349   0.946   2.808
 8612WAT  HW2  34447   2.275   0.861   2.707
 8612WAT  MW   34448   2.287   0.937   2.747
 8613WAT  OW   34449   5.833   2.936   0.067
 8613WAT  HW1  34450   5.855   2.847   0.094
 8613WAT  HW2  34451   5.917   2.980   0.059
 8613WAT  MW   34452   5.847   2.930   0.070
 8614WAT  OW   34453   3.889   0.708   0.773
 8614WAT  HW1  34454   3.807   0.668   0.801
 8614WAT  HW2  34455   3.946   0.702   0.850
 8614WAT  MW   34456   3.886   0.702   0.787
 8615WAT  OW   34457   0.530   0.983   0.283
 8615WAT  HW1  34458   0.615   0.964   0.325
 8615WAT  HW2  34459   0.465   0.951   0.346
 8615WAT  MW   34460   0.533   0.976   0.297
 8616WAT  OW   34461   4.104   4.972   2.235
 8616WAT  HW1  34462   4.109   5.033   2.161
 8616WAT  HW2  34463   4.176   4.911   2.222
 8616WAT  MW   34464   4.114   4.972   2.224
 8617WAT  OW   34465   2.017   2.832   3.663
 8617WAT  HW1  34466   1.927   2.802   3.651
 8617WAT  HW2  34467   2.034   2.820   3.756
 8617WAT  MW   34468   2.007   2.826   3.674
 8618WAT  OW   34469   3.207   4.561   4.559
 8618WAT  HW1  34470   3.156   4.527   4.486
 8618WAT  HW2  34471   3.165   4.644   4.581
 8618WAT  MW   34472   3.194   4.567   4.553
 8619WAT  OW   34473   3.967   6.671   1.637
 8619WAT  HW1  34474   3.999   6.723   1.710
 8619WAT  HW2  34475   3.984   6.725   1.560
 8619WAT  MW   34476   3.973   6.685   1.636
 8620WAT  OW   34477   3.612   3.356   0.687
 8620WAT  HW1  34478   3.631   3.288   0.622
 8620WAT  HW2  34479   3.684   3.418   0.679
 8620WAT  MW   34480   3.624   3.355   0.677
 8621WAT  OW   34481   1.093   4.517   0.277
 8621WAT  HW1  34482   1.117   4.609   0.287
 8621WAT  HW2  34483   1.024   4.517   0.210
 8621WAT  MW   34484   1.087   4.529   0.269
 8622WAT  OW   34485   4.839   2.960   6.226
 8622WAT  HW1  34486   4.931   2.948   6.250
 8622WAT  HW2  34487   4.803   2.871   6.223
 8622WAT  MW   34488   4.847   2.947   6.229
 8623WAT  OW   34489   4.275   0.632   0.622
 8623WAT  HW1  34490   4.278   0.625   0.526
 8623WAT  HW2  34491   4.279   0.726   0.638
 8623WAT  MW   34492   4.276   0.644   0.611
 8624WAT  OW   34493   2.173   4.715   0.837
 8624WAT  HW1  34494   2.156   4.766   0.916
 8624WAT  HW2  34495   2.114   4.750   0.771
 8624WAT  MW   34496   2.163   4.726   0.839
 8625WAT  OW   34497   5.814   1.803   2.105
 8625WAT  HW1  34498   5.766   1.852   2.038
 8625WAT  HW2  34499   5.809   1.712   2.077
 8625WAT  MW   34500   5.807   1.797   2.093
 8626WAT  OW   34501   6.118   5.684   4.083
 8626WAT  HW1  34502   6.091   5.712   4.171
 8626WAT  HW2  34503   6.122   5.765   4.032
 8626WAT  MW   34504   6.115   5.698   4.088
 8627WAT  OW   34505   0.393   6.660   0.392
 8627WAT  HW1  34506   0.471   6.698   0.352
 8627WAT  HW2  34507   0.320   6.704   0.350
 8627WAT  MW   34508   0.394   6.671   0.381
 8628WAT  OW   34509   4.376   3.130   4.634
 8628WAT  HW1  34510   4.409   3.081   4.559
 8628WAT  HW2  34511   4.341   3.064   4.692
 8628WAT  MW   34512   4.376   3.115   4.631
 8629WAT  OW   34513   0.094   6.692   0.884
 8629WAT  HW1  34514   0.172   6.666   0.933
 8629WAT  HW2  34515   0.124   6.700   0.794
 8629WAT  MW   34516   0.108   6.690   0.879
 8630WAT  OW   34517   2.401   1.342   3.600
 8630WAT  HW1  34518   2.385   1.285   3.525
 8630WAT  HW2  34519   2.411   1.429   3.562
 8630WAT  MW   34520   2.400   1.346   3.585
 8631WAT  OW   34521   6.479   3.295   3.885
 8631WAT  HW1  34522   6.475   3.382   3.925
 8631WAT  HW2  34523   6.459   3.235   3.956
 8631WAT  MW   34524   6.476   3.299   3.900
 8632WAT  OW   34525   4.470   5.400   0.399
 8632WAT  HW1  34526   4.508   5.488   0.407
 8632WAT  HW2  34527   4.482   5.378   0.306
 8632WAT  MW   34528   4.477   5.409   0.388
 8633WAT  OW   34529   3.259   1.087   0.875
 8633WAT  HW1  34530   3.210   1.124   0.949
 8633WAT  HW2  34531   3.191   1.062   0.812
 8633WAT  MW   34532   3.243   1.088   0.877
 8634WAT  OW   34533   6.144   5.170   6.376
 8634WAT  HW1  34534   6.137   5.141   6.467
 8634WAT  HW2  34535   6.055   5.160   6.341
 8634WAT  MW   34536   6.131   5.165   6.384
 8635WAT  OW   34537   5.082   1.944   3.828
 8635WAT  HW1  34538   5.169   1.906   3.817
 8635WAT  HW2  34539   5.097   2.023   3.880
 8635WAT  MW   34540   5.096   1.949   3.834
 8636WAT  OW   34541   4.761   2.832   2.274
 8636WAT  HW1  34542   4.826   2.858   2.209
 8636WAT  HW2  34543   4.807   2.770   2.330
 8636WAT  MW   34544   4.776   2.827   2.273
 8637WAT  OW   34545   6.316   6.590   6.062
 8637WAT  HW1  34546   6.283   6.505   6.033
 8637WAT  HW2  34547   6.303   6.589   6.157
 8637WAT  MW   34548   6.310   6.579   6.071
 8638WAT  OW   34549   1.626   0.671   2.757
 8638WAT  HW1  34550   1.619   0.725   2.678
 8638WAT  HW2  34551   1.542   0.625   2.762
 8638WAT  MW   34552   1.614   0.672   2.747
 8639WAT  OW   34553   2.670   5.126   5.513
 8639WAT  HW1  34554   2.749   5.070   5.514
 8639WAT  HW2  34555   2.607   5.076   5.462
 8639WAT  MW   34556   2.672   5.112   5.506
 8640WAT  OW   34557   5.258   5.679   2.450
 8640WAT  HW1  34558   5.171   5.712   2.425
 8640WAT  HW2  34559   5.305   5.672   2.367
 8640WAT  MW   34560   5.252   5.682   2.436
 8641WAT  OW   34561   6.184   5.890   3.929
 8641WAT  HW1  34562   6.135   5.967   3.957
 8641WAT  HW2  34563   6.275   5.912   3.946
 8641WAT  MW   34564   6.189   5.903   3.935
 8642WAT  OW   34565   0.285   6.510   2.652
 8642WAT  HW1  34566   0.257   6.578   2.713
 8642WAT  HW2  34567   0.235   6.433   2.676
 8642WAT  MW   34568   0.275   6.509   2.663
 8643WAT  OW   34569   5.671   3.124   2.724
 8643WAT  HW1  34570   5.621   3.085   2.653
 8643WAT  HW2  34571   5.720   3.195   2.682
 8643WAT  MW   34572   5.671   3.128   2.709
 8644WAT  OW   34573   5.207   2.120   6.358
 8644WAT  HW1  34574   5.160   2.159   6.432
 8644WAT  HW2  34575   5.194   2.026   6.367
 8644WAT  MW   34576   5.199   2.113   6.369
 8645WAT  OW   34577   5.354   2.695   5.416
 8645WAT  HW1  34578   5.403   2.694   5.498
 8645WAT  HW2  34579   5.420   2.680   5.348
 8645WAT  MW   34580   5.369   2.693   5.418
 8646WAT  OW   34581   0.098   3.709   2.400
 8646WAT  HW1  34582   0.016   3.721   2.352
 8646WAT  HW2  34583   0.076   3.650   2.472
 8646WAT  MW   34584   0.085   3.703   2.403
 8647WAT  OW   34585   6.235   2.717   2.388
 8647WAT  HW1  34586   6.209   2.632   2.425
 8647WAT  HW2  34587   6.153   2.759   2.365
 8647WAT  MW   34588   6.221   2.711   2.390
 8648WAT  OW   34589   0.778   3.172   5.650
 8648WAT  HW1  34590   0.781   3.076   5.653
 8648WAT  HW2  34591   0.801   3.193   5.559
 8648WAT  MW   34592   0.782   3.162   5.638
 8649WAT  OW   34593   2.226   3.552   1.225
 8649WAT  HW1  34594   2.247   3.526   1.315
 8649WAT  HW2  34595   2.293   3.617   1.202
 8649WAT  MW   34596   2.237   3.557   1.234
 8650WAT  OW   34597   0.302   2.326   2.705
 8650WAT  HW1  34598   0.335   2.370   2.627
 8650WAT  HW2  34599   0.215   2.294   2.681
 8650WAT  MW   34600   0.295   2.327   2.692
 8651WAT  OW   34601   5.930   5.323   3.016
 8651WAT  HW1  34602   5.984   5.402   3.009
 8651WAT  HW2  34603   5.945   5.277   2.933
 8651WAT  MW   34604   5.939   5.327   3.004
 8652WAT  OW   34605   0.019   2.006   0.643
 8652WAT  HW1  34606   0.109   1.979   0.623
 8652WAT  HW2  34607   0.004   1.975   0.732
 8652WAT  MW   34608   0.029   1.998   0.652
 8653WAT  OW   34609   6.633   6.612   0.522
 8653WAT  HW1  34610   6.566   6.631   0.588
 8653WAT  HW2  34611   6.585   6.595   0.442
 8653WAT  MW   34612   6.618   6.612   0.520
 8654WAT  OW   34613   0.398   4.313   2.639
 8654WAT  HW1  34614   0.325   4.375   2.645
 8654WAT  HW2  34615   0.360   4.235   2.600
 8654WAT  MW   34616   0.384   4.311   2.634
 8655WAT  OW   34617   5.229   0.841   3.520
 8655WAT  HW1  34618   5.267   0.928   3.531
 8655WAT  HW2  34619   5.303   0.781   3.529
 8655WAT  MW   34620   5.244   0.845   3.523
 8656WAT  OW   34621   6.033   0.169   0.751
 8656WAT  HW1  34622   6.081   0.176   0.669
 8656WAT  HW2  34623   6.075   0.232   0.809
 8656WAT  MW   34624   6.045   0.178   0.748
 8657WAT  OW   34625   0.804   1.398   2.679
 8657WAT  HW1  34626   0.883   1.447   2.703
 8657WAT  HW2  34627   0.796   1.410   2.585
 8657WAT  MW   34628   0.814   1.406   2.670
 8658WAT  OW   34629   3.968   0.128   2.574
 8658WAT  HW1  34630   4.063   0.142   2.574
 8658WAT  HW2  34631   3.931   0.215   2.583
 8658WAT  MW   34632   3.976   0.141   2.575
 8659WAT  OW   34633   1.507   3.280   4.683
 8659WAT  HW1  34634   1.523   3.259   4.775
 8659WAT  HW2  34635   1.419   3.316   4.682
 8659WAT  MW   34636   1.498   3.282   4.695
 8660WAT  OW   34637   5.183   3.804   3.182
 8660WAT  HW1  34638   5.237   3.875   3.147
 8660WAT  HW2  34639   5.185   3.817   3.277
 8660WAT  MW   34640   5.190   3.815   3.190
 8661WAT  OW   34641   2.862   1.884   4.116
 8661WAT  HW1  34642   2.820   1.967   4.140
 8661WAT  HW2  34643   2.909   1.903   4.035
 8661WAT  MW   34644   2.863   1.897   4.108
 8662WAT  OW   34645   0.199   4.247   6.314
 8662WAT  HW1  34646   0.139   4.211   6.249
 8662WAT  HW2  34647   0.153   4.238   6.397
 8662WAT  MW   34648   0.185   4.241   6.316
 8663WAT  OW   34649   0.673   5.775   0.423
 8663WAT  HW1  34650   0.720   5.858   0.420
 8663WAT  HW2  34651   0.652   5.756   0.332
 8663WAT  MW   34652   0.677   5.783   0.411
 8664WAT  OW   34653   0.809   5.914   5.589
 8664WAT  HW1  34654   0.883   5.861   5.618
 8664WAT  HW2  34655   0.809   5.989   5.648
 8664WAT  MW   34656   0.819   5.917   5.601
 8665WAT  OW   34657   5.771   5.353   1.574
 8665WAT  HW1  34658   5.847   5.303   1.606
 8665WAT  HW2  34659   5.695   5.305   1.607
 8665WAT  MW   34660   5.771   5.340   1.583
 8666WAT  OW   34661   2.102   2.613   3.872
 8666WAT  HW1  34662   2.150   2.617   3.789
 8666WAT  HW2  34663   2.096   2.704   3.901
 8666WAT  MW   34664   2.108   2.626   3.865
 8667WAT  OW   34665   4.905   2.349   5.966
 8667WAT  HW1  34666   4.963   2.293   5.913
 8667WAT  HW2  34667   4.902   2.307   6.052
 8667WAT  MW   34668   4.912   2.336   5.970
 8668WAT  OW   34669   5.238   0.438   3.660
 8668WAT  HW1  34670   5.237   0.440   3.756
 8668WAT  HW2  34671   5.291   0.362   3.639
 8668WAT  MW   34672   5.244   0.428   3.670
 8669WAT  OW   34673   5.488   3.929   4.303
 8669WAT  HW1  34674   5.549   3.997   4.274
 8669WAT  HW2  34675   5.540   3.848   4.298
 8669WAT  MW   34676   5.503   3.927   4.298
 8670WAT  OW   34677   6.246   3.337   4.388
 8670WAT  HW1  34678   6.169   3.280   4.392
 8670WAT  HW2  34679   6.214   3.423   4.416
 8670WAT  MW   34680   6.231   3.341   4.392
 8671WAT  OW   34681   6.353   4.922   0.646
 8671WAT  HW1  34682   6.372   4.862   0.719
 8671WAT  HW2  34683   6.400   4.884   0.572
 8671WAT  MW   34684   6.362   4.909   0.646
 8672WAT  OW   34685   1.311   4.595   4.879
 8672WAT  HW1  34686   1.335   4.575   4.970
 8672WAT  HW2  34687   1.341   4.684   4.865
 8672WAT  MW   34688   1.318   4.604   4.889
 8673WAT  OW   34689   4.996   6.456   5.788
 8673WAT  HW1  34690   5.062   6.421   5.729
 8673WAT  HW2  34691   4.967   6.380   5.839
 8673WAT  MW   34692   5.001   6.441   5.787
 8674WAT  OW   34693   1.197   5.928   3.198
 8674WAT  HW1  34694   1.264   5.871   3.161
 8674WAT  HW2  34695   1.152   5.875   3.263
 8674WAT  MW   34696   1.200   5.914   3.201
 8675WAT  OW   34697   0.818   0.772   4.226
 8675WAT  HW1  34698   0.772   0.844   4.182
 8675WAT  HW2  34699   0.788   0.777   4.317
 8675WAT  MW   34700   0.808   0.782   4.232
 8676WAT  OW   34701   1.566   3.093   1.755
 8676WAT  HW1  34702   1.659   3.114   1.764
 8676WAT  HW2  34703   1.560   3.044   1.674
 8676WAT  MW   34704   1.578   3.089   1.746
 8677WAT  OW   34705   4.256   2.140   1.444
 8677WAT  HW1  34706   4.340   2.148   1.398
 8677WAT  HW2  34707   4.197   2.199   1.397
 8677WAT  MW   34708   4.259   2.148   1.431
 8678WAT  OW   34709   2.933   5.035   0.239
 8678WAT  HW1  34710   2.909   5.014   0.149
 8678WAT  HW2  34711   2.891   5.119   0.256
 8678WAT  MW   34712   2.925   5.044   0.229
 8679WAT  OW   34713   3.717   5.205   6.222
 8679WAT  HW1  34714   3.622   5.214   6.220
 8679WAT  HW2  34715   3.748   5.254   6.146
 8679WAT  MW   34716   3.708   5.213   6.212
 8680WAT  OW   34717   6.331   4.497   0.829
 8680WAT  HW1  34718   6.354   4.427   0.890
 8680WAT  HW2  34719   6.398   4.564   0.844
 8680WAT  MW   34720   6.343   4.497   0.839
 8681WAT  OW   34721   1.014   2.023   4.457
 8681WAT  HW1  34722   0.940   2.058   4.506
 8681WAT  HW2  34723   1.008   2.066   4.371
 8681WAT  MW   34724   1.003   2.033   4.452
 8682WAT  OW   34725   3.113   3.104   1.306
 8682WAT  HW1  34726   3.117   3.099   1.401
 8682WAT  HW2  34727   3.124   3.013   1.277
 8682WAT  MW   34728   3.115   3.091   1.315
 8683WAT  OW   34729   1.501   5.174   5.659
 8683WAT  HW1  34730   1.456   5.127   5.589
 8683WAT  HW2  34731   1.473   5.265   5.649
 8683WAT  MW   34732   1.492   5.179   5.649
 8684WAT  OW   34733   1.211   4.764   6.619
 8684WAT  HW1  34734   1.214   4.787   6.526
 8684WAT  HW2  34735   1.301   4.774   6.649
 8684WAT  MW   34736   1.223   4.768   6.611
 8685WAT  OW   34737   5.347   0.518   4.502
 8685WAT  HW1  34738   5.374   0.427   4.516
 8685WAT  HW2  34739   5.259   0.510   4.464
 8685WAT  MW   34740   5.339   0.505   4.499
 8686WAT  OW   34741   6.147   0.806   1.231
 8686WAT  HW1  34742   6.239   0.785   1.243
 8686WAT  HW2  34743   6.147   0.886   1.179
 8686WAT  MW   34744   6.159   0.814   1.226
 8687WAT  OW   34745   3.199   4.264   1.939
 8687WAT  HW1  34746   3.263   4.280   1.869
 8687WAT  HW2  34747   3.141   4.340   1.935
 8687WAT  MW   34748   3.200   4.276   1.929
 8688WAT  OW   34749   1.245   2.604   1.805
 8688WAT  HW1  34750   1.250   2.565   1.718
 8688WAT  HW2  34751   1.154   2.635   1.812
 8688WAT  MW   34752   1.233   2.603   1.794
 8689WAT  OW   34753   1.049   1.040   1.874
 8689WAT  HW1  34754   0.982   1.012   1.812
 8689WAT  HW2  34755   1.121   0.979   1.860
 8689WAT  MW   34756   1.049   1.028   1.864
 8690WAT  OW   34757   2.086   1.207   6.328
 8690WAT  HW1  34758   2.066   1.142   6.395
 8690WAT  HW2  34759   2.028   1.281   6.346
 8690WAT  MW   34760   2.076   1.208   6.339
 8691WAT  OW   34761   5.516   2.711   2.514
 8691WAT  HW1  34762   5.483   2.644   2.575
 8691WAT  HW2  34763   5.608   2.689   2.502
 8691WAT  MW   34764   5.524   2.699   2.521
 8692WAT  OW   34765   4.416   5.477   2.325
 8692WAT  HW1  34766   4.426   5.437   2.412
 8692WAT  HW2  34767   4.365   5.556   2.341
 8692WAT  MW   34768   4.411   5.482   2.339
 8693WAT  OW   34769   2.325   2.161   4.924
 8693WAT  HW1  34770   2.266   2.109   4.869
 8693WAT  HW2  34771   2.366   2.098   4.982
 8693WAT  MW   34772   2.322   2.146   4.925
 8694WAT  OW   34773   6.092   4.001   0.449
 8694WAT  HW1  34774   6.133   3.917   0.470
 8694WAT  HW2  34775   6.164   4.054   0.413
 8694WAT  MW   34776   6.107   3.997   0.447
 8695WAT  OW   34777   0.387   6.224   3.760
 8695WAT  HW1  34778   0.354   6.171   3.688
 8695WAT  HW2  34779   0.447   6.167   3.807
 8695WAT  MW   34780   0.390   6.210   3.757
 8696WAT  OW   34781   0.472   5.908   3.106
 8696WAT  HW1  34782   0.418   5.892   3.029
 8696WAT  HW2  34783   0.557   5.935   3.071
 8696WAT  MW   34784   0.476   5.910   3.091
 8697WAT  OW   34785   0.256   4.508   0.902
 8697WAT  HW1  34786   0.254   4.436   0.839
 8697WAT  HW2  34787   0.165   4.519   0.929
 8697WAT  MW   34788   0.244   4.500   0.897
 8698WAT  OW   34789   4.514   4.890   4.829
 8698WAT  HW1  34790   4.447   4.830   4.796
 8698WAT  HW2  34791   4.537   4.943   4.752
 8698WAT  MW   34792   4.508   4.889   4.814
 8699WAT  OW   34793   0.582   2.490   4.767
 8699WAT  HW1  34794   0.522   2.415   4.761
 8699WAT  HW2  34795   0.649   2.473   4.701
 8699WAT  MW   34796   0.583   2.478   4.758
 8700WAT  OW   34797   1.176   0.702   6.057
 8700WAT  HW1  34798   1.099   0.647   6.074
 8700WAT  HW2  34799   1.156   0.785   6.100
 8700WAT  MW   34800   1.163   0.705   6.065
 8701WAT  OW   34801   5.674   2.310   1.670
 8701WAT  HW1  34802   5.726   2.350   1.600
 8701WAT  HW2  34803   5.718   2.339   1.751
 8701WAT  MW   34804   5.687   2.319   1.671
 8702WAT  OW   34805   2.704   4.316   5.277
 8702WAT  HW1  34806   2.675   4.248   5.338
 8702WAT  HW2  34807   2.626   4.337   5.225
 8702WAT  MW   34808   2.690   4.310   5.278
 8703WAT  OW   34809   6.403   1.149   6.622
 8703WAT  HW1  34810   6.442   1.063   6.630
 8703WAT  HW2  34811   6.471   1.210   6.651
 8703WAT  MW   34812   6.417   1.146   6.627
 8704WAT  OW   34813   0.718   2.839   0.935
 8704WAT  HW1  34814   0.784   2.775   0.908
 8704WAT  HW2  34815   0.713   2.901   0.863
 8704WAT  MW   34816   0.726   2.839   0.922
 8705WAT  OW   34817   2.794   5.597   4.190
 8705WAT  HW1  34818   2.727   5.617   4.125
 8705WAT  HW2  34819   2.754   5.620   4.274
 8705WAT  MW   34820   2.780   5.603   4.193
 8706WAT  OW   34821   4.958   2.747   3.514
 8706WAT  HW1  34822   5.005   2.830   3.514
 8706WAT  HW2  34823   4.934   2.733   3.606
 8706WAT  MW   34824   4.961   2.756   3.526
 8707WAT  OW   34825   6.329   5.254   2.294
 8707WAT  HW1  34826   6.381   5.204   2.357
 8707WAT  HW2  34827   6.376   5.245   2.211
 8707WAT  MW   34828   6.342   5.246   2.292
 8708WAT  OW   34829   1.765   2.618   2.172
 8708WAT  HW1  34830   1.746   2.700   2.217
 8708WAT  HW2  34831   1.729   2.550   2.228
 8708WAT  MW   34832   1.758   2.620   2.185
 8709WAT  OW   34833   5.467   1.378   6.374
 8709WAT  HW1  34834   5.510   1.451   6.329
 8709WAT  HW2  34835   5.505   1.379   6.462
 8709WAT  MW   34836   5.478   1.388   6.380
 8710WAT  OW   34837   1.679   5.149   4.260
 8710WAT  HW1  34838   1.664   5.062   4.297
 8710WAT  HW2  34839   1.628   5.150   4.179
 8710WAT  MW   34840   1.670   5.138   4.254
 8711WAT  OW   34841   4.845   4.621   0.042
 8711WAT  HW1  34842   4.772   4.600  -0.017
 8711WAT  HW2  34843   4.892   4.692  -0.003
 8711WAT  MW   34844   4.841   4.628   0.028
 8712WAT  OW   34845   5.292   1.131   5.129
 8712WAT  HW1  34846   5.214   1.126   5.073
 8712WAT  HW2  34847   5.314   1.224   5.131
 8712WAT  MW   34848   5.284   1.142   5.122
 8713WAT  OW   34849   4.320   0.151   1.761
 8713WAT  HW1  34850   4.310   0.183   1.671
 8713WAT  HW2  34851   4.374   0.073   1.753
 8713WAT  MW   34852   4.326   0.145   1.748
 8714WAT  OW   34853   5.082   0.081   2.871
 8714WAT  HW1  34854   5.007   0.088   2.931
 8714WAT  HW2  34855   5.143   0.148   2.901
 8714WAT  MW   34856   5.080   0.091   2.883
 8715WAT  OW   34857   3.380   0.598   1.553
 8715WAT  HW1  34858   3.419   0.548   1.481
 8715WAT  HW2  34859   3.445   0.593   1.623
 8715WAT  MW   34860   3.394   0.591   1.553
 8716WAT  OW   34861   2.339   6.570   3.476
 8716WAT  HW1  34862   2.421   6.539   3.438
 8716WAT  HW2  34863   2.365   6.613   3.557
 8716WAT  MW   34864   2.353   6.572   3.482
 8717WAT  OW   34865   1.095   4.499   2.392
 8717WAT  HW1  34866   1.114   4.405   2.393
 8717WAT  HW2  34867   1.052   4.514   2.308
 8717WAT  MW   34868   1.092   4.489   2.381
 8718WAT  OW   34869   6.656   3.107   4.467
 8718WAT  HW1  34870   6.683   3.175   4.528
 8718WAT  HW2  34871   6.560   3.115   4.465
 8718WAT  MW   34872   6.647   3.117   4.475
 8719WAT  OW   34873   5.049   2.717   1.247
 8719WAT  HW1  34874   5.111   2.646   1.265
 8719WAT  HW2  34875   5.037   2.760   1.332
 8719WAT  MW   34876   5.055   2.713   1.261
 8720WAT  OW   34877   3.930   4.762   4.394
 8720WAT  HW1  34878   3.866   4.832   4.406
 8720WAT  HW2  34879   3.991   4.773   4.467
 8720WAT  MW   34880   3.930   4.772   4.405
 8721WAT  OW   34881   1.947   2.412   1.417
 8721WAT  HW1  34882   1.852   2.423   1.407
 8721WAT  HW2  34883   1.958   2.320   1.441
 8721WAT  MW   34884   1.936   2.401   1.419
 8722WAT  OW   34885   5.082   0.571   6.169
 8722WAT  HW1  34886   5.044   0.658   6.157
 8722WAT  HW2  34887   5.051   0.520   6.095
 8722WAT  MW   34888   5.073   0.575   6.158
 8723WAT  OW   34889   5.888   3.830   3.095
 8723WAT  HW1  34890   5.834   3.751   3.105
 8723WAT  HW2  34891   5.969   3.810   3.142
 8723WAT  MW   34892   5.892   3.817   3.103
 8724WAT  OW   34893   2.815   2.176   0.597
 8724WAT  HW1  34894   2.721   2.174   0.612
 8724WAT  HW2  34895   2.835   2.089   0.561
 8724WAT  MW   34896   2.805   2.164   0.594
 8725WAT  OW   34897   4.668   2.721   1.013
 8725WAT  HW1  34898   4.642   2.739   0.923
 8725WAT  HW2  34899   4.673   2.625   1.017
 8725WAT  MW   34900   4.665   2.710   1.002
 8726WAT  OW   34901   1.245   4.639   0.793
 8726WAT  HW1  34902   1.252   4.733   0.809
 8726WAT  HW2  34903   1.288   4.598   0.868
 8726WAT  MW   34904   1.251   4.646   0.805
 8727WAT  OW   34905   6.456   0.102   6.331
 8727WAT  HW1  34906   6.512   0.025   6.327
 8727WAT  HW2  34907   6.454   0.136   6.241
 8727WAT  MW   34908   6.463   0.096   6.319
 8728WAT  OW   34909   1.732   0.854   1.677
 8728WAT  HW1  34910   1.653   0.876   1.628
 8728WAT  HW2  34911   1.788   0.809   1.614
 8728WAT  MW   34912   1.729   0.851   1.662
 8729WAT  OW   34913   0.824   2.531   1.705
 8729WAT  HW1  34914   0.890   2.600   1.701
 8729WAT  HW2  34915   0.819   2.496   1.616
 8729WAT  MW   34916   0.832   2.535   1.693
 8730WAT  OW   34917   4.998   2.560   6.181
 8730WAT  HW1  34918   4.916   2.610   6.184
 8730WAT  HW2  34919   5.027   2.568   6.090
 8730WAT  MW   34920   4.991   2.567   6.169
 8731WAT  OW   34921   5.133   4.187   1.592
 8731WAT  HW1  34922   5.114   4.159   1.681
 8731WAT  HW2  34923   5.228   4.175   1.583
 8731WAT  MW   34924   5.143   4.181   1.602
 8732WAT  OW   34925   3.535   6.099   2.520
 8732WAT  HW1  34926   3.598   6.163   2.552
 8732WAT  HW2  34927   3.553   6.020   2.570
 8732WAT  MW   34928   3.546   6.097   2.531
 8733WAT  OW   34929   3.053   1.053   0.678
 8733WAT  HW1  34930   3.025   0.999   0.604
 8733WAT  HW2  34931   2.972   1.074   0.725
 8733WAT  MW   34932   3.039   1.049   0.675
 8734WAT  OW   34933   4.573   4.582   5.164
 8734WAT  HW1  34934   4.587   4.564   5.257
 8734WAT  HW2  34935   4.554   4.497   5.126
 8734WAT  MW   34936   4.572   4.569   5.171
 8735WAT  OW   34937   5.728   2.562   0.580
 8735WAT  HW1  34938   5.695   2.526   0.662
 8735WAT  HW2  34939   5.660   2.543   0.515
 8735WAT  MW   34940   5.715   2.555   0.582
 8736WAT  OW   34941   3.769   3.705   4.139
 8736WAT  HW1  34942   3.683   3.694   4.100
 8736WAT  HW2  34943   3.755   3.690   4.233
 8736WAT  MW   34944   3.756   3.702   4.146
 8737WAT  OW   34945   5.727   4.181   2.313
 8737WAT  HW1  34946   5.653   4.210   2.366
 8737WAT  HW2  34947   5.700   4.095   2.280
 8737WAT  MW   34948   5.714   4.173   2.316
 8738WAT  OW   34949   3.431   5.624   3.779
 8738WAT  HW1  34950   3.449   5.717   3.773
 8738WAT  HW2  34951   3.358   5.609   3.719
 8738WAT  MW   34952   3.424   5.634   3.770
 8739WAT  OW   34953   1.328   0.862   0.389
 8739WAT  HW1  34954   1.301   0.815   0.310
 8739WAT  HW2  34955   1.423   0.860   0.387
 8739WAT  MW   34956   1.337   0.855   0.378
 8740WAT  OW   34957   1.243   4.400   0.084
 8740WAT  HW1  34958   1.199   4.444   0.157
 8740WAT  HW2  34959   1.270   4.315   0.121
 8740WAT  MW   34960   1.241   4.394   0.099
 8741WAT  OW   34961   1.529   6.420   6.464
 8741WAT  HW1  34962   1.556   6.510   6.446
 8741WAT  HW2  34963   1.555   6.406   6.555
 8741WAT  MW   34964   1.536   6.430   6.474
 8742WAT  OW   34965   0.276   0.494   0.562
 8742WAT  HW1  34966   0.290   0.414   0.612
 8742WAT  HW2  34967   0.180   0.503   0.558
 8742WAT  MW   34968   0.265   0.485   0.568
 8743WAT  OW   34969   3.137   0.630   4.063
 8743WAT  HW1  34970   3.203   0.579   4.111
 8743WAT  HW2  34971   3.067   0.644   4.126
 8743WAT  MW   34972   3.137   0.625   4.077
 8744WAT  OW   34973   0.868   6.302   3.235
 8744WAT  HW1  34974   0.916   6.374   3.277
 8744WAT  HW2  34975   0.932   6.232   3.227
 8744WAT  MW   34976   0.883   6.302   3.240
 8745WAT  OW   34977   3.153   4.729   3.049
 8745WAT  HW1  34978   3.131   4.733   2.956
 8745WAT  HW2  34979   3.143   4.637   3.073
 8745WAT  MW   34980   3.149   4.718   3.040
 8746WAT  OW   34981   5.042   5.854   1.103
 8746WAT  HW1  34982   5.022   5.766   1.072
 8746WAT  HW2  34983   5.057   5.905   1.024
 8746WAT  MW   34984   5.041   5.849   1.089
 8747WAT  OW   34985   6.299   4.073   0.098
 8747WAT  HW1  34986   6.292   4.126   0.019
 8747WAT  HW2  34987   6.240   3.999   0.083
 8747WAT  MW   34988   6.290   4.070   0.085
 8748WAT  OW   34989   6.597   6.106   5.070
 8748WAT  HW1  34990   6.588   6.016   5.100
 8748WAT  HW2  34991   6.678   6.137   5.110
 8748WAT  MW   34992   6.607   6.098   5.079
 8749WAT  OW   34993   4.609   4.952   5.227
 8749WAT  HW1  34994   4.640   4.893   5.158
 8749WAT  HW2  34995   4.666   5.028   5.221
 8749WAT  MW   34996   4.620   4.954   5.217
 8750WAT  OW   34997   2.195   3.987   2.309
 8750WAT  HW1  34998   2.243   3.988   2.392
 8750WAT  HW2  34999   2.255   4.026   2.246
 8750WAT  MW   35000   2.209   3.992   2.312
 8751WAT  OW   35001   1.949   5.978   0.746
 8751WAT  HW1  35002   2.044   5.983   0.760
 8751WAT  HW2  35003   1.940   5.930   0.663
 8751WAT  MW   35004   1.960   5.972   0.737
 8752WAT  OW   35005   6.342   1.185   0.475
 8752WAT  HW1  35006   6.291   1.248   0.425
 8752WAT  HW2  35007   6.383   1.237   0.545
 8752WAT  MW   35008   6.341   1.200   0.478
 8753WAT  OW   35009   6.524   5.139   3.236
 8753WAT  HW1  35010   6.429   5.135   3.245
 8753WAT  HW2  35011   6.540   5.215   3.181
 8753WAT  MW   35012   6.513   5.148   3.230
 8754WAT  OW   35013   5.396   5.838   0.942
 8754WAT  HW1  35014   5.353   5.765   0.987
 8754WAT  HW2  35015   5.419   5.802   0.856
 8754WAT  MW   35016   5.393   5.823   0.936
 8755WAT  OW   35017   0.759   4.658   2.581
 8755WAT  HW1  35018   0.672   4.642   2.544
 8755WAT  HW2  35019   0.809   4.579   2.562
 8755WAT  MW   35020   0.754   4.646   2.574
 8756WAT  OW   35021   4.597   6.489   4.057
 8756WAT  HW1  35022   4.520   6.510   4.111
 8756WAT  HW2  35023   4.560   6.465   3.972
 8756WAT  MW   35024   4.582   6.489   4.053
 8757WAT  OW   35025   1.965   6.380   4.719
 8757WAT  HW1  35026   1.937   6.450   4.778
 8757WAT  HW2  35027   1.980   6.423   4.635
 8757WAT  MW   35028   1.963   6.395   4.716
 8758WAT  OW   35029   0.111   6.002   4.844
 8758WAT  HW1  35030   0.131   5.970   4.932
 8758WAT  HW2  35031   0.099   6.096   4.854
 8758WAT  MW   35032   0.112   6.010   4.857
 8759WAT  OW   35033   5.509   5.122   4.472
 8759WAT  HW1  35034   5.579   5.168   4.518
 8759WAT  HW2  35035   5.453   5.192   4.439
 8759WAT  MW   35036   5.511   5.137   4.474
 8760WAT  OW   35037   4.841   0.075   0.569
 8760WAT  HW1  35038   4.905   0.063   0.639
 8760WAT  HW2  35039   4.888   0.125   0.502
 8760WAT  MW   35040   4.856   0.080   0.570
 8761WAT  OW   35041   4.695   2.941   1.888
 8761WAT  HW1  35042   4.687   3.025   1.932
 8761WAT  HW2  35043   4.777   2.904   1.921
 8761WAT  MW   35044   4.704   2.947   1.898
 8762WAT  OW   35045   2.831   0.517   5.246
 8762WAT  HW1  35046   2.809   0.516   5.339
 8762WAT  HW2  35047   2.748   0.506   5.200
 8762WAT  MW   35048   2.817   0.516   5.252
 8763WAT  OW   35049   5.308   1.205   0.398
 8763WAT  HW1  35050   5.257   1.130   0.428
 8763WAT  HW2  35051   5.242   1.272   0.377
 8763WAT  MW   35052   5.293   1.204   0.399
 8764WAT  OW   35053   0.546   4.605   3.576
 8764WAT  HW1  35054   0.564   4.648   3.660
 8764WAT  HW2  35055   0.610   4.534   3.571
 8764WAT  MW   35056   0.557   4.601   3.587
 8765WAT  OW   35057   3.109   4.780   5.103
 8765WAT  HW1  35058   3.146   4.833   5.174
 8765WAT  HW2  35059   3.040   4.834   5.066
 8765WAT  MW   35060   3.105   4.794   5.108
 8766WAT  OW   35061   1.339   1.987   2.911
 8766WAT  HW1  35062   1.269   2.047   2.883
 8766WAT  HW2  35063   1.357   2.013   3.001
 8766WAT  MW   35064   1.332   1.999   2.919
 8767WAT  OW   35065   3.506   2.609   2.483
 8767WAT  HW1  35066   3.496   2.595   2.389
 8767WAT  HW2  35067   3.592   2.649   2.493
 8767WAT  MW   35068   3.516   2.613   2.472
 8768WAT  OW   35069   5.534   5.509   4.944
 8768WAT  HW1  35070   5.586   5.589   4.957
 8768WAT  HW2  35071   5.594   5.449   4.900
 8768WAT  MW   35072   5.549   5.512   4.940
 8769WAT  OW   35073   1.403   3.522   1.725
 8769WAT  HW1  35074   1.474   3.487   1.779
 8769WAT  HW2  35075   1.331   3.460   1.737
 8769WAT  MW   35076   1.403   3.509   1.734
 8770WAT  OW   35077   6.379   0.845   6.401
 8770WAT  HW1  35078   6.314   0.914   6.389
 8770WAT  HW2  35079   6.420   0.864   6.485
 8770WAT  MW   35080   6.376   0.856   6.410
 8771WAT  OW   35081   0.724   5.208   3.468
 8771WAT  HW1  35082   0.724   5.210   3.564
 8771WAT  HW2  35083   0.678   5.287   3.442
 8771WAT  MW   35084   0.718   5.218   3.477
 8772WAT  OW   35085   4.738   4.482   2.778
 8772WAT  HW1  35086   4.678   4.446   2.712
 8772WAT  HW2  35087   4.760   4.569   2.746
 8772WAT  MW   35088   4.733   4.488   2.765
 8773WAT  OW   35089   0.939   5.216   2.398
 8773WAT  HW1  35090   0.878   5.241   2.329
 8773WAT  HW2  35091   0.984   5.297   2.421
 8773WAT  MW   35092   0.937   5.230   2.392
 8774WAT  OW   35093   4.985   0.361   2.409
 8774WAT  HW1  35094   5.080   0.349   2.420
 8774WAT  HW2  35095   4.971   0.352   2.315
 8774WAT  MW   35096   4.996   0.358   2.398
 8775WAT  OW   35097   0.436   0.148   1.425
 8775WAT  HW1  35098   0.507   0.085   1.432
 8775WAT  HW2  35099   0.433   0.191   1.511
 8775WAT  MW   35100   0.445   0.146   1.438
 8776WAT  OW   35101   1.140   0.595   4.652
 8776WAT  HW1  35102   1.155   0.535   4.725
 8776WAT  HW2  35103   1.149   0.682   4.689
 8776WAT  MW   35104   1.143   0.598   4.666
 8777WAT  OW   35105   5.061   2.263   0.677
 8777WAT  HW1  35106   4.990   2.199   0.682
 8777WAT  HW2  35107   5.038   2.329   0.743
 8777WAT  MW   35108   5.048   2.263   0.687
 8778WAT  OW   35109   5.250   4.214   2.071
 8778WAT  HW1  35110   5.295   4.252   1.996
 8778WAT  HW2  35111   5.157   4.222   2.050
 8778WAT  MW   35112   5.244   4.220   2.058
 8779WAT  OW   35113   6.105   3.332   1.278
 8779WAT  HW1  35114   6.011   3.318   1.262
 8779WAT  HW2  35115   6.131   3.396   1.213
 8779WAT  MW   35116   6.096   3.338   1.267
 8780WAT  OW   35117   6.106   1.980   4.469
 8780WAT  HW1  35118   6.160   1.901   4.478
 8780WAT  HW2  35119   6.088   1.987   4.375
 8780WAT  MW   35120   6.111   1.970   4.458
 8781WAT  OW   35121   0.276   1.726   4.258
 8781WAT  HW1  35122   0.358   1.775   4.249
 8781WAT  HW2  35123   0.302   1.646   4.305
 8781WAT  MW   35124   0.290   1.722   4.263
 8782WAT  OW   35125   2.562   0.192   5.090
 8782WAT  HW1  35126   2.499   0.203   5.019
 8782WAT  HW2  35127   2.647   0.212   5.050
 8782WAT  MW   35128   2.565   0.196   5.075
 8783WAT  OW   35129   0.827   1.771   6.452
 8783WAT  HW1  35130   0.888   1.711   6.409
 8783WAT  HW2  35131   0.859   1.858   6.429
 8783WAT  MW   35132   0.840   1.775   6.443
 8784WAT  OW   35133   3.296   1.137   4.411
 8784WAT  HW1  35134   3.237   1.062   4.413
 8784WAT  HW2  35135   3.381   1.101   4.387
 8784WAT  MW   35136   3.300   1.123   4.408
 8785WAT  OW   35137   2.062   6.046   1.139
 8785WAT  HW1  35138   2.119   6.101   1.192
 8785WAT  HW2  35139   2.077   6.075   1.049
 8785WAT  MW   35140   2.072   6.057   1.134
 8786WAT  OW   35141   2.578   4.619   1.565
 8786WAT  HW1  35142   2.536   4.538   1.536
 8786WAT  HW2  35143   2.656   4.626   1.510
 8786WAT  MW   35144   2.583   4.609   1.554
 8787WAT  OW   35145   6.107   3.496   3.969
 8787WAT  HW1  35146   6.101   3.584   4.004
 8787WAT  HW2  35147   6.200   3.481   3.956
 8787WAT  MW   35148   6.118   3.505   3.972
 8788WAT  OW   35149   2.254   5.334   3.524
 8788WAT  HW1  35150   2.309   5.269   3.481
 8788WAT  HW2  35151   2.230   5.293   3.608
 8788WAT  MW   35152   2.258   5.320   3.530
 8789WAT  OW   35153   3.409   6.614   4.868
 8789WAT  HW1  35154   3.372   6.582   4.786
 8789WAT  HW2  35155   3.336   6.656   4.913
 8789WAT  MW   35156   3.395   6.615   4.864
 8790WAT  OW   35157   3.401   0.125   2.478
 8790WAT  HW1  35158   3.475   0.131   2.538
 8790WAT  HW2  35159   3.390   0.031   2.463
 8790WAT  MW   35160   3.409   0.113   2.484
 8791WAT  OW   35161   0.367   4.856   5.362
 8791WAT  HW1  35162   0.314   4.921   5.408
 8791WAT  HW2  35163   0.440   4.906   5.325
 8791WAT  MW   35164   0.370   4.871   5.363
 8792WAT  OW   35165   1.809   6.187   5.780
 8792WAT  HW1  35166   1.818   6.100   5.819
 8792WAT  HW2  35167   1.836   6.175   5.689
 8792WAT  MW   35168   1.814   6.174   5.773
 8793WAT  OW   35169   3.943   4.787   0.327
 8793WAT  HW1  35170   3.929   4.776   0.233
 8793WAT  HW2  35171   3.939   4.699   0.362
 8793WAT  MW   35172   3.941   4.774   0.319
 8794WAT  OW   35173   5.466   6.609   3.188
 8794WAT  HW1  35174   5.503   6.683   3.140
 8794WAT  HW2  35175   5.513   6.608   3.271
 8794WAT  MW   35176   5.477   6.618   3.193
 8795WAT  OW   35177   0.936   0.351   4.197
 8795WAT  HW1  35178   0.859   0.354   4.141
 8795WAT  HW2  35179   0.984   0.431   4.178
 8795WAT  MW   35180   0.932   0.362   4.187
 8796WAT  OW   35181   5.163   1.904   1.741
 8796WAT  HW1  35182   5.250   1.878   1.711
 8796WAT  HW2  35183   5.144   1.984   1.692
 8796WAT  MW   35184   5.172   1.912   1.731
 8797WAT  OW   35185   5.694   1.622   2.722
 8797WAT  HW1  35186   5.605   1.619   2.685
 8797WAT  HW2  35187   5.716   1.529   2.736
 8797WAT  MW   35188   5.685   1.609   2.719
 8798WAT  OW   35189   2.229   4.924   1.519
 8798WAT  HW1  35190   2.233   5.017   1.542
 8798WAT  HW2  35191   2.312   4.907   1.474
 8798WAT  MW   35192   2.240   4.934   1.516
 8799WAT  OW   35193   5.818   3.691   0.928
 8799WAT  HW1  35194   5.822   3.595   0.927
 8799WAT  HW2  35195   5.816   3.716   0.836
 8799WAT  MW   35196   5.818   3.681   0.916
 8800WAT  OW   35197   5.868   2.826   1.675
 8800WAT  HW1  35198   5.927   2.767   1.722
 8800WAT  HW2  35199   5.899   2.914   1.697
 8800WAT  MW   35200   5.880   2.830   1.684
 8801WAT  OW   35201   2.839   3.087   0.603
 8801WAT  HW1  35202   2.796   3.002   0.599
 8801WAT  HW2  35203   2.866   3.105   0.513
 8801WAT  MW   35204   2.837   3.078   0.591
 8802WAT  OW   35205   0.336   2.157   2.117
 8802WAT  HW1  35206   0.335   2.062   2.128
 8802WAT  HW2  35207   0.277   2.190   2.184
 8802WAT  MW   35208   0.328   2.149   2.127
 8803WAT  OW   35209   5.985   3.186   0.605
 8803WAT  HW1  35210   6.036   3.169   0.684
 8803WAT  HW2  35211   5.901   3.142   0.620
 8803WAT  MW   35212   5.980   3.178   0.617
 8804WAT  OW   35213   0.717   0.023   0.525
 8804WAT  HW1  35214   0.725  -0.069   0.502
 8804WAT  HW2  35215   0.782   0.037   0.593
 8804WAT  MW   35216   0.726   0.012   0.531
 8805WAT  OW   35217   2.928   1.705   2.565
 8805WAT  HW1  35218   2.884   1.741   2.488
 8805WAT  HW2  35219   2.902   1.763   2.637
 8805WAT  MW   35220   2.919   1.717   2.564
 8806WAT  OW   35221   2.677   0.893   3.956
 8806WAT  HW1  35222   2.750   0.876   3.896
 8806WAT  HW2  35223   2.605   0.920   3.899
 8806WAT  MW   35224   2.677   0.894   3.941
 8807WAT  OW   35225   6.218   0.647   0.600
 8807WAT  HW1  35226   6.153   0.599   0.651
 8807WAT  HW2  35227   6.302   0.616   0.634
 8807WAT  MW   35228   6.221   0.637   0.611
 8808WAT  OW   35229   4.266   2.688   0.923
 8808WAT  HW1  35230   4.312   2.771   0.917
 8808WAT  HW2  35231   4.290   2.653   1.009
 8808WAT  MW   35232   4.275   2.694   0.933
 8809WAT  OW   35233   0.698   3.709   3.302
 8809WAT  HW1  35234   0.755   3.712   3.379
 8809WAT  HW2  35235   0.734   3.640   3.247
 8809WAT  MW   35236   0.710   3.701   3.305
 8810WAT  OW   35237   1.476   5.801   6.422
 8810WAT  HW1  35238   1.540   5.854   6.469
 8810WAT  HW2  35239   1.508   5.711   6.430
 8810WAT  MW   35240   1.488   5.796   6.429
 8811WAT  OW   35241   6.586   6.506   1.868
 8811WAT  HW1  35242   6.498   6.497   1.905
 8811WAT  HW2  35243   6.644   6.493   1.943
 8811WAT  MW   35244   6.582   6.503   1.883
 8812WAT  OW   35245   0.012   5.498   4.363
 8812WAT  HW1  35246   0.096   5.460   4.336
 8812WAT  HW2  35247  -0.026   5.532   4.283
 8812WAT  MW   35248   0.018   5.498   4.349
 8813WAT  OW   35249   1.871   6.020   6.100
 8813WAT  HW1  35250   1.845   5.991   6.012
 8813WAT  HW2  35251   1.854   5.944   6.156
 8813WAT  MW   35252   1.865   6.006   6.095
 8814WAT  OW   35253   5.620   0.034   4.536
 8814WAT  HW1  35254   5.596  -0.006   4.620
 8814WAT  HW2  35255   5.561   0.109   4.528
 8814WAT  MW   35256   5.609   0.038   4.546
 8815WAT  OW   35257   2.206   0.367   2.499
 8815WAT  HW1  35258   2.231   0.450   2.539
 8815WAT  HW2  35259   2.132   0.388   2.442
 8815WAT  MW   35260   2.199   0.381   2.497
 8816WAT  OW   35261   0.009   2.901   1.533
 8816WAT  HW1  35262   0.046   2.920   1.447
 8816WAT  HW2  35263  -0.018   2.809   1.529
 8816WAT  MW   35264   0.010   2.892   1.521
 8817WAT  OW   35265   2.219   6.245   1.805
 8817WAT  HW1  35266   2.297   6.270   1.756
 8817WAT  HW2  35267   2.231   6.152   1.823
 8817WAT  MW   35268   2.231   6.236   1.801
 8818WAT  OW   35269   3.059   5.361   0.037
 8818WAT  HW1  35270   3.087   5.355   0.129
 8818WAT  HW2  35271   3.080   5.450   0.012
 8818WAT  MW   35272   3.066   5.372   0.046
 8819WAT  OW   35273   3.344   3.895   5.958
 8819WAT  HW1  35274   3.419   3.882   6.017
 8819WAT  HW2  35275   3.355   3.985   5.926
 8819WAT  MW   35276   3.355   3.905   5.962
 8820WAT  OW   35277   1.983   6.548   1.933
 8820WAT  HW1  35278   1.986   6.454   1.915
 8820WAT  HW2  35279   2.061   6.564   1.987
 8820WAT  MW   35280   1.994   6.537   1.938
 8821WAT  OW   35281   2.354   5.247   0.419
 8821WAT  HW1  35282   2.444   5.240   0.451
 8821WAT  HW2  35283   2.301   5.201   0.484
 8821WAT  MW   35284   2.359   5.240   0.432
 8822WAT  OW   35285   3.047   5.991   3.076
 8822WAT  HW1  35286   2.963   5.962   3.110
 8822WAT  HW2  35287   3.111   5.934   3.118
 8822WAT  MW   35288   3.044   5.980   3.086
 8823WAT  OW   35289   0.188   5.705   1.088
 8823WAT  HW1  35290   0.236   5.729   1.167
 8823WAT  HW2  35291   0.232   5.626   1.055
 8823WAT  MW   35292   0.200   5.698   1.094
 8824WAT  OW   35293   1.123   6.557   0.556
 8824WAT  HW1  35294   1.136   6.647   0.524
 8824WAT  HW2  35295   1.198   6.509   0.522
 8824WAT  MW   35296   1.135   6.563   0.547
 8825WAT  OW   35297   1.740   1.399   3.732
 8825WAT  HW1  35298   1.762   1.492   3.727
 8825WAT  HW2  35299   1.644   1.397   3.735
 8825WAT  MW   35300   1.730   1.411   3.732
 8826WAT  OW   35301   6.336   1.388   3.895
 8826WAT  HW1  35302   6.328   1.483   3.884
 8826WAT  HW2  35303   6.263   1.351   3.845
 8826WAT  MW   35304   6.325   1.396   3.887
 8827WAT  OW   35305   0.210   4.841   5.115
 8827WAT  HW1  35306   0.248   4.840   5.203
 8827WAT  HW2  35307   0.254   4.914   5.071
 8827WAT  MW   35308   0.220   4.850   5.121
 8828WAT  OW   35309   4.187   6.531   0.400
 8828WAT  HW1  35310   4.141   6.611   0.375
 8828WAT  HW2  35311   4.257   6.523   0.336
 8828WAT  MW   35312   4.190   6.541   0.388
 8829WAT  OW   35313   5.337   1.934   4.481
 8829WAT  HW1  35314   5.351   1.845   4.448
 8829WAT  HW2  35315   5.266   1.925   4.545
 8829WAT  MW   35316   5.329   1.921   4.485
 8830WAT  OW   35317   4.140   6.399   2.168
 8830WAT  HW1  35318   4.188   6.481   2.158
 8830WAT  HW2  35319   4.209   6.332   2.170
 8830WAT  MW   35320   4.156   6.401   2.167
 8831WAT  OW   35321   0.743   0.626   0.942
 8831WAT  HW1  35322   0.772   0.635   1.033
 8831WAT  HW2  35323   0.758   0.711   0.903
 8831WAT  MW   35324   0.749   0.638   0.949
 8832WAT  OW   35325   4.794   0.929   4.180
 8832WAT  HW1  35326   4.812   0.914   4.273
 8832WAT  HW2  35327   4.711   0.978   4.180
 8832WAT  MW   35328   4.785   0.934   4.192
 8833WAT  OW   35329   4.437   3.804   0.533
 8833WAT  HW1  35330   4.455   3.854   0.453
 8833WAT  HW2  35331   4.413   3.870   0.598
 8833WAT  MW   35332   4.436   3.819   0.531
 8834WAT  OW   35333   0.747   4.125   0.723
 8834WAT  HW1  35334   0.718   4.039   0.753
 8834WAT  HW2  35335   0.796   4.106   0.643
 8834WAT  MW   35336   0.750   4.111   0.717
 8835WAT  OW   35337   1.595   3.490   4.479
 8835WAT  HW1  35338   1.546   3.541   4.415
 8835WAT  HW2  35339   1.529   3.438   4.524
 8835WAT  MW   35340   1.580   3.490   4.477
 8836WAT  OW   35341   5.229   3.862   0.649
 8836WAT  HW1  35342   5.284   3.871   0.572
 8836WAT  HW2  35343   5.251   3.937   0.704
 8836WAT  MW   35344   5.239   3.873   0.646
 8837WAT  OW   35345   3.676   6.554   4.817
 8837WAT  HW1  35346   3.720   6.610   4.881
 8837WAT  HW2  35347   3.585   6.584   4.816
 8837WAT  MW   35348   3.670   6.566   4.826
 8838WAT  OW   35349   0.586   4.572   4.732
 8838WAT  HW1  35350   0.562   4.589   4.823
 8838WAT  HW2  35351   0.584   4.476   4.725
 8838WAT  MW   35352   0.582   4.561   4.743
 8839WAT  OW   35353   4.996   1.825   6.098
 8839WAT  HW1  35354   4.902   1.815   6.080
 8839WAT  HW2  35355   5.004   1.914   6.132
 8839WAT  MW   35356   4.984   1.836   6.100
 8840WAT  OW   35357   5.506   2.292   5.886
 8840WAT  HW1  35358   5.456   2.214   5.861
 8840WAT  HW2  35359   5.597   2.267   5.869
 8840WAT  MW   35360   5.511   2.278   5.880
 8841WAT  OW   35361   1.975   5.761   1.486
 8841WAT  HW1  35362   2.006   5.671   1.477
 8841WAT  HW2  35363   1.960   5.790   1.396
 8841WAT  MW   35364   1.977   5.753   1.473
 8842WAT  OW   35365   4.453   5.315   4.211
 8842WAT  HW1  35366   4.387   5.247   4.210
 8842WAT  HW2  35367   4.446   5.356   4.297
 8842WAT  MW   35368   4.444   5.312   4.222
 8843WAT  OW   35369   2.520   1.398   4.363
 8843WAT  HW1  35370   2.549   1.317   4.321
 8843WAT  HW2  35371   2.523   1.464   4.293
 8843WAT  MW   35372   2.524   1.396   4.348
 8844WAT  OW   35373   0.476   6.185   3.208
 8844WAT  HW1  35374   0.546   6.165   3.270
 8844WAT  HW2  35375   0.456   6.101   3.166
 8844WAT  MW   35376   0.483   6.172   3.210
 8845WAT  OW   35377   3.838   3.352   4.686
 8845WAT  HW1  35378   3.826   3.325   4.595
 8845WAT  HW2  35379   3.911   3.413   4.685
 8845WAT  MW   35380   3.846   3.357   4.674
 8846WAT  OW   35381   1.098   1.600   4.105
 8846WAT  HW1  35382   1.018   1.570   4.063
 8846WAT  HW2  35383   1.161   1.529   4.092
 8846WAT  MW   35384   1.096   1.587   4.098
 8847WAT  OW   35385   3.841   2.541   6.111
 8847WAT  HW1  35386   3.896   2.576   6.042
 8847WAT  HW2  35387   3.753   2.572   6.090
 8847WAT  MW   35388   3.837   2.550   6.099
 8848WAT  OW   35389   6.058   6.302   6.613
 8848WAT  HW1  35390   6.013   6.370   6.663
 8848WAT  HW2  35391   5.997   6.279   6.543
 8848WAT  MW   35392   6.044   6.308   6.610
 8849WAT  OW   35393   0.491   5.060   2.676
 8849WAT  HW1  35394   0.562   5.039   2.616
 8849WAT  HW2  35395   0.484   5.155   2.674
 8849WAT  MW   35396   0.499   5.070   2.668
 8850WAT  OW   35397   1.593   1.495   5.551
 8850WAT  HW1  35398   1.564   1.573   5.504
 8850WAT  HW2  35399   1.534   1.489   5.627
 8850WAT  MW   35400   1.581   1.505   5.555
 8851WAT  OW   35401   4.420   3.241   0.004
 8851WAT  HW1  35402   4.398   3.322   0.050
 8851WAT  HW2  35403   4.487   3.200   0.058
 8851WAT  MW   35404   4.426   3.246   0.017
 8852WAT  OW   35405   4.836   3.430   0.712
 8852WAT  HW1  35406   4.761   3.409   0.766
 8852WAT  HW2  35407   4.901   3.466   0.773
 8852WAT  MW   35408   4.835   3.432   0.727
 8853WAT  OW   35409   4.600   1.130   2.902
 8853WAT  HW1  35410   4.526   1.190   2.908
 8853WAT  HW2  35411   4.671   1.184   2.866
 8853WAT  MW   35412   4.600   1.145   2.898
 8854WAT  OW   35413   1.192   6.032   2.412
 8854WAT  HW1  35414   1.176   6.049   2.320
 8854WAT  HW2  35415   1.147   6.103   2.458
 8854WAT  MW   35416   1.184   6.044   2.406
 8855WAT  OW   35417   3.411   4.961   1.805
 8855WAT  HW1  35418   3.317   4.952   1.815
 8855WAT  HW2  35419   3.445   4.872   1.809
 8855WAT  MW   35420   3.403   4.948   1.807
 8856WAT  OW   35421   3.726   6.485   4.240
 8856WAT  HW1  35422   3.690   6.542   4.171
 8856WAT  HW2  35423   3.686   6.517   4.320
 8856WAT  MW   35424   3.716   6.497   4.241
 8857WAT  OW   35425   4.550   4.569   0.511
 8857WAT  HW1  35426   4.584   4.646   0.557
 8857WAT  HW2  35427   4.489   4.528   0.574
 8857WAT  MW   35428   4.546   4.574   0.526
 8858WAT  OW   35429   5.474   2.933   4.020
 8858WAT  HW1  35430   5.409   3.003   4.033
 8858WAT  HW2  35431   5.530   2.966   3.949
 8858WAT  MW   35432   5.473   2.947   4.012
 8859WAT  OW   35433   0.700   3.267   3.915
 8859WAT  HW1  35434   0.608   3.244   3.904
 8859WAT  HW2  35435   0.739   3.251   3.829
 8859WAT  MW   35436   0.693   3.262   3.902
 8860WAT  OW   35437   4.803   2.316   6.238
 8860WAT  HW1  35438   4.867   2.385   6.253
 8860WAT  HW2  35439   4.851   2.235   6.255
 8860WAT  MW   35440   4.818   2.314   6.243
 8861WAT  OW   35441   0.236   2.977   3.723
 8861WAT  HW1  35442   0.280   2.892   3.727
 8861WAT  HW2  35443   0.157   2.966   3.776
 8861WAT  MW   35444   0.231   2.964   3.730
 8862WAT  OW   35445   3.456   1.066   5.977
 8862WAT  HW1  35446   3.546   1.055   5.946
 8862WAT  HW2  35447   3.417   0.979   5.971
 8862WAT  MW   35448   3.463   1.053   5.972
 8863WAT  OW   35449   4.165   3.651   3.576
 8863WAT  HW1  35450   4.201   3.675   3.491
 8863WAT  HW2  35451   4.140   3.735   3.616
 8863WAT  MW   35452   4.166   3.665   3.570
 8864WAT  OW   35453   0.515   6.239   1.751
 8864WAT  HW1  35454   0.510   6.331   1.779
 8864WAT  HW2  35455   0.576   6.198   1.812
 8864WAT  MW   35456   0.522   6.246   1.763
 8865WAT  OW   35457   4.297   5.839   4.040
 8865WAT  HW1  35458   4.383   5.858   4.003
 8865WAT  HW2  35459   4.249   5.922   4.033
 8865WAT  MW   35460   4.302   5.852   4.034
 8866WAT  OW   35461   4.047   4.248   3.362
 8866WAT  HW1  35462   4.116   4.287   3.415
 8866WAT  HW2  35463   4.029   4.314   3.295
 8866WAT  MW   35464   4.054   4.262   3.360
 8867WAT  OW   35465   0.199   5.336   4.916
 8867WAT  HW1  35466   0.222   5.427   4.931
 8867WAT  HW2  35467   0.243   5.313   4.834
 8867WAT  MW   35468   0.208   5.345   4.907
 8868WAT  OW   35469   4.222   6.692   6.361
 8868WAT  HW1  35470   4.167   6.614   6.355
 8868WAT  HW2  35471   4.193   6.746   6.287
 8868WAT  MW   35472   4.211   6.689   6.350
 8869WAT  OW   35473   4.242   5.707   1.367
 8869WAT  HW1  35474   4.214   5.799   1.357
 8869WAT  HW2  35475   4.160   5.657   1.365
 8869WAT  MW   35476   4.227   5.713   1.365
 8870WAT  OW   35477   5.337   5.030   0.086
 8870WAT  HW1  35478   5.405   5.096   0.097
 8870WAT  HW2  35479   5.381   4.947   0.108
 8870WAT  MW   35480   5.352   5.028   0.090
 8871WAT  OW   35481   0.642   1.594   1.006
 8871WAT  HW1  35482   0.735   1.608   0.988
 8871WAT  HW2  35483   0.598   1.669   0.964
 8871WAT  MW   35484   0.649   1.606   0.998
 8872WAT  OW   35485   6.113   2.513   5.018
 8872WAT  HW1  35486   6.028   2.541   4.983
 8872WAT  HW2  35487   6.161   2.595   5.031
 8872WAT  MW   35488   6.108   2.528   5.015
 8873WAT  OW   35489   3.933   3.539   3.661
 8873WAT  HW1  35490   3.942   3.559   3.754
 8873WAT  HW2  35491   4.018   3.561   3.624
 8873WAT  MW   35492   3.945   3.544   3.668
 8874WAT  OW   35493   4.764   3.886   0.487
 8874WAT  HW1  35494   4.806   3.842   0.413
 8874WAT  HW2  35495   4.741   3.815   0.548
 8874WAT  MW   35496   4.767   3.871   0.485
 8875WAT  OW   35497   4.778   6.653   3.937
 8875WAT  HW1  35498   4.712   6.604   3.987
 8875WAT  HW2  35499   4.804   6.723   3.996
 8875WAT  MW   35500   4.772   6.656   3.952
 8876WAT  OW   35501   5.457   1.021   3.699
 8876WAT  HW1  35502   5.471   0.952   3.764
 8876WAT  HW2  35503   5.542   1.062   3.689
 8876WAT  MW   35504   5.470   1.017   3.706
 8877WAT  OW   35505   5.979   1.087   0.473
 8877WAT  HW1  35506   6.048   1.029   0.440
 8877WAT  HW2  35507   6.006   1.109   0.561
 8877WAT  MW   35508   5.991   1.082   0.480
 8878WAT  OW   35509   2.807   5.425   1.340
 8878WAT  HW1  35510   2.783   5.517   1.339
 8878WAT  HW2  35511   2.860   5.415   1.419
 8878WAT  MW   35512   2.811   5.436   1.351
 8879WAT  OW   35513   1.767   4.550   3.435
 8879WAT  HW1  35514   1.672   4.543   3.442
 8879WAT  HW2  35515   1.798   4.462   3.455
 8879WAT  MW   35516   1.758   4.537   3.438
 8880WAT  OW   35517   6.046   1.280   2.976
 8880WAT  HW1  35518   6.039   1.186   2.963
 8880WAT  HW2  35519   6.074   1.314   2.890
 8880WAT  MW   35520   6.049   1.272   2.963
 8881WAT  OW   35521   4.827   3.198   0.590
 8881WAT  HW1  35522   4.824   3.127   0.655
 8881WAT  HW2  35523   4.846   3.276   0.642
 8881WAT  MW   35524   4.829   3.199   0.606
 8882WAT  OW   35525   6.132   6.102   3.405
 8882WAT  HW1  35526   6.088   6.017   3.405
 8882WAT  HW2  35527   6.062   6.166   3.397
 8882WAT  MW   35528   6.117   6.099   3.404
 8883WAT  OW   35529   3.292   3.588   5.189
 8883WAT  HW1  35530   3.202   3.560   5.173
 8883WAT  HW2  35531   3.345   3.533   5.132
 8883WAT  MW   35532   3.287   3.577   5.180
 8884WAT  OW   35533   3.709   4.111   5.810
 8884WAT  HW1  35534   3.646   4.040   5.804
 8884WAT  HW2  35535   3.753   4.111   5.725
 8884WAT  MW   35536   3.707   4.102   5.798
 8885WAT  OW   35537   0.665   5.523   1.639
 8885WAT  HW1  35538   0.602   5.593   1.624
 8885WAT  HW2  35539   0.748   5.568   1.654
 8885WAT  MW   35540   0.668   5.538   1.639
 8886WAT  OW   35541   5.880   2.551   3.275
 8886WAT  HW1  35542   5.889   2.613   3.203
 8886WAT  HW2  35543   5.786   2.535   3.281
 8886WAT  MW   35544   5.869   2.557   3.267
 8887WAT  OW   35545   5.049   6.621   3.683
 8887WAT  HW1  35546   5.073   6.690   3.745
 8887WAT  HW2  35547   4.989   6.565   3.732
 8887WAT  MW   35548   5.044   6.622   3.698
 8888WAT  OW   35549   5.385   4.130   4.592
 8888WAT  HW1  35550   5.374   4.181   4.672
 8888WAT  HW2  35551   5.347   4.186   4.523
 8888WAT  MW   35552   5.378   4.144   4.593
 8889WAT  OW   35553   2.100   1.854   3.302
 8889WAT  HW1  35554   2.099   1.940   3.260
 8889WAT  HW2  35555   2.019   1.851   3.353
 8889WAT  MW   35556   2.089   1.865   3.303
 8890WAT  OW   35557   4.489   1.175   3.289
 8890WAT  HW1  35558   4.540   1.114   3.236
 8890WAT  HW2  35559   4.519   1.161   3.379
 8890WAT  MW   35560   4.500   1.165   3.294
 8891WAT  OW   35561   5.413   4.904   3.590
 8891WAT  HW1  35562   5.391   4.895   3.498
 8891WAT  HW2  35563   5.356   4.975   3.621
 8891WAT  MW   35564   5.402   4.912   3.582
 8892WAT  OW   35565   6.092   2.456   1.436
 8892WAT  HW1  35566   6.172   2.504   1.412
 8892WAT  HW2  35567   6.123   2.376   1.477
 8892WAT  MW   35568   6.107   2.452   1.438
 8893WAT  OW   35569   0.753   5.497   1.986
 8893WAT  HW1  35570   0.675   5.538   1.948
 8893WAT  HW2  35571   0.784   5.437   1.919
 8893WAT  MW   35572   0.747   5.495   1.972
 8894WAT  OW   35573   2.943   2.713   0.868
 8894WAT  HW1  35574   2.875   2.711   0.800
 8894WAT  HW2  35575   2.959   2.621   0.888
 8894WAT  MW   35576   2.936   2.701   0.861
 8895WAT  OW   35577   0.641   6.117   3.828
 8895WAT  HW1  35578   0.656   6.085   3.739
 8895WAT  HW2  35579   0.627   6.038   3.880
 8895WAT  MW   35580   0.641   6.102   3.823
 8896WAT  OW   35581   4.464   5.916   3.325
 8896WAT  HW1  35582   4.418   5.987   3.280
 8896WAT  HW2  35583   4.402   5.843   3.325
 8896WAT  MW   35584   4.450   5.916   3.319
 8897WAT  OW   35585   1.550   0.254   2.285
 8897WAT  HW1  35586   1.552   0.198   2.208
 8897WAT  HW2  35587   1.643   0.271   2.304
 8897WAT  MW   35588   1.563   0.249   2.278
 8898WAT  OW   35589   4.175   5.157   1.765
 8898WAT  HW1  35590   4.164   5.073   1.719
 8898WAT  HW2  35591   4.108   5.156   1.833
 8898WAT  MW   35592   4.164   5.146   1.768
 8899WAT  OW   35593   6.642   0.075   1.203
 8899WAT  HW1  35594   6.646  -0.011   1.163
 8899WAT  HW2  35595   6.732   0.093   1.232
 8899WAT  MW   35596   6.654   0.066   1.202
 8900WAT  OW   35597   5.964   1.690   6.504
 8900WAT  HW1  35598   5.871   1.697   6.528
 8900WAT  HW2  35599   5.981   1.768   6.451
 8900WAT  MW   35600   5.954   1.701   6.500
 8901WAT  OW   35601   5.010   3.806   4.239
 8901WAT  HW1  35602   5.093   3.801   4.191
 8901WAT  HW2  35603   4.962   3.877   4.196
 8901WAT  MW   35604   5.015   3.815   4.227
 8902WAT  OW   35605   5.093   2.227   5.810
 8902WAT  HW1  35606   5.150   2.189   5.876
 8902WAT  HW2  35607   5.134   2.206   5.727
 8902WAT  MW   35608   5.106   2.219   5.808
 8903WAT  OW   35609   3.296   5.689   1.770
 8903WAT  HW1  35610   3.285   5.665   1.862
 8903WAT  HW2  35611   3.349   5.769   1.772
 8903WAT  MW   35612   3.302   5.696   1.782
 8904WAT  OW   35613   0.029   0.749   4.096
 8904WAT  HW1  35614  -0.046   0.704   4.057
 8904WAT  HW2  35615  -0.007   0.795   4.172
 8904WAT  MW   35616   0.014   0.749   4.101
 8905WAT  OW   35617   3.381   1.457   3.865
 8905WAT  HW1  35618   3.322   1.530   3.884
 8905WAT  HW2  35619   3.468   1.496   3.865
 8905WAT  MW   35620   3.385   1.472   3.867
 8906WAT  OW   35621   5.675   4.447   0.975
 8906WAT  HW1  35622   5.591   4.477   1.009
 8906WAT  HW2  35623   5.656   4.366   0.929
 8906WAT  MW   35624   5.661   4.441   0.973
 8907WAT  OW   35625   0.059   0.701   6.617
 8907WAT  HW1  35626   0.146   0.683   6.652
 8907WAT  HW2  35627  -0.000   0.672   6.686
 8907WAT  MW   35628   0.063   0.695   6.630
 8908WAT  OW   35629   6.011   0.436   0.610
 8908WAT  HW1  35630   6.046   0.370   0.549
 8908WAT  HW2  35631   5.928   0.400   0.640
 8908WAT  MW   35632   6.005   0.423   0.606
 8909WAT  OW   35633   0.646   2.399   0.658
 8909WAT  HW1  35634   0.710   2.379   0.727
 8909WAT  HW2  35635   0.695   2.386   0.577
 8909WAT  MW   35636   0.661   2.395   0.657
 8910WAT  OW   35637   2.085   6.278   1.536
 8910WAT  HW1  35638   2.126   6.255   1.619
 8910WAT  HW2  35639   1.991   6.279   1.555
 8910WAT  MW   35640   2.078   6.275   1.550
 8911WAT  OW   35641   6.365   3.904   2.366
 8911WAT  HW1  35642   6.401   3.898   2.454
 8911WAT  HW2  35643   6.305   3.979   2.369
 8911WAT  MW   35644   6.362   3.913   2.378
 8912WAT  OW   35645   2.738   1.350   5.961
 8912WAT  HW1  35646   2.648   1.382   5.967
 8912WAT  HW2  35647   2.770   1.353   6.051
 8912WAT  MW   35648   2.730   1.355   5.974
 8913WAT  OW   35649   3.814   5.988   4.477
 8913WAT  HW1  35650   3.865   5.923   4.525
 8913WAT  HW2  35651   3.780   6.046   4.545
 8913WAT  MW   35652   3.816   5.987   4.492
 8914WAT  OW   35653   2.871   1.588   5.862
 8914WAT  HW1  35654   2.814   1.528   5.910
 8914WAT  HW2  35655   2.826   1.602   5.779
 8914WAT  MW   35656   2.858   1.582   5.857
 8915WAT  OW   35657   0.846   0.188   0.316
 8915WAT  HW1  35658   0.786   0.175   0.243
 8915WAT  HW2  35659   0.808   0.138   0.388
 8915WAT  MW   35660   0.833   0.180   0.316
 8916WAT  OW   35661   3.981   3.833   3.730
 8916WAT  HW1  35662   3.892   3.839   3.696
 8916WAT  HW2  35663   3.973   3.779   3.809
 8916WAT  MW   35664   3.968   3.826   3.736
 8917WAT  OW   35665   2.959   1.837   2.827
 8917WAT  HW1  35666   3.023   1.907   2.841
 8917WAT  HW2  35667   2.874   1.879   2.840
 8917WAT  MW   35668   2.956   1.852   2.830
 8918WAT  OW   35669   2.011   5.618   2.607
 8918WAT  HW1  35670   2.088   5.571   2.640
 8918WAT  HW2  35671   1.966   5.649   2.686
 8918WAT  MW   35672   2.015   5.616   2.622
 8919WAT  OW   35673   2.258   6.640   6.082
 8919WAT  HW1  35674   2.284   6.582   6.153
 8919WAT  HW2  35675   2.171   6.608   6.056
 8919WAT  MW   35676   2.250   6.628   6.088
 8920WAT  OW   35677   1.596   6.412   0.037
 8920WAT  HW1  35678   1.645   6.340   0.076
 8920WAT  HW2  35679   1.659   6.483   0.030
 8920WAT  MW   35680   1.611   6.412   0.041
 8921WAT  OW   35681   0.669   3.986   4.363
 8921WAT  HW1  35682   0.650   3.969   4.455
 8921WAT  HW2  35683   0.623   3.917   4.315
 8921WAT  MW   35684   0.660   3.974   4.369
 8922WAT  OW   35685   0.087   0.263   3.156
 8922WAT  HW1  35686   0.023   0.243   3.224
 8922WAT  HW2  35687   0.111   0.177   3.121
 8922WAT  MW   35688   0.082   0.249   3.160
 8923WAT  OW   35689   0.387   6.043   1.344
 8923WAT  HW1  35690   0.390   6.060   1.249
 8923WAT  HW2  35691   0.384   6.131   1.383
 8923WAT  MW   35692   0.387   6.057   1.336
 8924WAT  OW   35693   5.087   2.900   1.443
 8924WAT  HW1  35694   4.995   2.905   1.469
 8924WAT  HW2  35695   5.130   2.853   1.515
 8924WAT  MW   35696   5.081   2.894   1.456
 8925WAT  OW   35697   0.462   2.255   4.795
 8925WAT  HW1  35698   0.498   2.190   4.855
 8925WAT  HW2  35699   0.496   2.230   4.709
 8925WAT  MW   35700   0.471   2.243   4.791
 8926WAT  OW   35701   3.084   2.294   1.342
 8926WAT  HW1  35702   3.059   2.386   1.340
 8926WAT  HW2  35703   3.138   2.282   1.264
 8926WAT  MW   35704   3.088   2.305   1.331
 8927WAT  OW   35705   1.957   5.423   0.506
 8927WAT  HW1  35706   2.004   5.371   0.572
 8927WAT  HW2  35707   1.892   5.472   0.556
 8927WAT  MW   35708   1.955   5.423   0.522
 8928WAT  OW   35709   0.334   1.699   1.226
 8928WAT  HW1  35710   0.351   1.634   1.294
 8928WAT  HW2  35711   0.316   1.780   1.274
 8928WAT  MW   35712   0.334   1.701   1.241
 8929WAT  OW   35713   5.724   6.294   5.546
 8929WAT  HW1  35714   5.819   6.283   5.556
 8929WAT  HW2  35715   5.699   6.348   5.621
 8929WAT  MW   35716   5.733   6.300   5.558
 8930WAT  OW   35717   1.178   4.219   2.407
 8930WAT  HW1  35718   1.264   4.215   2.366
 8930WAT  HW2  35719   1.130   4.146   2.367
 8930WAT  MW   35720   1.183   4.209   2.396
 8931WAT  OW   35721   2.758   4.988   6.044
 8931WAT  HW1  35722   2.753   5.036   5.961
 8931WAT  HW2  35723   2.839   5.019   6.084
 8931WAT  MW   35724   2.768   4.999   6.038
 8932WAT  OW   35725   4.277   0.719   2.223
 8932WAT  HW1  35726   4.315   0.675   2.147
 8932WAT  HW2  35727   4.281   0.654   2.294
 8932WAT  MW   35728   4.282   0.705   2.223
 8933WAT  OW   35729   6.155   0.582   4.187
 8933WAT  HW1  35730   6.202   0.647   4.134
 8933WAT  HW2  35731   6.159   0.502   4.135
 8933WAT  MW   35732   6.162   0.580   4.173
 8934WAT  OW   35733   3.564   4.321   2.246
 8934WAT  HW1  35734   3.615   4.245   2.217
 8934WAT  HW2  35735   3.573   4.384   2.175
 8934WAT  MW   35736   3.572   4.319   2.233
 8935WAT  OW   35737   2.969   3.205   4.130
 8935WAT  HW1  35738   3.064   3.195   4.133
 8935WAT  HW2  35739   2.954   3.255   4.049
 8935WAT  MW   35740   2.980   3.210   4.120
 8936WAT  OW   35741   0.441   4.991   0.686
 8936WAT  HW1  35742   0.483   5.076   0.670
 8936WAT  HW2  35743   0.502   4.927   0.649
 8936WAT  MW   35744   0.455   4.994   0.679
 8937WAT  OW   35745   5.770   4.513   0.531
 8937WAT  HW1  35746   5.811   4.531   0.447
 8937WAT  HW2  35747   5.835   4.539   0.596
 8937WAT  MW   35748   5.784   4.518   0.529
 8938WAT  OW   35749   1.327   0.336   4.208
 8938WAT  HW1  35750   1.335   0.241   4.218
 8938WAT  HW2  35751   1.295   0.366   4.293
 8938WAT  MW   35752   1.324   0.327   4.220
 8939WAT  OW   35753   3.583   3.163   4.964
 8939WAT  HW1  35754   3.599   3.109   5.041
 8939WAT  HW2  35755   3.630   3.244   4.981
 8939WAT  MW   35756   3.591   3.167   4.976
 8940WAT  OW   35757   0.301   5.340   1.049
 8940WAT  HW1  35758   0.262   5.284   0.982
 8940WAT  HW2  35759   0.326   5.419   1.002
 8940WAT  MW   35760   0.299   5.343   1.034
 8941WAT  OW   35761   3.204   4.876   2.443
 8941WAT  HW1  35762   3.239   4.912   2.361
 8941WAT  HW2  35763   3.199   4.950   2.502
 8941WAT  MW   35764   3.208   4.890   2.440
 8942WAT  OW   35765   1.263   4.928   1.494
 8942WAT  HW1  35766   1.188   4.901   1.548
 8942WAT  HW2  35767   1.340   4.906   1.546
 8942WAT  MW   35768   1.263   4.921   1.508
 8943WAT  OW   35769   6.409   4.599   5.984
 8943WAT  HW1  35770   6.364   4.679   5.956
 8943WAT  HW2  35771   6.350   4.561   6.049
 8943WAT  MW   35772   6.395   4.604   5.989
 8944WAT  OW   35773   5.633   4.170   4.211
 8944WAT  HW1  35774   5.718   4.127   4.204
 8944WAT  HW2  35775   5.627   4.196   4.304
 8944WAT  MW   35776   5.643   4.168   4.223
 8945WAT  OW   35777   4.106   6.678   5.569
 8945WAT  HW1  35778   4.138   6.717   5.650
 8945WAT  HW2  35779   4.105   6.584   5.586
 8945WAT  MW   35780   4.110   6.671   5.582
 8946WAT  OW   35781   1.089   1.813   5.132
 8946WAT  HW1  35782   1.020   1.830   5.196
 8946WAT  HW2  35783   1.163   1.866   5.162
 8946WAT  MW   35784   1.089   1.822   5.145
 8947WAT  OW   35785   4.651   1.310   4.247
 8947WAT  HW1  35786   4.576   1.359   4.213
 8947WAT  HW2  35787   4.698   1.281   4.169
 8947WAT  MW   35788   4.647   1.313   4.232
 8948WAT  OW   35789   1.035   2.718   1.976
 8948WAT  HW1  35790   1.008   2.658   2.046
 8948WAT  HW2  35791   1.090   2.783   2.021
 8948WAT  MW   35792   1.039   2.719   1.992
 8949WAT  OW   35793   1.342   5.649   4.989
 8949WAT  HW1  35794   1.424   5.686   5.021
 8949WAT  HW2  35795   1.317   5.705   4.916
 8949WAT  MW   35796   1.350   5.661   4.984
 8950WAT  OW   35797   5.342   0.737   1.789
 8950WAT  HW1  35798   5.312   0.649   1.813
 8950WAT  HW2  35799   5.390   0.725   1.707
 8950WAT  MW   35800   5.345   0.724   1.781
 8951WAT  OW   35801   2.480   2.770   4.263
 8951WAT  HW1  35802   2.508   2.681   4.242
 8951WAT  HW2  35803   2.527   2.826   4.201
 8951WAT  MW   35804   2.490   2.766   4.252
 8952WAT  OW   35805   3.543   0.066   0.600
 8952WAT  HW1  35806   3.527  -0.002   0.535
 8952WAT  HW2  35807   3.599   0.130   0.556
 8952WAT  MW   35808   3.548   0.066   0.586
 8953WAT  OW   35809   4.926   2.019   5.284
 8953WAT  HW1  35810   4.980   2.074   5.341
 8953WAT  HW2  35811   4.924   1.934   5.329
 8953WAT  MW   35812   4.933   2.015   5.298
 8954WAT  OW   35813   6.240   6.298   2.194
 8954WAT  HW1  35814   6.332   6.326   2.197
 8954WAT  HW2  35815   6.201   6.350   2.123
 8954WAT  MW   35816   6.247   6.309   2.185
 8955WAT  OW   35817   1.616   6.218   5.457
 8955WAT  HW1  35818   1.652   6.252   5.375
 8955WAT  HW2  35819   1.683   6.156   5.488
 8955WAT  MW   35820   1.630   6.214   5.450
 8956WAT  OW   35821   3.391   3.437   5.405
 8956WAT  HW1  35822   3.487   3.431   5.411
 8956WAT  HW2  35823   3.376   3.508   5.342
 8956WAT  MW   35824   3.402   3.446   5.397
 8957WAT  OW   35825   6.315   5.202   0.688
 8957WAT  HW1  35826   6.348   5.119   0.655
 8957WAT  HW2  35827   6.343   5.266   0.623
 8957WAT  MW   35828   6.323   5.200   0.675
 8958WAT  OW   35829   2.176   4.924   5.418
 8958WAT  HW1  35830   2.093   4.902   5.461
 8958WAT  HW2  35831   2.202   4.843   5.374
 8958WAT  MW   35832   2.168   4.911   5.418
 8959WAT  OW   35833   0.393   0.080   2.125
 8959WAT  HW1  35834   0.447   0.158   2.108
 8959WAT  HW2  35835   0.455   0.008   2.127
 8959WAT  MW   35836   0.408   0.081   2.123
 8960WAT  OW   35837   4.346   3.478   0.157
 8960WAT  HW1  35838   4.399   3.442   0.228
 8960WAT  HW2  35839   4.308   3.558   0.193
 8960WAT  MW   35840   4.348   3.484   0.171
 8961WAT  OW   35841   5.789   5.469   2.188
 8961WAT  HW1  35842   5.864   5.463   2.129
 8961WAT  HW2  35843   5.822   5.437   2.272
 8961WAT  MW   35844   5.803   5.464   2.191
 8962WAT  OW   35845   6.089   6.546   5.119
 8962WAT  HW1  35846   6.040   6.626   5.138
 8962WAT  HW2  35847   6.101   6.547   5.024
 8962WAT  MW   35848   6.084   6.557   5.109
 8963WAT  OW   35849   3.352   4.553   5.374
 8963WAT  HW1  35850   3.396   4.468   5.374
 8963WAT  HW2  35851   3.279   4.543   5.313
 8963WAT  MW   35852   3.348   4.540   5.366
 8964WAT  OW   35853   3.310   0.560   5.500
 8964WAT  HW1  35854   3.279   0.469   5.495
 8964WAT  HW2  35855   3.367   0.570   5.424
 8964WAT  MW   35856   3.313   0.549   5.489
 8965WAT  OW   35857   0.297   4.467   1.794
 8965WAT  HW1  35858   0.220   4.425   1.755
 8965WAT  HW2  35859   0.267   4.554   1.819
 8965WAT  MW   35860   0.282   4.473   1.792
 8966WAT  OW   35861   6.418   0.412   1.410
 8966WAT  HW1  35862   6.387   0.380   1.326
 8966WAT  HW2  35863   6.379   0.352   1.474
 8966WAT  MW   35864   6.409   0.400   1.408
 8967WAT  OW   35865   4.635   4.957   3.397
 8967WAT  HW1  35866   4.613   5.011   3.473
 8967WAT  HW2  35867   4.706   5.005   3.354
 8967WAT  MW   35868   4.642   4.971   3.401
 8968WAT  OW   35869   2.929   5.143   5.235
 8968WAT  HW1  35870   2.857   5.196   5.202
 8968WAT  HW2  35871   3.008   5.187   5.205
 8968WAT  MW   35872   2.930   5.156   5.227
 8969WAT  OW   35873   4.613   5.393   6.474
 8969WAT  HW1  35874   4.658   5.403   6.390
 8969WAT  HW2  35875   4.615   5.299   6.492
 8969WAT  MW   35876   4.619   5.382   6.465
 8970WAT  OW   35877   6.265   6.656   4.349
 8970WAT  HW1  35878   6.229   6.739   4.382
 8970WAT  HW2  35879   6.316   6.682   4.272
 8970WAT  MW   35880   6.267   6.671   4.343
 8971WAT  OW   35881   4.003   6.121   1.058
 8971WAT  HW1  35882   3.996   6.211   1.090
 8971WAT  HW2  35883   4.069   6.125   0.989
 8971WAT  MW   35884   4.010   6.134   1.053
 8972WAT  OW   35885   0.506   4.587   6.230
 8972WAT  HW1  35886   0.485   4.607   6.322
 8972WAT  HW2  35887   0.465   4.658   6.181
 8972WAT  MW   35888   0.498   4.599   6.236
 8973WAT  OW   35889   3.588   1.473   4.326
 8973WAT  HW1  35890   3.623   1.503   4.410
 8973WAT  HW2  35891   3.493   1.477   4.337
 8973WAT  MW   35892   3.580   1.477   4.339
 8974WAT  OW   35893   3.714   0.493   4.821
 8974WAT  HW1  35894   3.779   0.562   4.821
 8974WAT  HW2  35895   3.752   0.424   4.875
 8974WAT  MW   35896   3.727   0.493   4.828
 8975WAT  OW   35897   6.281   5.573   2.327
 8975WAT  HW1  35898   6.271   5.479   2.311
 8975WAT  HW2  35899   6.262   5.584   2.420
 8975WAT  MW   35900   6.277   5.562   2.337
 8976WAT  OW   35901   5.203   0.613   5.443
 8976WAT  HW1  35902   5.246   0.600   5.358
 8976WAT  HW2  35903   5.182   0.706   5.444
 8976WAT  MW   35904   5.206   0.624   5.432
 8977WAT  OW   35905   3.768   4.689   5.570
 8977WAT  HW1  35906   3.701   4.715   5.506
 8977WAT  HW2  35907   3.719   4.641   5.637
 8977WAT  MW   35908   3.752   4.686   5.570
 8978WAT  OW   35909   4.461   3.934   0.257
 8978WAT  HW1  35910   4.525   3.894   0.198
 8978WAT  HW2  35911   4.471   4.028   0.243
 8978WAT  MW   35912   4.471   3.941   0.247
 8979WAT  OW   35913   1.868   0.142   3.455
 8979WAT  HW1  35914   1.890   0.064   3.405
 8979WAT  HW2  35915   1.775   0.157   3.437
 8979WAT  MW   35916   1.859   0.134   3.446
 8980WAT  OW   35917   4.084   3.834   0.445
 8980WAT  HW1  35918   4.143   3.764   0.419
 8980WAT  HW2  35919   4.104   3.906   0.386
 8980WAT  MW   35920   4.094   3.834   0.434
 8981WAT  OW   35921   2.658   3.289   3.990
 8981WAT  HW1  35922   2.627   3.346   4.060
 8981WAT  HW2  35923   2.605   3.210   3.997
 8981WAT  MW   35924   2.647   3.286   4.000
 8982WAT  OW   35925   6.496   2.131   3.880
 8982WAT  HW1  35926   6.433   2.174   3.938
 8982WAT  HW2  35927   6.501   2.190   3.804
 8982WAT  MW   35928   6.488   2.145   3.877
 8983WAT  OW   35929   5.207   3.475   1.539
 8983WAT  HW1  35930   5.256   3.402   1.498
 8983WAT  HW2  35931   5.172   3.524   1.465
 8983WAT  MW   35932   5.209   3.472   1.524
 8984WAT  OW   35933   1.587   4.435   5.472
 8984WAT  HW1  35934   1.638   4.513   5.495
 8984WAT  HW2  35935   1.648   4.363   5.488
 8984WAT  MW   35936   1.602   4.436   5.477
 8985WAT  OW   35937   1.823   4.180   0.166
 8985WAT  HW1  35938   1.781   4.105   0.206
 8985WAT  HW2  35939   1.917   4.166   0.180
 8985WAT  MW   35940   1.830   4.169   0.173
 8986WAT  OW   35941   2.301   1.966   5.347
 8986WAT  HW1  35942   2.384   1.974   5.395
 8986WAT  HW2  35943   2.244   1.918   5.407
 8986WAT  MW   35944   2.304   1.961   5.361
 8987WAT  OW   35945   1.259   6.184   5.827
 8987WAT  HW1  35946   1.312   6.195   5.906
 8987WAT  HW2  35947   1.322   6.167   5.757
 8987WAT  MW   35948   1.274   6.183   5.828
 8988WAT  OW   35949   0.949   3.057   0.636
 8988WAT  HW1  35950   0.990   3.033   0.553
 8988WAT  HW2  35951   0.914   3.145   0.621
 8988WAT  MW   35952   0.949   3.065   0.623
 8989WAT  OW   35953   2.274   0.593   2.613
 8989WAT  HW1  35954   2.337   0.654   2.573
 8989WAT  HW2  35955   2.190   0.637   2.605
 8989WAT  MW   35956   2.271   0.607   2.606
 8990WAT  OW   35957   0.984   5.822   1.506
 8990WAT  HW1  35958   1.026   5.779   1.431
 8990WAT  HW2  35959   1.032   5.903   1.518
 8990WAT  MW   35960   0.996   5.827   1.498
 8991WAT  OW   35961   4.730   1.072   5.660
 8991WAT  HW1  35962   4.805   1.068   5.720
 8991WAT  HW2  35963   4.732   0.988   5.614
 8991WAT  MW   35964   4.740   1.060   5.662
 8992WAT  OW   35965   3.980   0.493   6.618
 8992WAT  HW1  35966   3.980   0.464   6.709
 8992WAT  HW2  35967   3.905   0.552   6.612
 8992WAT  MW   35968   3.970   0.497   6.629
 8993WAT  OW   35969   4.333   3.090   3.829
 8993WAT  HW1  35970   4.336   3.027   3.901
 8993WAT  HW2  35971   4.425   3.102   3.805
 8993WAT  MW   35972   4.346   3.083   3.835
 8994WAT  OW   35973   3.182   3.897   3.025
 8994WAT  HW1  35974   3.140   3.811   3.025
 8994WAT  HW2  35975   3.273   3.880   2.999
 8994WAT  MW   35976   3.188   3.883   3.022
 8995WAT  OW   35977   1.779   2.100   2.444
 8995WAT  HW1  35978   1.828   2.056   2.514
 8995WAT  HW2  35979   1.783   2.039   2.371
 8995WAT  MW   35980   1.786   2.086   2.444
 8996WAT  OW   35981   2.203   6.008   0.824
 8996WAT  HW1  35982   2.233   6.095   0.850
 8996WAT  HW2  35983   2.271   5.949   0.856
 8996WAT  MW   35984   2.216   6.012   0.831
 8997WAT  OW   35985   2.803   2.597   1.809
 8997WAT  HW1  35986   2.849   2.550   1.740
 8997WAT  HW2  35987   2.761   2.671   1.764
 8997WAT  MW   35988   2.803   2.601   1.794
 8998WAT  OW   35989   1.571   5.174   3.998
 8998WAT  HW1  35990   1.561   5.091   3.951
 8998WAT  HW2  35991   1.526   5.238   3.943
 8998WAT  MW   35992   1.564   5.171   3.985
 8999WAT  OW   35993   5.115   3.426   0.017
 8999WAT  HW1  35994   5.195   3.412  -0.035
 8999WAT  HW2  35995   5.144   3.477   0.092
 8999WAT  MW   35996   5.130   3.431   0.020
 9000WAT  OW   35997   6.163   6.648   2.579
 9000WAT  HW1  35998   6.118   6.568   2.605
 9000WAT  HW2  35999   6.176   6.639   2.484
 9000WAT  MW   36000   6.159   6.636   2.570
 9001WAT  OW   36001   2.524   4.466   5.076
 9001WAT  HW1  36002   2.569   4.422   5.004
 9001WAT  HW2  36003   2.431   4.462   5.052
 9001WAT  MW   36004   2.518   4.460   5.063
 9002WAT  OW   36005   1.441   0.148   6.493
 9002WAT  HW1  36006   1.455   0.140   6.588
 9002WAT  HW2  36007   1.510   0.093   6.455
 9002WAT  MW   36008   1.452   0.140   6.501
 9003WAT  OW   36009   3.290   2.416   6.027
 9003WAT  HW1  36010   3.320   2.336   5.983
 9003WAT  HW2  36011   3.289   2.482   5.958
 9003WAT  MW   36012   3.294   2.414   6.012
 9004WAT  OW   36013   4.519   2.714   4.394
 9004WAT  HW1  36014   4.540   2.642   4.334
 9004WAT  HW2  36015   4.585   2.707   4.463
 9004WAT  MW   36016   4.530   2.703   4.395
 9005WAT  OW   36017   2.289   6.154   6.398
 9005WAT  HW1  36018   2.228   6.167   6.325
 9005WAT  HW2  36019   2.293   6.058   6.408
 9005WAT  MW   36020   2.281   6.143   6.390
 9006WAT  OW   36021   3.205   1.284   3.333
 9006WAT  HW1  36022   3.246   1.324   3.256
 9006WAT  HW2  36023   3.211   1.351   3.401
 9006WAT  MW   36024   3.211   1.298   3.332
 9007WAT  OW   36025   3.503   3.672   2.118
 9007WAT  HW1  36026   3.455   3.597   2.154
 9007WAT  HW2  36027   3.478   3.745   2.175
 9007WAT  MW   36028   3.493   3.671   2.131
 9008WAT  OW   36029   1.320   5.098   5.469
 9008WAT  HW1  36030   1.269   5.041   5.526
 9008WAT  HW2  36031   1.286   5.186   5.485
 9008WAT  MW   36032   1.309   5.102   5.479
 9009WAT  OW   36033   3.896   1.700   3.026
 9009WAT  HW1  36034   3.982   1.673   3.057
 9009WAT  HW2  36035   3.834   1.660   3.087
 9009WAT  MW   36036   3.899   1.691   3.038
 9010WAT  OW   36037   2.491   5.520   3.639
 9010WAT  HW1  36038   2.567   5.553   3.590
 9010WAT  HW2  36039   2.416   5.549   3.587
 9010WAT  MW   36040   2.491   5.528   3.625
 9011WAT  OW   36041   0.373   3.360   1.755
 9011WAT  HW1  36042   0.385   3.265   1.755
 9011WAT  HW2  36043   0.417   3.390   1.835
 9011WAT  MW   36044   0.381   3.352   1.765
 9012WAT  OW   36045   5.596   1.105   4.092
 9012WAT  HW1  36046   5.612   1.159   4.015
 9012WAT  HW2  36047   5.683   1.089   4.129
 9012WAT  MW   36048   5.610   1.110   4.087
 9013WAT  OW   36049   1.813   5.824   0.914
 9013WAT  HW1  36050   1.741   5.781   0.868
 9013WAT  HW2  36051   1.853   5.880   0.847
 9013WAT  MW   36052   1.808   5.826   0.899
 9014WAT  OW   36053   4.964   4.431   3.658
 9014WAT  HW1  36054   5.031   4.414   3.725
 9014WAT  HW2  36055   4.900   4.361   3.671
 9014WAT  MW   36056   4.964   4.419   3.668
 9015WAT  OW   36057   5.030   5.357   5.163
 9015WAT  HW1  36058   5.116   5.319   5.175
 9015WAT  HW2  36059   5.008   5.339   5.072
 9015WAT  MW   36060   5.038   5.350   5.153
 9016WAT  OW   36061   3.740   0.782   3.771
 9016WAT  HW1  36062   3.693   0.720   3.715
 9016WAT  HW2  36063   3.677   0.851   3.790
 9016WAT  MW   36064   3.726   0.783   3.766
 9017WAT  OW   36065   2.977   1.924   1.146
 9017WAT  HW1  36066   2.915   1.986   1.108
 9017WAT  HW2  36067   2.979   1.946   1.239
 9017WAT  MW   36068   2.969   1.935   1.153
 9018WAT  OW   36069   0.839   0.093   2.305
 9018WAT  HW1  36070   0.763   0.068   2.357
 9018WAT  HW2  36071   0.846   0.188   2.315
 9018WAT  MW   36072   0.830   0.102   2.313
 9019WAT  OW   36073   3.783   0.993   1.618
 9019WAT  HW1  36074   3.793   0.990   1.523
 9019WAT  HW2  36075   3.698   1.035   1.632
 9019WAT  MW   36076   3.773   0.998   1.608
 9020WAT  OW   36077   5.003   5.904   4.473
 9020WAT  HW1  36078   4.950   5.847   4.529
 9020WAT  HW2  36079   5.093   5.886   4.501
 9020WAT  MW   36080   5.008   5.894   4.484
 9021WAT  OW   36081   4.521   3.808   3.517
 9021WAT  HW1  36082   4.471   3.769   3.445
 9021WAT  HW2  36083   4.585   3.741   3.541
 9021WAT  MW   36084   4.523   3.794   3.511
 9022WAT  OW   36085   5.256   5.333   1.136
 9022WAT  HW1  36086   5.327   5.337   1.200
 9022WAT  HW2  36087   5.182   5.376   1.179
 9022WAT  MW   36088   5.256   5.339   1.150
 9023WAT  OW   36089   1.770   2.563   4.802
 9023WAT  HW1  36090   1.805   2.492   4.856
 9023WAT  HW2  36091   1.695   2.524   4.758
 9023WAT  MW   36092   1.765   2.548   4.803
 9024WAT  OW   36093   2.195   2.103   0.241
 9024WAT  HW1  36094   2.200   2.009   0.224
 9024WAT  HW2  36095   2.259   2.142   0.180
 9024WAT  MW   36096   2.204   2.096   0.230
 9025WAT  OW   36097   4.692   6.149   5.297
 9025WAT  HW1  36098   4.745   6.075   5.269
 9025WAT  HW2  36099   4.641   6.117   5.371
 9025WAT  MW   36100   4.692   6.135   5.303
 9026WAT  OW   36101   2.524   3.618   1.900
 9026WAT  HW1  36102   2.520   3.576   1.814
 9026WAT  HW2  36103   2.549   3.548   1.960
 9026WAT  MW   36104   2.527   3.604   1.896
 9027WAT  OW   36105   0.136   4.241   4.263
 9027WAT  HW1  36106   0.159   4.152   4.289
 9027WAT  HW2  36107   0.219   4.280   4.237
 9027WAT  MW   36108   0.150   4.234   4.263
 9028WAT  OW   36109   3.940   3.428   5.320
 9028WAT  HW1  36110   3.956   3.340   5.354
 9028WAT  HW2  36111   4.011   3.481   5.356
 9028WAT  MW   36112   3.952   3.424   5.329
 9029WAT  OW   36113   0.493   2.745   0.570
 9029WAT  HW1  36114   0.452   2.786   0.646
 9029WAT  HW2  36115   0.421   2.725   0.510
 9029WAT  MW   36116   0.478   2.748   0.572
 9030WAT  OW   36117   0.628   1.326   5.818
 9030WAT  HW1  36118   0.698   1.391   5.824
 9030WAT  HW2  36119   0.601   1.311   5.908
 9030WAT  MW   36120   0.634   1.333   5.831
 9031WAT  OW   36121   0.159   2.516   3.977
 9031WAT  HW1  36122   0.191   2.474   3.897
 9031WAT  HW2  36123   0.139   2.443   4.036
 9031WAT  MW   36124   0.160   2.500   3.975
 9032WAT  OW   36125   0.882   1.467   1.373
 9032WAT  HW1  36126   0.961   1.508   1.340
 9032WAT  HW2  36127   0.903   1.373   1.376
 9032WAT  MW   36128   0.895   1.460   1.369
 9033WAT  OW   36129   5.876   1.018   5.027
 9033WAT  HW1  36130   5.902   1.069   4.950
 9033WAT  HW2  36131   5.837   0.938   4.990
 9033WAT  MW   36132   5.874   1.014   5.012
 9034WAT  OW   36133   1.540   4.341   0.876
 9034WAT  HW1  36134   1.625   4.374   0.846
 9034WAT  HW2  36135   1.561   4.265   0.930
 9034WAT  MW   36136   1.554   4.336   0.879
 9035WAT  OW   36137   6.097   5.770   4.336
 9035WAT  HW1  36138   6.174   5.714   4.352
 9035WAT  HW2  36139   6.033   5.740   4.401
 9035WAT  MW   36140   6.099   5.758   4.347
 9036WAT  OW   36141   0.268   2.590   4.909
 9036WAT  HW1  36142   0.278   2.502   4.947
 9036WAT  HW2  36143   0.227   2.641   4.979
 9036WAT  MW   36144   0.264   2.585   4.923
 9037WAT  OW   36145   2.060   4.170   3.520
 9037WAT  HW1  36146   1.977   4.211   3.496
 9037WAT  HW2  36147   2.119   4.243   3.537
 9037WAT  MW   36148   2.057   4.185   3.519
 9038WAT  OW   36149   2.924   1.870   3.447
 9038WAT  HW1  36150   2.838   1.829   3.444
 9038WAT  HW2  36151   2.974   1.814   3.507
 9038WAT  MW   36152   2.920   1.857   3.455
 9039WAT  OW   36153   3.622   2.855   5.952
 9039WAT  HW1  36154   3.599   2.779   6.006
 9039WAT  HW2  36155   3.707   2.884   5.986
 9039WAT  MW   36156   3.630   2.849   5.963
 9040WAT  OW   36157   2.624   3.545   3.222
 9040WAT  HW1  36158   2.564   3.474   3.203
 9040WAT  HW2  36159   2.621   3.601   3.145
 9040WAT  MW   36160   2.616   3.543   3.210
 9041WAT  OW   36161   6.122   1.362   4.981
 9041WAT  HW1  36162   6.154   1.399   4.899
 9041WAT  HW2  36163   6.160   1.417   5.049
 9041WAT  MW   36164   6.131   1.374   4.979
 9042WAT  OW   36165   2.718   0.075   3.368
 9042WAT  HW1  36166   2.694   0.089   3.460
 9042WAT  HW2  36167   2.765   0.155   3.343
 9042WAT  MW   36168   2.721   0.088   3.377
 9043WAT  OW   36169   4.373   2.233   5.662
 9043WAT  HW1  36170   4.384   2.282   5.744
 9043WAT  HW2  36171   4.278   2.223   5.654
 9043WAT  MW   36172   4.362   2.238   5.672
 9044WAT  OW   36173   3.305   2.427   0.988
 9044WAT  HW1  36174   3.306   2.360   0.919
 9044WAT  HW2  36175   3.384   2.478   0.973
 9044WAT  MW   36176   3.315   2.425   0.977
 9045WAT  OW   36177   4.471   2.160   1.302
 9045WAT  HW1  36178   4.496   2.251   1.284
 9045WAT  HW2  36179   4.555   2.115   1.314
 9045WAT  MW   36180   4.485   2.166   1.301
 9046WAT  OW   36181   1.571   5.598   3.195
 9046WAT  HW1  36182   1.581   5.551   3.278
 9046WAT  HW2  36183   1.646   5.658   3.192
 9046WAT  MW   36184   1.582   5.600   3.205
 9047WAT  OW   36185   5.903   0.162   0.324
 9047WAT  HW1  36186   5.864   0.249   0.313
 9047WAT  HW2  36187   5.831   0.106   0.353
 9047WAT  MW   36188   5.888   0.166   0.326
 9048WAT  OW   36189   3.747   1.670   5.671
 9048WAT  HW1  36190   3.728   1.759   5.697
 9048WAT  HW2  36191   3.755   1.674   5.575
 9048WAT  MW   36192   3.746   1.682   5.662
 9049WAT  OW   36193   0.618   2.084   6.502
 9049WAT  HW1  36194   0.549   2.131   6.455
 9049WAT  HW2  36195   0.691   2.081   6.441
 9049WAT  MW   36196   0.618   2.090   6.488
 9050WAT  OW   36197   3.981   1.172   5.328
 9050WAT  HW1  36198   4.054   1.232   5.347
 9050WAT  HW2  36199   3.918   1.187   5.398
 9050WAT  MW   36200   3.982   1.182   5.339
 9051WAT  OW   36201   1.573   6.400   5.655
 9051WAT  HW1  36202   1.485   6.437   5.643
 9051WAT  HW2  36203   1.578   6.330   5.590
 9051WAT  MW   36204   1.562   6.396   5.645
 9052WAT  OW   36205   0.374   3.801   4.656
 9052WAT  HW1  36206   0.347   3.832   4.742
 9052WAT  HW2  36207   0.407   3.712   4.672
 9052WAT  MW   36208   0.375   3.793   4.669
 9053WAT  OW   36209   0.646   3.650   2.090
 9053WAT  HW1  36210   0.591   3.576   2.067
 9053WAT  HW2  36211   0.585   3.718   2.117
 9053WAT  MW   36212   0.631   3.649   2.091
 9054WAT  OW   36213   3.773   2.412   1.002
 9054WAT  HW1  36214   3.719   2.333   1.003
 9054WAT  HW2  36215   3.816   2.410   0.916
 9054WAT  MW   36216   3.771   2.401   0.990
 9055WAT  OW   36217   2.288   4.654   5.284
 9055WAT  HW1  36218   2.383   4.656   5.297
 9055WAT  HW2  36219   2.265   4.562   5.294
 9055WAT  MW   36220   2.298   4.642   5.287
 9056WAT  OW   36221   1.191   1.652   1.823
 9056WAT  HW1  36222   1.265   1.647   1.762
 9056WAT  HW2  36223   1.135   1.721   1.788
 9056WAT  MW   36224   1.194   1.660   1.811
 9057WAT  OW   36225   5.748   2.656   1.153
 9057WAT  HW1  36226   5.800   2.708   1.216
 9057WAT  HW2  36227   5.668   2.635   1.201
 9057WAT  MW   36228   5.744   2.660   1.168
 9058WAT  OW   36229   3.519   1.183   0.751
 9058WAT  HW1  36230   3.502   1.265   0.703
 9058WAT  HW2  36231   3.433   1.156   0.783
 9058WAT  MW   36232   3.505   1.191   0.749
 9059WAT  OW   36233   2.593   4.727   5.196
 9059WAT  HW1  36234   2.577   4.642   5.156
 9059WAT  HW2  36235   2.665   4.711   5.258
 9059WAT  MW   36236   2.601   4.714   5.199
 9060WAT  OW   36237   3.887   1.464   4.937
 9060WAT  HW1  36238   3.897   1.371   4.957
 9060WAT  HW2  36239   3.889   1.469   4.841
 9060WAT  MW   36240   3.888   1.452   4.927
 9061WAT  OW   36241   3.666   1.561   0.930
 9061WAT  HW1  36242   3.705   1.533   0.847
 9061WAT  HW2  36243   3.739   1.593   0.982
 9061WAT  MW   36244   3.680   1.561   0.926
 9062WAT  OW   36245   1.180   4.581   2.018
 9062WAT  HW1  36246   1.112   4.592   1.953
 9062WAT  HW2  36247   1.202   4.670   2.046
 9062WAT  MW   36248   1.174   4.594   2.013
 9063WAT  OW   36249   5.211   6.492   4.612
 9063WAT  HW1  36250   5.167   6.454   4.688
 9063WAT  HW2  36251   5.140   6.528   4.559
 9063WAT  MW   36252   5.196   6.492   4.615
 9064WAT  OW   36253   6.673   3.720   1.538
 9064WAT  HW1  36254   6.579   3.730   1.518
 9064WAT  HW2  36255   6.704   3.659   1.471
 9064WAT  MW   36256   6.664   3.713   1.526
 9065WAT  OW   36257   4.433   2.945   0.927
 9065WAT  HW1  36258   4.515   2.973   0.969
 9065WAT  HW2  36259   4.385   3.026   0.912
 9065WAT  MW   36260   4.438   2.959   0.931
 9066WAT  OW   36261   5.033   0.443   2.982
 9066WAT  HW1  36262   4.952   0.420   3.028
 9066WAT  HW2  36263   5.031   0.390   2.902
 9066WAT  MW   36264   5.022   0.433   2.977
 9067WAT  OW   36265   2.805   3.194   5.118
 9067WAT  HW1  36266   2.853   3.116   5.091
 9067WAT  HW2  36267   2.834   3.210   5.208
 9067WAT  MW   36268   2.815   3.186   5.127
 9068WAT  OW   36269   4.422   0.378   4.402
 9068WAT  HW1  36270   4.514   0.353   4.411
 9068WAT  HW2  36271   4.397   0.347   4.316
 9068WAT  MW   36272   4.431   0.371   4.392
 9069WAT  OW   36273   3.974   3.091   5.056
 9069WAT  HW1  36274   4.043   3.056   5.113
 9069WAT  HW2  36275   3.953   3.019   4.996
 9069WAT  MW   36276   3.980   3.077   5.056
 9070WAT  OW   36277   1.074   0.413   3.077
 9070WAT  HW1  36278   1.036   0.448   3.158
 9070WAT  HW2  36279   1.108   0.327   3.101
 9070WAT  MW   36280   1.074   0.406   3.091
 9071WAT  OW   36281   1.281   6.632   4.359
 9071WAT  HW1  36282   1.227   6.706   4.388
 9071WAT  HW2  36283   1.292   6.579   4.438
 9071WAT  MW   36284   1.275   6.635   4.374
 9072WAT  OW   36285   4.407   6.223   4.250
 9072WAT  HW1  36286   4.425   6.312   4.218
 9072WAT  HW2  36287   4.486   6.173   4.230
 9072WAT  MW   36288   4.419   6.228   4.243
 9073WAT  OW   36289   6.637   0.917   1.706
 9073WAT  HW1  36290   6.669   1.002   1.735
 9073WAT  HW2  36291   6.694   0.894   1.633
 9073WAT  MW   36292   6.649   0.925   1.700
 9074WAT  OW   36293   6.008   3.932   2.856
 9074WAT  HW1  36294   5.997   3.873   2.931
 9074WAT  HW2  36295   5.952   3.894   2.788
 9074WAT  MW   36296   5.999   3.919   2.857
 9075WAT  OW   36297   5.457   5.253   0.681
 9075WAT  HW1  36298   5.402   5.270   0.605
 9075WAT  HW2  36299   5.528   5.198   0.647
 9075WAT  MW   36300   5.459   5.248   0.666
 9076WAT  OW   36301   5.195   1.652   6.161
 9076WAT  HW1  36302   5.184   1.624   6.252
 9076WAT  HW2  36303   5.126   1.716   6.147
 9076WAT  MW   36304   5.185   1.657   6.171
 9077WAT  OW   36305   5.762   0.367   0.660
 9077WAT  HW1  36306   5.744   0.416   0.741
 9077WAT  HW2  36307   5.747   0.276   0.684
 9077WAT  MW   36308   5.758   0.362   0.674
 9078WAT  OW   36309   5.243   5.984   3.845
 9078WAT  HW1  36310   5.175   6.051   3.851
 9078WAT  HW2  36311   5.200   5.903   3.871
 9078WAT  MW   36312   5.229   5.983   3.849
 9079WAT  OW   36313   1.690   5.932   4.496
 9079WAT  HW1  36314   1.689   5.849   4.544
 9079WAT  HW2  36315   1.770   5.975   4.525
 9079WAT  MW   36316   1.700   5.926   4.506
 9080WAT  OW   36317   1.679   6.379   5.228
 9080WAT  HW1  36318   1.652   6.334   5.148
 9080WAT  HW2  36319   1.774   6.367   5.232
 9080WAT  MW   36320   1.688   6.372   5.218
 9081WAT  OW   36321   4.240   1.020   1.624
 9081WAT  HW1  36322   4.318   1.068   1.597
 9081WAT  HW2  36323   4.188   1.085   1.671
 9081WAT  MW   36324   4.244   1.035   1.627
 9082WAT  OW   36325   5.994   5.176   1.591
 9082WAT  HW1  36326   6.043   5.119   1.652
 9082WAT  HW2  36327   5.971   5.118   1.519
 9082WAT  MW   36328   5.998   5.161   1.590
 9083WAT  OW   36329   2.260   4.763   3.698
 9083WAT  HW1  36330   2.237   4.827   3.766
 9083WAT  HW2  36331   2.222   4.799   3.618
 9083WAT  MW   36332   2.252   4.776   3.697
 9084WAT  OW   36333   4.442   3.210   1.812
 9084WAT  HW1  36334   4.454   3.206   1.907
 9084WAT  HW2  36335   4.446   3.303   1.791
 9084WAT  MW   36336   4.444   3.222   1.822
 9085WAT  OW   36337   3.224   1.010   3.463
 9085WAT  HW1  36338   3.211   1.094   3.420
 9085WAT  HW2  36339   3.308   1.020   3.508
 9085WAT  MW   36340   3.234   1.022   3.463
 9086WAT  OW   36341   5.350   5.888   2.594
 9086WAT  HW1  36342   5.318   5.817   2.538
 9086WAT  HW2  36343   5.282   5.897   2.661
 9086WAT  MW   36344   5.337   5.880   2.596
 9087WAT  OW   36345   4.852   3.098   1.520
 9087WAT  HW1  36346   4.862   3.193   1.514
 9087WAT  HW2  36347   4.762   3.084   1.548
 9087WAT  MW   36348   4.842   3.108   1.523
 9088WAT  OW   36349   2.667   2.691   4.489
 9088WAT  HW1  36350   2.578   2.717   4.467
 9088WAT  HW2  36351   2.710   2.773   4.515
 9088WAT  MW   36352   2.661   2.705   4.490
 9089WAT  OW   36353   4.024   6.067   2.244
 9089WAT  HW1  36354   4.046   6.044   2.153
 9089WAT  HW2  36355   4.108   6.071   2.289
 9089WAT  MW   36356   4.038   6.065   2.238
 9090WAT  OW   36357   2.623   5.221   0.479
 9090WAT  HW1  36358   2.640   5.215   0.573
 9090WAT  HW2  36359   2.617   5.131   0.449
 9090WAT  MW   36360   2.624   5.209   0.487
 9091WAT  OW   36361   1.781   2.910   4.385
 9091WAT  HW1  36362   1.835   2.918   4.463
 9091WAT  HW2  36363   1.750   2.820   4.385
 9091WAT  MW   36364   1.784   2.899   4.395
 9092WAT  OW   36365   1.408   0.795   3.362
 9092WAT  HW1  36366   1.392   0.887   3.380
 9092WAT  HW2  36367   1.356   0.776   3.284
 9092WAT  MW   36368   1.399   0.804   3.354
 9093WAT  OW   36369   3.773   2.019   5.220
 9093WAT  HW1  36370   3.781   1.988   5.311
 9093WAT  HW2  36371   3.827   2.099   5.218
 9093WAT  MW   36372   3.781   2.026   5.232
 9094WAT  OW   36373   6.335   6.039   3.577
 9094WAT  HW1  36374   6.332   6.114   3.637
 9094WAT  HW2  36375   6.289   6.069   3.499
 9094WAT  MW   36376   6.329   6.053   3.575
 9095WAT  OW   36377   2.521   4.832   4.539
 9095WAT  HW1  36378   2.446   4.871   4.583
 9095WAT  HW2  36379   2.493   4.821   4.448
 9095WAT  MW   36380   2.508   4.836   4.533
 9096WAT  OW   36381   0.175   5.863   5.077
 9096WAT  HW1  36382   0.117   5.820   5.140
 9096WAT  HW2  36383   0.255   5.879   5.126
 9096WAT  MW   36384   0.178   5.860   5.092
 9097WAT  OW   36385   3.709   3.410   3.492
 9097WAT  HW1  36386   3.716   3.493   3.540
 9097WAT  HW2  36387   3.792   3.366   3.509
 9097WAT  MW   36388   3.721   3.415   3.500
 9098WAT  OW   36389   4.889   1.936   2.696
 9098WAT  HW1  36390   4.854   2.007   2.643
 9098WAT  HW2  36391   4.976   1.920   2.661
 9098WAT  MW   36392   4.896   1.943   2.684
 9099WAT  OW   36393   3.345   4.701   3.459
 9099WAT  HW1  36394   3.368   4.747   3.379
 9099WAT  HW2  36395   3.249   4.704   3.462
 9099WAT  MW   36396   3.335   4.707   3.449
 9100WAT  OW   36397   3.441   5.781   4.831
 9100WAT  HW1  36398   3.474   5.807   4.746
 9100WAT  HW2  36399   3.420   5.688   4.821
 9100WAT  MW   36400   3.443   5.772   4.819
 9101WAT  OW   36401   4.456   2.242   2.034
 9101WAT  HW1  36402   4.385   2.296   2.000
 9101WAT  HW2  36403   4.528   2.304   2.049
 9101WAT  MW   36404   4.457   2.257   2.031
 9102WAT  OW   36405   0.717   0.721   3.773
 9102WAT  HW1  36406   0.773   0.713   3.851
 9102WAT  HW2  36407   0.641   0.770   3.804
 9102WAT  MW   36408   0.714   0.727   3.788
 9103WAT  OW   36409   2.770   4.562   2.170
 9103WAT  HW1  36410   2.810   4.488   2.216
 9103WAT  HW2  36411   2.711   4.522   2.106
 9103WAT  MW   36412   2.768   4.547   2.167
 9104WAT  OW   36413   6.261   3.561   4.753
 9104WAT  HW1  36414   6.207   3.502   4.806
 9104WAT  HW2  36415   6.347   3.520   4.752
 9104WAT  MW   36416   6.265   3.548   4.760
 9105WAT  OW   36417   3.133   6.361   5.737
 9105WAT  HW1  36418   3.040   6.351   5.755
 9105WAT  HW2  36419   3.160   6.438   5.788
 9105WAT  MW   36420   3.124   6.370   5.746
 9106WAT  OW   36421   5.132   1.247   4.224
 9106WAT  HW1  36422   5.122   1.342   4.215
 9106WAT  HW2  36423   5.101   1.212   4.140
 9106WAT  MW   36424   5.126   1.255   4.212
 9107WAT  OW   36425   6.067   5.555   3.324
 9107WAT  HW1  36426   6.037   5.472   3.361
 9107WAT  HW2  36427   6.150   5.573   3.368
 9107WAT  MW   36428   6.074   5.547   3.335
 9108WAT  OW   36429   2.814   6.235   1.105
 9108WAT  HW1  36430   2.747   6.167   1.108
 9108WAT  HW2  36431   2.897   6.188   1.114
 9108WAT  MW   36432   2.816   6.220   1.107
 9109WAT  OW   36433   5.892   2.998   5.645
 9109WAT  HW1  36434   5.847   3.075   5.680
 9109WAT  HW2  36435   5.872   2.928   5.708
 9109WAT  MW   36436   5.884   2.999   5.658
 9110WAT  OW   36437   4.245   5.208   6.247
 9110WAT  HW1  36438   4.322   5.164   6.211
 9110WAT  HW2  36439   4.279   5.257   6.322
 9110WAT  MW   36440   4.260   5.209   6.252
 9111WAT  OW   36441   2.182   5.210   3.778
 9111WAT  HW1  36442   2.129   5.265   3.836
 9111WAT  HW2  36443   2.180   5.124   3.819
 9111WAT  MW   36444   2.175   5.206   3.791
 9112WAT  OW   36445   0.785   2.465   3.336
 9112WAT  HW1  36446   0.759   2.435   3.249
 9112WAT  HW2  36447   0.776   2.388   3.391
 9112WAT  MW   36448   0.780   2.451   3.332
 9113WAT  OW   36449   0.964   2.859   5.282
 9113WAT  HW1  36450   0.933   2.831   5.368
 9113WAT  HW2  36451   1.060   2.851   5.287
 9113WAT  MW   36452   0.973   2.854   5.294
 9114WAT  OW   36453   0.436   6.140   4.479
 9114WAT  HW1  36454   0.480   6.056   4.487
 9114WAT  HW2  36455   0.464   6.173   4.393
 9114WAT  MW   36456   0.445   6.133   4.469
 9115WAT  OW   36457   1.143   5.882   4.074
 9115WAT  HW1  36458   1.176   5.947   4.136
 9115WAT  HW2  36459   1.103   5.934   4.004
 9115WAT  MW   36460   1.142   5.898   4.073
 9116WAT  OW   36461   2.588   2.173   5.236
 9116WAT  HW1  36462   2.531   2.249   5.250
 9116WAT  HW2  36463   2.538   2.116   5.178
 9116WAT  MW   36464   2.574   2.175   5.230
 9117WAT  OW   36465   1.232   5.700   5.938
 9117WAT  HW1  36466   1.185   5.780   5.961
 9117WAT  HW2  36467   1.273   5.672   6.020
 9117WAT  MW   36468   1.231   5.707   5.952
 9118WAT  OW   36469   5.250   6.272   6.340
 9118WAT  HW1  36470   5.260   6.292   6.433
 9118WAT  HW2  36471   5.318   6.323   6.297
 9118WAT  MW   36472   5.260   6.281   6.347
 9119WAT  OW   36473   3.924   1.204   2.884
 9119WAT  HW1  36474   3.846   1.253   2.910
 9119WAT  HW2  36475   3.960   1.170   2.967
 9119WAT  MW   36476   3.918   1.206   2.899
 9120WAT  OW   36477   3.678   2.366   5.635
 9120WAT  HW1  36478   3.766   2.374   5.671
 9120WAT  HW2  36479   3.655   2.274   5.648
 9120WAT  MW   36480   3.686   2.355   5.642
 9121WAT  OW   36481   5.884   2.336   2.660
 9121WAT  HW1  36482   5.800   2.357   2.620
 9121WAT  HW2  36483   5.925   2.274   2.600
 9121WAT  MW   36484   5.879   2.331   2.647
 9122WAT  OW   36485   2.292   6.619   4.929
 9122WAT  HW1  36486   2.285   6.610   5.024
 9122WAT  HW2  36487   2.216   6.671   4.904
 9122WAT  MW   36488   2.281   6.625   4.938
 9123WAT  OW   36489   0.627   4.058   2.008
 9123WAT  HW1  36490   0.583   4.143   2.002
 9123WAT  HW2  36491   0.664   4.056   2.096
 9123WAT  MW   36492   0.626   4.069   2.019
 9124WAT  OW   36493   6.006   3.025   6.482
 9124WAT  HW1  36494   5.915   3.040   6.454
 9124WAT  HW2  36495   6.005   2.936   6.519
 9124WAT  MW   36496   5.994   3.015   6.483
 9125WAT  OW   36497   3.686   4.660   2.850
 9125WAT  HW1  36498   3.777   4.657   2.821
 9125WAT  HW2  36499   3.680   4.742   2.900
 9125WAT  MW   36500   3.697   4.671   2.853
 9126WAT  OW   36501   1.173   0.017   5.504
 9126WAT  HW1  36502   1.112   0.012   5.431
 9126WAT  HW2  36503   1.237   0.083   5.478
 9126WAT  MW   36504   1.173   0.025   5.491
 9127WAT  OW   36505   0.147   6.189   0.095
 9127WAT  HW1  36506   0.219   6.238   0.135
 9127WAT  HW2  36507   0.139   6.111   0.149
 9127WAT  MW   36508   0.156   6.185   0.108
 9128WAT  OW   36509   1.379   4.681   4.394
 9128WAT  HW1  36510   1.345   4.677   4.305
 9128WAT  HW2  36511   1.344   4.603   4.436
 9128WAT  MW   36512   1.370   4.670   4.388
 9129WAT  OW   36513   2.599   6.005   5.758
 9129WAT  HW1  36514   2.646   6.011   5.841
 9129WAT  HW2  36515   2.659   5.961   5.699
 9129WAT  MW   36516   2.613   6.000   5.761
 9130WAT  OW   36517   4.743   5.510   5.994
 9130WAT  HW1  36518   4.651   5.504   5.966
 9130WAT  HW2  36519   4.758   5.603   6.006
 9130WAT  MW   36520   4.733   5.521   5.992
 9131WAT  OW   36521   2.629   1.354   1.917
 9131WAT  HW1  36522   2.537   1.365   1.939
 9131WAT  HW2  36523   2.665   1.302   1.989
 9131WAT  MW   36524   2.622   1.349   1.929
 9132WAT  OW   36525   1.370   6.093   0.634
 9132WAT  HW1  36526   1.327   6.061   0.713
 9132WAT  HW2  36527   1.343   6.031   0.566
 9132WAT  MW   36528   1.361   6.080   0.635
 9133WAT  OW   36529   4.656   1.714   6.389
 9133WAT  HW1  36530   4.565   1.686   6.385
 9133WAT  HW2  36531   4.697   1.653   6.451
 9133WAT  MW   36532   4.649   1.703   6.397
 9134WAT  OW   36533   3.345   4.151   1.256
 9134WAT  HW1  36534   3.292   4.227   1.280
 9134WAT  HW2  36535   3.434   4.174   1.281
 9134WAT  MW   36536   3.349   4.164   1.262
 9135WAT  OW   36537   0.108   5.647   5.653
 9135WAT  HW1  36538   0.084   5.669   5.744
 9135WAT  HW2  36539   0.203   5.654   5.651
 9135WAT  MW   36540   0.117   5.651   5.665
 9136WAT  OW   36541   1.654   5.069   3.470
 9136WAT  HW1  36542   1.705   5.116   3.403
 9136WAT  HW2  36543   1.716   5.007   3.508
 9136WAT  MW   36544   1.669   5.067   3.466
 9137WAT  OW   36545   3.871   6.297   5.533
 9137WAT  HW1  36546   3.834   6.385   5.539
 9137WAT  HW2  36547   3.852   6.257   5.618
 9137WAT  MW   36548   3.864   6.304   5.545
 9138WAT  OW   36549   5.402   4.233   2.973
 9138WAT  HW1  36550   5.355   4.305   3.016
 9138WAT  HW2  36551   5.490   4.236   3.009
 9138WAT  MW   36552   5.407   4.243   2.983
 9139WAT  OW   36553   0.168   3.526   4.002
 9139WAT  HW1  36554   0.162   3.514   3.907
 9139WAT  HW2  36555   0.216   3.448   4.033
 9139WAT  MW   36556   0.174   3.514   3.994
 9140WAT  OW   36557   1.834   4.613   3.766
 9140WAT  HW1  36558   1.926   4.593   3.783
 9140WAT  HW2  36559   1.823   4.600   3.672
 9140WAT  MW   36560   1.844   4.609   3.756
 9141WAT  OW   36561   3.321   0.021   1.514
 9141WAT  HW1  36562   3.319   0.062   1.601
 9141WAT  HW2  36563   3.349  -0.068   1.531
 9141WAT  MW   36564   3.325   0.015   1.528
 9142WAT  OW   36565   3.725   5.819   1.673
 9142WAT  HW1  36566   3.656   5.861   1.725
 9142WAT  HW2  36567   3.792   5.886   1.663
 9142WAT  MW   36568   3.725   5.834   1.678
 9143WAT  OW   36569   0.985   3.661   3.883
 9143WAT  HW1  36570   1.009   3.654   3.791
 9143WAT  HW2  36571   0.911   3.601   3.894
 9143WAT  MW   36572   0.979   3.652   3.872
 9144WAT  OW   36573   1.005   3.139   0.915
 9144WAT  HW1  36574   1.013   3.096   0.829
 9144WAT  HW2  36575   0.957   3.219   0.897
 9144WAT  MW   36576   1.000   3.144   0.901
 9145WAT  OW   36577   3.763   3.297   6.575
 9145WAT  HW1  36578   3.836   3.253   6.618
 9145WAT  HW2  36579   3.795   3.317   6.487
 9145WAT  MW   36580   3.777   3.294   6.569
 9146WAT  OW   36581   1.839   3.561   0.858
 9146WAT  HW1  36582   1.852   3.646   0.901
 9146WAT  HW2  36583   1.927   3.533   0.834
 9146WAT  MW   36584   1.852   3.569   0.861
 9147WAT  OW   36585   0.483   4.913   0.279
 9147WAT  HW1  36586   0.449   4.887   0.365
 9147WAT  HW2  36587   0.412   4.964   0.240
 9147WAT  MW   36588   0.469   4.916   0.285
 9148WAT  OW   36589   2.334   0.627   5.217
 9148WAT  HW1  36590   2.254   0.611   5.166
 9148WAT  HW2  36591   2.318   0.711   5.260
 9148WAT  MW   36592   2.321   0.636   5.216
 9149WAT  OW   36593   5.117   2.102   1.550
 9149WAT  HW1  36594   5.117   2.067   1.460
 9149WAT  HW2  36595   5.205   2.139   1.561
 9149WAT  MW   36596   5.129   2.102   1.540
 9150WAT  OW   36597   2.655   1.527   3.644
 9150WAT  HW1  36598   2.725   1.566   3.697
 9150WAT  HW2  36599   2.688   1.441   3.620
 9150WAT  MW   36600   2.668   1.521   3.648
 9151WAT  OW   36601   6.097   5.860   5.685
 9151WAT  HW1  36602   6.118   5.952   5.702
 9151WAT  HW2  36603   6.144   5.812   5.752
 9151WAT  MW   36604   6.106   5.866   5.696
 9152WAT  OW   36605   4.305   0.223   1.492
 9152WAT  HW1  36606   4.286   0.148   1.436
 9152WAT  HW2  36607   4.221   0.268   1.502
 9152WAT  MW   36608   4.291   0.219   1.486
 9153WAT  OW   36609   5.818   0.408   0.192
 9153WAT  HW1  36610   5.852   0.496   0.177
 9153WAT  HW2  36611   5.723   0.417   0.181
 9153WAT  MW   36612   5.810   0.421   0.189
 9154WAT  OW   36613   6.595   0.142   3.342
 9154WAT  HW1  36614   6.545   0.063   3.321
 9154WAT  HW2  36615   6.674   0.109   3.386
 9154WAT  MW   36616   6.599   0.127   3.345
 9155WAT  OW   36617   4.359   1.704   1.572
 9155WAT  HW1  36618   4.378   1.642   1.643
 9155WAT  HW2  36619   4.291   1.760   1.607
 9155WAT  MW   36620   4.352   1.703   1.586
 9156WAT  OW   36621   1.619   5.749   0.731
 9156WAT  HW1  36622   1.625   5.836   0.693
 9156WAT  HW2  36623   1.525   5.733   0.740
 9156WAT  MW   36624   1.607   5.758   0.727
 9157WAT  OW   36625   5.888   3.423   0.447
 9157WAT  HW1  36626   5.892   3.489   0.515
 9157WAT  HW2  36627   5.938   3.349   0.482
 9157WAT  MW   36628   5.895   3.422   0.461
 9158WAT  OW   36629   2.528   3.530   3.492
 9158WAT  HW1  36630   2.473   3.608   3.497
 9158WAT  HW2  36631   2.591   3.549   3.422
 9158WAT  MW   36632   2.529   3.543   3.483
 9159WAT  OW   36633   1.378   4.812   0.518
 9159WAT  HW1  36634   1.372   4.808   0.614
 9159WAT  HW2  36635   1.320   4.743   0.488
 9159WAT  MW   36636   1.370   4.802   0.527
 9160WAT  OW   36637   3.887   2.479   4.741
 9160WAT  HW1  36638   3.922   2.568   4.743
 9160WAT  HW2  36639   3.792   2.490   4.744
 9160WAT  MW   36640   3.879   2.492   4.742
 9161WAT  OW   36641   0.464   4.141   5.460
 9161WAT  HW1  36642   0.479   4.195   5.537
 9161WAT  HW2  36643   0.505   4.057   5.481
 9161WAT  MW   36644   0.472   4.137   5.473
 9162WAT  OW   36645   3.253   2.044   4.220
 9162WAT  HW1  36646   3.197   1.966   4.218
 9162WAT  HW2  36647   3.338   2.012   4.250
 9162WAT  MW   36648   3.257   2.029   4.224
 9163WAT  OW   36649   0.353   5.662   4.708
 9163WAT  HW1  36650   0.281   5.663   4.645
 9163WAT  HW2  36651   0.404   5.584   4.685
 9163WAT  MW   36652   0.350   5.652   4.697
 9164WAT  OW   36653   0.672   6.595   3.798
 9164WAT  HW1  36654   0.682   6.612   3.891
 9164WAT  HW2  36655   0.577   6.596   3.784
 9164WAT  MW   36656   0.661   6.598   3.808
 9165WAT  OW   36657   4.105   4.606   3.059
 9165WAT  HW1  36658   4.053   4.541   3.104
 9165WAT  HW2  36659   4.072   4.606   2.969
 9165WAT  MW   36660   4.094   4.597   3.053
 9166WAT  OW   36661   1.184   2.873   2.676
 9166WAT  HW1  36662   1.151   2.903   2.591
 9166WAT  HW2  36663   1.157   2.942   2.737
 9166WAT  MW   36664   1.176   2.886   2.673
 9167WAT  OW   36665   4.638   0.183   5.476
 9167WAT  HW1  36666   4.669   0.242   5.407
 9167WAT  HW2  36667   4.609   0.105   5.430
 9167WAT  MW   36668   4.638   0.181   5.461
 9168WAT  OW   36669   5.961   5.394   3.506
 9168WAT  HW1  36670   5.970   5.458   3.577
 9168WAT  HW2  36671   5.981   5.310   3.547
 9168WAT  MW   36672   5.964   5.391   3.521
 9169WAT  OW   36673   3.774   6.223   5.303
 9169WAT  HW1  36674   3.817   6.264   5.379
 9169WAT  HW2  36675   3.806   6.272   5.228
 9169WAT  MW   36676   3.784   6.235   5.303
 9170WAT  OW   36677   6.253   1.955   3.481
 9170WAT  HW1  36678   6.221   1.946   3.571
 9170WAT  HW2  36679   6.298   1.873   3.464
 9170WAT  MW   36680   6.255   1.943   3.491
 9171WAT  OW   36681   1.742   3.695   0.635
 9171WAT  HW1  36682   1.791   3.650   0.566
 9171WAT  HW2  36683   1.777   3.658   0.716
 9171WAT  MW   36684   1.753   3.684   0.637
 9172WAT  OW   36685   5.433   6.327   4.495
 9172WAT  HW1  36686   5.350   6.357   4.532
 9172WAT  HW2  36687   5.418   6.324   4.401
 9172WAT  MW   36688   5.420   6.331   4.488
 9173WAT  OW   36689   6.015   4.633   3.759
 9173WAT  HW1  36690   5.954   4.559   3.762
 9173WAT  HW2  36691   6.090   4.599   3.710
 9173WAT  MW   36692   6.017   4.619   3.753
 9174WAT  OW   36693   4.676   5.108   1.988
 9174WAT  HW1  36694   4.628   5.080   2.065
 9174WAT  HW2  36695   4.644   5.052   1.917
 9174WAT  MW   36696   4.665   5.097   1.989
 9175WAT  OW   36697   1.590   3.318   1.526
 9175WAT  HW1  36698   1.567   3.404   1.560
 9175WAT  HW2  36699   1.547   3.257   1.585
 9175WAT  MW   36700   1.581   3.321   1.538
 9176WAT  OW   36701   2.701   2.499   6.274
 9176WAT  HW1  36702   2.679   2.447   6.196
 9176WAT  HW2  36703   2.694   2.438   6.347
 9176WAT  MW   36704   2.697   2.484   6.273
 9177WAT  OW   36705   2.937   0.275   0.445
 9177WAT  HW1  36706   2.905   0.342   0.504
 9177WAT  HW2  36707   3.032   0.274   0.459
 9177WAT  MW   36708   2.946   0.283   0.454
 9178WAT  OW   36709   3.955   3.668   5.004
 9178WAT  HW1  36710   3.944   3.650   5.097
 9178WAT  HW2  36711   3.868   3.694   4.974
 9178WAT  MW   36712   3.942   3.669   5.012
 9179WAT  OW   36713   0.109   5.632   0.281
 9179WAT  HW1  36714   0.042   5.632   0.350
 9179WAT  HW2  36715   0.112   5.542   0.250
 9179WAT  MW   36716   0.101   5.620   0.286
 9180WAT  OW   36717   4.628   3.380   4.400
 9180WAT  HW1  36718   4.589   3.461   4.367
 9180WAT  HW2  36719   4.720   3.402   4.415
 9180WAT  MW   36720   4.635   3.394   4.397
 9181WAT  OW   36721   6.419   1.347   1.701
 9181WAT  HW1  36722   6.392   1.266   1.658
 9181WAT  HW2  36723   6.468   1.318   1.778
 9181WAT  MW   36724   6.422   1.333   1.705
 9182WAT  OW   36725   0.972   0.768   2.459
 9182WAT  HW1  36726   0.939   0.760   2.549
 9182WAT  HW2  36727   1.066   0.752   2.466
 9182WAT  MW   36728   0.980   0.765   2.472
 9183WAT  OW   36729   1.022   0.241   1.840
 9183WAT  HW1  36730   1.067   0.319   1.873
 9183WAT  HW2  36731   0.992   0.196   1.918
 9183WAT  MW   36732   1.024   0.246   1.855
 9184WAT  OW   36733   1.560   1.140   3.668
 9184WAT  HW1  36734   1.521   1.191   3.739
 9184WAT  HW2  36735   1.654   1.140   3.687
 9184WAT  MW   36736   1.568   1.147   3.680
 9185WAT  OW   36737   6.391   1.459   3.360
 9185WAT  HW1  36738   6.480   1.423   3.366
 9185WAT  HW2  36739   6.349   1.408   3.292
 9185WAT  MW   36740   6.397   1.448   3.352
 9186WAT  OW   36741   2.802   5.167   0.950
 9186WAT  HW1  36742   2.843   5.252   0.965
 9186WAT  HW2  36743   2.760   5.145   1.033
 9186WAT  MW   36744   2.802   5.175   0.963
 9187WAT  OW   36745   1.159   1.101   2.194
 9187WAT  HW1  36746   1.144   1.190   2.226
 9187WAT  HW2  36747   1.084   1.083   2.137
 9187WAT  MW   36748   1.147   1.110   2.190
 9188WAT  OW   36749   4.112   3.177   4.590
 9188WAT  HW1  36750   4.102   3.193   4.684
 9188WAT  HW2  36751   4.204   3.151   4.580
 9188WAT  MW   36752   4.123   3.176   4.601
 9189WAT  OW   36753   0.488   0.272   6.610
 9189WAT  HW1  36754   0.410   0.269   6.555
 9189WAT  HW2  36755   0.525   0.358   6.596
 9189WAT  MW   36756   0.483   0.283   6.601
 9190WAT  OW   36757   4.732   0.029   4.364
 9190WAT  HW1  36758   4.733  -0.064   4.341
 9190WAT  HW2  36759   4.765   0.073   4.286
 9190WAT  MW   36760   4.736   0.022   4.350
 9191WAT  OW   36761   2.294   1.405   2.955
 9191WAT  HW1  36762   2.203   1.377   2.965
 9191WAT  HW2  36763   2.304   1.421   2.861
 9191WAT  MW   36764   2.283   1.404   2.944
 9192WAT  OW   36765   6.369   2.690   0.749
 9192WAT  HW1  36766   6.316   2.614   0.728
 9192WAT  HW2  36767   6.327   2.763   0.704
 9192WAT  MW   36768   6.357   2.690   0.741
 9193WAT  OW   36769   3.300   1.950   3.070
 9193WAT  HW1  36770   3.275   1.861   3.096
 9193WAT  HW2  36771   3.218   1.990   3.041
 9193WAT  MW   36772   3.286   1.943   3.070
 9194WAT  OW   36773   2.448   5.404   0.722
 9194WAT  HW1  36774   2.523   5.463   0.712
 9194WAT  HW2  36775   2.371   5.461   0.716
 9194WAT  MW   36776   2.448   5.420   0.720
 9195WAT  OW   36777   1.181   3.673   1.281
 9195WAT  HW1  36778   1.130   3.626   1.215
 9195WAT  HW2  36779   1.141   3.649   1.365
 9195WAT  MW   36780   1.169   3.664   1.283
 9196WAT  OW   36781   1.900   4.976   0.849
 9196WAT  HW1  36782   1.896   5.066   0.816
 9196WAT  HW2  36783   1.818   4.937   0.819
 9196WAT  MW   36784   1.888   4.983   0.840
 9197WAT  OW   36785   2.710   3.948   6.648
 9197WAT  HW1  36786   2.680   4.018   6.707
 9197WAT  HW2  36787   2.629   3.906   6.618
 9197WAT  MW   36788   2.695   3.952   6.652
 9198WAT  OW   36789   0.745   5.025   4.897
 9198WAT  HW1  36790   0.832   5.001   4.865
 9198WAT  HW2  36791   0.722   4.956   4.958
 9198WAT  MW   36792   0.753   5.013   4.901
 9199WAT  OW   36793   5.696   6.668   1.419
 9199WAT  HW1  36794   5.623   6.611   1.394
 9199WAT  HW2  36795   5.654   6.751   1.441
 9199WAT  MW   36796   5.681   6.671   1.419
 9200WAT  OW   36797   1.735   0.283   1.326
 9200WAT  HW1  36798   1.801   0.319   1.386
 9200WAT  HW2  36799   1.667   0.248   1.384
 9200WAT  MW   36800   1.735   0.283   1.342
 9201WAT  OW   36801   1.089   5.463   1.359
 9201WAT  HW1  36802   1.022   5.402   1.390
 9201WAT  HW2  36803   1.137   5.489   1.438
 9201WAT  MW   36804   1.086   5.459   1.373
 9202WAT  OW   36805   5.890   4.001   6.379
 9202WAT  HW1  36806   5.887   4.080   6.325
 9202WAT  HW2  36807   5.844   3.935   6.328
 9202WAT  MW   36808   5.884   4.003   6.365
 9203WAT  OW   36809   5.070   6.385   5.223
 9203WAT  HW1  36810   5.095   6.470   5.260
 9203WAT  HW2  36811   5.009   6.406   5.152
 9203WAT  MW   36812   5.065   6.399   5.219
 9204WAT  OW   36813   3.369   2.824   1.495
 9204WAT  HW1  36814   3.359   2.918   1.514
 9204WAT  HW2  36815   3.298   2.782   1.543
 9204WAT  MW   36816   3.359   2.831   1.504
 9205WAT  OW   36817   2.655   1.813   0.035
 9205WAT  HW1  36818   2.610   1.793   0.117
 9205WAT  HW2  36819   2.738   1.766   0.040
 9205WAT  MW   36820   2.660   1.804   0.046
 9206WAT  OW   36821   6.268   3.846   4.799
 9206WAT  HW1  36822   6.213   3.901   4.743
 9206WAT  HW2  36823   6.249   3.757   4.773
 9206WAT  MW   36824   6.258   3.842   4.788
 9207WAT  OW   36825   1.967   1.845   3.638
 9207WAT  HW1  36826   1.918   1.872   3.561
 9207WAT  HW2  36827   2.055   1.826   3.606
 9207WAT  MW   36828   1.972   1.846   3.624
 9208WAT  OW   36829   1.520   5.859   5.706
 9208WAT  HW1  36830   1.509   5.865   5.801
 9208WAT  HW2  36831   1.470   5.932   5.672
 9208WAT  MW   36832   1.512   5.869   5.714
 9209WAT  OW   36833   4.196   1.532   1.120
 9209WAT  HW1  36834   4.251   1.517   1.196
 9209WAT  HW2  36835   4.119   1.477   1.135
 9209WAT  MW   36836   4.193   1.523   1.132
 9210WAT  OW   36837   3.920   6.490   3.296
 9210WAT  HW1  36838   3.901   6.582   3.317
 9210WAT  HW2  36839   3.975   6.460   3.368
 9210WAT  MW   36840   3.925   6.498   3.308
 9211WAT  OW   36841   0.079   4.277   5.969
 9211WAT  HW1  36842   0.030   4.256   5.890
 9211WAT  HW2  36843   0.171   4.272   5.943
 9211WAT  MW   36844   0.085   4.274   5.955
 9212WAT  OW   36845   1.904   3.484   4.164
 9212WAT  HW1  36846   1.946   3.406   4.200
 9212WAT  HW2  36847   1.819   3.453   4.132
 9212WAT  MW   36848   1.898   3.470   4.165
 9213WAT  OW   36849   4.866   0.300   3.868
 9213WAT  HW1  36850   4.779   0.283   3.833
 9213WAT  HW2  36851   4.883   0.392   3.847
 9213WAT  MW   36852   4.857   0.310   3.861
 9214WAT  OW   36853   4.687   4.365   3.169
 9214WAT  HW1  36854   4.694   4.329   3.257
 9214WAT  HW2  36855   4.694   4.290   3.111
 9214WAT  MW   36856   4.689   4.351   3.173
 9215WAT  OW   36857   2.493   0.244   3.217
 9215WAT  HW1  36858   2.558   0.176   3.201
 9215WAT  HW2  36859   2.450   0.216   3.298
 9215WAT  MW   36860   2.496   0.231   3.226
 9216WAT  OW   36861   4.845   2.099   0.679
 9216WAT  HW1  36862   4.846   2.069   0.770
 9216WAT  HW2  36863   4.795   2.181   0.681
 9216WAT  MW   36864   4.839   2.106   0.692
 9217WAT  OW   36865   5.636   4.329   1.681
 9217WAT  HW1  36866   5.654   4.238   1.705
 9217WAT  HW2  36867   5.557   4.324   1.628
 9217WAT  MW   36868   5.628   4.316   1.677
 9218WAT  OW   36869   4.298   4.823   2.992
 9218WAT  HW1  36870   4.315   4.847   3.083
 9218WAT  HW2  36871   4.250   4.740   2.997
 9218WAT  MW   36872   4.294   4.815   3.004
 9219WAT  OW   36873   0.639   5.434   3.952
 9219WAT  HW1  36874   0.575   5.497   3.983
 9219WAT  HW2  36875   0.723   5.477   3.964
 9219WAT  MW   36876   0.641   5.448   3.958
 9220WAT  OW   36877   3.656   2.927   6.434
 9220WAT  HW1  36878   3.589   2.867   6.402
 9220WAT  HW2  36879   3.622   3.014   6.415
 9220WAT  MW   36880   3.643   2.931   6.427
 9221WAT  OW   36881   5.488   1.148   1.485
 9221WAT  HW1  36882   5.499   1.176   1.576
 9221WAT  HW2  36883   5.575   1.158   1.447
 9221WAT  MW   36884   5.501   1.153   1.492
 9222WAT  OW   36885   6.672   0.926   1.256
 9222WAT  HW1  36886   6.608   0.861   1.225
 9222WAT  HW2  36887   6.683   0.985   1.181
 9222WAT  MW   36888   6.665   0.925   1.242
 9223WAT  OW   36889   0.287   0.314   2.529
 9223WAT  HW1  36890   0.382   0.308   2.519
 9223WAT  HW2  36891   0.254   0.320   2.440
 9223WAT  MW   36892   0.295   0.314   2.516
 9224WAT  OW   36893   1.968   4.967   6.637
 9224WAT  HW1  36894   1.955   4.913   6.714
 9224WAT  HW2  36895   1.981   5.056   6.671
 9224WAT  MW   36896   1.968   4.972   6.652
 9225WAT  OW   36897   0.045   5.028   1.477
 9225WAT  HW1  36898   0.132   5.023   1.518
 9225WAT  HW2  36899  -0.006   5.083   1.537
 9225WAT  MW   36900   0.050   5.035   1.491
 9226WAT  OW   36901   5.222   1.122   2.713
 9226WAT  HW1  36902   5.312   1.138   2.742
 9226WAT  HW2  36903   5.216   1.027   2.706
 9226WAT  MW   36904   5.233   1.112   2.716
 9227WAT  OW   36905   0.176   2.515   4.535
 9227WAT  HW1  36906   0.262   2.541   4.568
 9227WAT  HW2  36907   0.134   2.598   4.511
 9227WAT  MW   36908   0.182   2.530   4.536
 9228WAT  OW   36909   2.060   2.370   3.977
 9228WAT  HW1  36910   2.066   2.458   3.939
 9228WAT  HW2  36911   2.145   2.356   4.019
 9228WAT  MW   36912   2.072   2.380   3.978
 9229WAT  OW   36913   2.571   1.375   1.636
 9229WAT  HW1  36914   2.605   1.377   1.725
 9229WAT  HW2  36915   2.478   1.396   1.645
 9229WAT  MW   36916   2.563   1.378   1.649
 9230WAT  OW   36917   5.948   6.226   0.245
 9230WAT  HW1  36918   5.909   6.294   0.190
 9230WAT  HW2  36919   5.989   6.166   0.183
 9230WAT  MW   36920   5.948   6.227   0.229
 9231WAT  OW   36921   3.486   5.538   5.194
 9231WAT  HW1  36922   3.526   5.622   5.215
 9231WAT  HW2  36923   3.559   5.482   5.167
 9231WAT  MW   36924   3.500   5.541   5.193
 9232WAT  OW   36925   2.431   1.710   6.289
 9232WAT  HW1  36926   2.427   1.725   6.384
 9232WAT  HW2  36927   2.389   1.787   6.251
 9232WAT  MW   36928   2.425   1.722   6.296
 9233WAT  OW   36929   4.797   0.328   5.831
 9233WAT  HW1  36930   4.832   0.260   5.773
 9233WAT  HW2  36931   4.873   0.362   5.877
 9233WAT  MW   36932   4.812   0.324   5.829
 9234WAT  OW   36933   4.811   6.444   2.912
 9234WAT  HW1  36934   4.848   6.364   2.949
 9234WAT  HW2  36935   4.720   6.444   2.941
 9234WAT  MW   36936   4.804   6.434   2.921
 9235WAT  OW   36937   6.499   0.561   4.249
 9235WAT  HW1  36938   6.484   0.570   4.155
 9235WAT  HW2  36939   6.594   0.563   4.258
 9235WAT  MW   36940   6.510   0.563   4.238
 9236WAT  OW   36941   0.994   3.539   2.825
 9236WAT  HW1  36942   1.085   3.553   2.797
 9236WAT  HW2  36943   0.983   3.598   2.900
 9236WAT  MW   36944   1.005   3.549   2.831
 9237WAT  OW   36945   5.269   3.235   5.410
 9237WAT  HW1  36946   5.185   3.260   5.448
 9237WAT  HW2  36947   5.254   3.149   5.372
 9237WAT  MW   36948   5.256   3.227   5.410
 9238WAT  OW   36949   5.627   4.070   4.990
 9238WAT  HW1  36950   5.690   4.043   5.057
 9238WAT  HW2  36951   5.644   4.163   4.976
 9238WAT  MW   36952   5.638   4.079   4.997
 9239WAT  OW   36953   0.440   5.930   5.481
 9239WAT  HW1  36954   0.430   5.838   5.503
 9239WAT  HW2  36955   0.419   5.935   5.388
 9239WAT  MW   36956   0.436   5.918   5.472
 9240WAT  OW   36957   2.940   4.920   2.350
 9240WAT  HW1  36958   2.928   4.896   2.258
 9240WAT  HW2  36959   3.033   4.908   2.366
 9240WAT  MW   36960   2.951   4.915   2.340
 9241WAT  OW   36961   4.422   1.767   3.544
 9241WAT  HW1  36962   4.380   1.750   3.460
 9241WAT  HW2  36963   4.515   1.775   3.523
 9241WAT  MW   36964   4.429   1.766   3.530
 9242WAT  OW   36965   4.918   5.294   4.921
 9242WAT  HW1  36966   4.966   5.222   4.879
 9242WAT  HW2  36967   4.826   5.267   4.918
 9242WAT  MW   36968   4.912   5.281   4.915
 9243WAT  OW   36969   5.860   6.113   6.152
 9243WAT  HW1  36970   5.852   6.192   6.097
 9243WAT  HW2  36971   5.841   6.144   6.241
 9243WAT  MW   36972   5.856   6.128   6.156
 9244WAT  OW   36973   5.419   1.078   1.142
 9244WAT  HW1  36974   5.343   1.136   1.139
 9244WAT  HW2  36975   5.490   1.132   1.175
 9244WAT  MW   36976   5.419   1.093   1.146
 9245WAT  OW   36977   5.205   2.353   4.055
 9245WAT  HW1  36978   5.212   2.264   4.020
 9245WAT  HW2  36979   5.201   2.409   3.978
 9245WAT  MW   36980   5.205   2.349   4.040
 9246WAT  OW   36981   3.683   4.811   1.629
 9246WAT  HW1  36982   3.647   4.768   1.552
 9246WAT  HW2  36983   3.634   4.774   1.703
 9246WAT  MW   36984   3.672   4.801   1.629
 9247WAT  OW   36985   3.608   2.910   2.192
 9247WAT  HW1  36986   3.572   2.978   2.249
 9247WAT  HW2  36987   3.532   2.875   2.146
 9247WAT  MW   36988   3.594   2.914   2.193
 9248WAT  OW   36989   0.144   5.699   4.526
 9248WAT  HW1  36990   0.093   5.630   4.485
 9248WAT  HW2  36991   0.079   5.759   4.562
 9248WAT  MW   36992   0.129   5.698   4.526
 9249WAT  OW   36993   5.856   5.130   0.820
 9249WAT  HW1  36994   5.883   5.206   0.769
 9249WAT  HW2  36995   5.813   5.167   0.897
 9249WAT  MW   36996   5.854   5.145   0.823
 9250WAT  OW   36997   1.561   0.944   5.616
 9250WAT  HW1  36998   1.520   0.981   5.537
 9250WAT  HW2  36999   1.592   1.020   5.665
 9250WAT  MW   37000   1.560   0.959   5.612
 9251WAT  OW   37001   0.979   4.866   0.038
 9251WAT  HW1  37002   0.928   4.854  -0.042
 9251WAT  HW2  37003   1.069   4.851   0.012
 9251WAT  MW   37004   0.984   4.862   0.024
 9252WAT  OW   37005   0.045   6.518   3.230
 9252WAT  HW1  37006  -0.045   6.549   3.221
 9252WAT  HW2  37007   0.037   6.425   3.251
 9252WAT  MW   37008   0.032   6.510   3.232
 9253WAT  OW   37009   5.183   4.220   6.347
 9253WAT  HW1  37010   5.237   4.151   6.308
 9253WAT  HW2  37011   5.100   4.176   6.369
 9253WAT  MW   37012   5.179   4.205   6.344
 9254WAT  OW   37013   1.774   0.117   2.822
 9254WAT  HW1  37014   1.858   0.078   2.798
 9254WAT  HW2  37015   1.795   0.176   2.895
 9254WAT  MW   37016   1.788   0.120   2.828
 9255WAT  OW   37017   5.331   2.946   3.432
 9255WAT  HW1  37018   5.295   2.985   3.352
 9255WAT  HW2  37019   5.311   2.853   3.424
 9255WAT  MW   37020   5.324   2.939   3.420
 9256WAT  OW   37021   0.355   1.690   2.022
 9256WAT  HW1  37022   0.357   1.760   2.088
 9256WAT  HW2  37023   0.278   1.709   1.968
 9256WAT  MW   37024   0.345   1.702   2.024
 9257WAT  OW   37025   1.103   3.030   2.899
 9257WAT  HW1  37026   1.047   2.967   2.944
 9257WAT  HW2  37027   1.054   3.113   2.903
 9257WAT  MW   37028   1.089   3.033   2.906
 9258WAT  OW   37029   2.500   1.228   2.514
 9258WAT  HW1  37030   2.519   1.296   2.449
 9258WAT  HW2  37031   2.584   1.212   2.557
 9258WAT  MW   37032   2.513   1.235   2.511
 9259WAT  OW   37033   3.170   3.069   1.557
 9259WAT  HW1  37034   3.255   3.070   1.601
 9259WAT  HW2  37035   3.115   3.014   1.613
 9259WAT  MW   37036   3.174   3.062   1.570
 9260WAT  OW   37037   2.999   2.919   1.719
 9260WAT  HW1  37038   2.969   2.907   1.809
 9260WAT  HW2  37039   3.054   2.843   1.702
 9260WAT  MW   37040   3.002   2.908   1.729
 9261WAT  OW   37041   2.981   0.499   3.867
 9261WAT  HW1  37042   3.014   0.513   3.956
 9261WAT  HW2  37043   2.886   0.508   3.876
 9261WAT  MW   37044   2.973   0.502   3.880
 9262WAT  OW   37045   4.409   4.351   5.789
 9262WAT  HW1  37046   4.439   4.301   5.713
 9262WAT  HW2  37047   4.356   4.421   5.751
 9262WAT  MW   37048   4.406   4.354   5.774
 9263WAT  OW   37049   4.640   1.387   3.436
 9263WAT  HW1  37050   4.705   1.416   3.500
 9263WAT  HW2  37051   4.655   1.441   3.359
 9263WAT  MW   37052   4.651   1.398   3.435
 9264WAT  OW   37053   6.377   3.771   1.227
 9264WAT  HW1  37054   6.328   3.782   1.145
 9264WAT  HW2  37055   6.380   3.859   1.265
 9264WAT  MW   37056   6.371   3.784   1.221
 9265WAT  OW   37057   4.823   4.702   1.904
 9265WAT  HW1  37058   4.894   4.727   1.963
 9265WAT  HW2  37059   4.747   4.690   1.962
 9265WAT  MW   37060   4.823   4.703   1.920
 9266WAT  OW   37061   3.308   2.129   0.319
 9266WAT  HW1  37062   3.253   2.052   0.303
 9266WAT  HW2  37063   3.266   2.199   0.268
 9266WAT  MW   37064   3.295   2.128   0.310
 9267WAT  OW   37065   6.156   0.306   6.324
 9267WAT  HW1  37066   6.112   0.235   6.278
 9267WAT  HW2  37067   6.228   0.331   6.267
 9267WAT  MW   37068   6.159   0.300   6.310
 9268WAT  OW   37069   2.496   6.361   6.123
 9268WAT  HW1  37070   2.527   6.450   6.138
 9268WAT  HW2  37071   2.551   6.307   6.179
 9268WAT  MW   37072   2.507   6.366   6.132
 9269WAT  OW   37073   4.538   4.257   2.050
 9269WAT  HW1  37074   4.546   4.194   2.122
 9269WAT  HW2  37075   4.590   4.332   2.078
 9269WAT  MW   37076   4.546   4.259   2.063
 9270WAT  OW   37077   1.869   4.672   2.623
 9270WAT  HW1  37078   1.865   4.576   2.620
 9270WAT  HW2  37079   1.777   4.699   2.624
 9270WAT  MW   37080   1.856   4.663   2.623
 9271WAT  OW   37081   4.960   1.747   0.603
 9271WAT  HW1  37082   4.990   1.830   0.563
 9271WAT  HW2  37083   5.022   1.682   0.570
 9271WAT  MW   37084   4.972   1.750   0.593
 9272WAT  OW   37085   5.558   6.036   6.116
 9272WAT  HW1  37086   5.649   6.062   6.131
 9272WAT  HW2  37087   5.537   5.977   6.188
 9272WAT  MW   37088   5.567   6.032   6.127
 9273WAT  OW   37089   4.711   5.600   3.137
 9273WAT  HW1  37090   4.765   5.538   3.089
 9273WAT  HW2  37091   4.716   5.571   3.228
 9273WAT  MW   37092   4.719   5.588   3.143
 9274WAT  OW   37093   1.340   4.074   6.324
 9274WAT  HW1  37094   1.313   3.982   6.329
 9274WAT  HW2  37095   1.262   4.120   6.292
 9274WAT  MW   37096   1.326   4.068   6.320
 9275WAT  OW   37097   2.770   4.522   0.017
 9275WAT  HW1  37098   2.759   4.433  -0.017
 9275WAT  HW2  37099   2.738   4.518   0.107
 9275WAT  MW   37100   2.764   4.510   0.024
 9276WAT  OW   37101   4.289   4.195   0.766
 9276WAT  HW1  37102   4.245   4.212   0.849
 9276WAT  HW2  37103   4.221   4.155   0.711
 9276WAT  MW   37104   4.274   4.192   0.769
 9277WAT  OW   37105   5.475   0.946   3.348
 9277WAT  HW1  37106   5.553   0.935   3.402
 9277WAT  HW2  37107   5.435   0.859   3.345
 9277WAT  MW   37108   5.480   0.933   3.355
 9278WAT  OW   37109   4.885   0.252   5.061
 9278WAT  HW1  37110   4.844   0.307   4.995
 9278WAT  HW2  37111   4.979   0.264   5.048
 9278WAT  MW   37112   4.892   0.261   5.051
 9279WAT  OW   37113   4.615   5.546   4.702
 9279WAT  HW1  37114   4.552   5.478   4.725
 9279WAT  HW2  37115   4.692   5.499   4.670
 9279WAT  MW   37116   4.617   5.531   4.701
 9280WAT  OW   37117   1.554   0.566   1.174
 9280WAT  HW1  37118   1.624   0.507   1.147
 9280WAT  HW2  37119   1.573   0.648   1.128
 9280WAT  MW   37120   1.566   0.569   1.164
 9281WAT  OW   37121   6.202   5.187   1.091
 9281WAT  HW1  37122   6.155   5.116   1.047
 9281WAT  HW2  37123   6.237   5.147   1.171
 9281WAT  MW   37124   6.200   5.172   1.096
 9282WAT  OW   37125   4.196   1.484   0.308
 9282WAT  HW1  37126   4.226   1.393   0.308
 9282WAT  HW2  37127   4.236   1.522   0.386
 9282WAT  MW   37128   4.205   1.477   0.318
 9283WAT  OW   37129   1.439   0.423   1.841
 9283WAT  HW1  37130   1.456   0.492   1.776
 9283WAT  HW2  37131   1.457   0.341   1.794
 9283WAT  MW   37132   1.444   0.422   1.826
 9284WAT  OW   37133   3.382   2.222   1.468
 9284WAT  HW1  37134   3.416   2.305   1.501
 9284WAT  HW2  37135   3.350   2.242   1.380
 9284WAT  MW   37136   3.382   2.236   1.461
 9285WAT  OW   37137   3.388   3.601   5.941
 9285WAT  HW1  37138   3.377   3.659   5.866
 9285WAT  HW2  37139   3.300   3.590   5.976
 9285WAT  MW   37140   3.375   3.607   5.936
 9286WAT  OW   37141   0.063   3.313   5.445
 9286WAT  HW1  37142   0.021   3.286   5.527
 9286WAT  HW2  37143   0.042   3.406   5.437
 9286WAT  MW   37144   0.055   3.322   5.454
 9287WAT  OW   37145   5.765   5.233   6.460
 9287WAT  HW1  37146   5.771   5.138   6.470
 9287WAT  HW2  37147   5.816   5.252   6.381
 9287WAT  MW   37148   5.773   5.223   6.451
 9288WAT  OW   37149   3.392   3.585   1.582
 9288WAT  HW1  37150   3.432   3.599   1.668
 9288WAT  HW2  37151   3.298   3.581   1.600
 9288WAT  MW   37152   3.385   3.587   1.596
 9289WAT  OW   37153   4.457   1.119   1.523
 9289WAT  HW1  37154   4.516   1.177   1.572
 9289WAT  HW2  37155   4.496   1.113   1.436
 9289WAT  MW   37156   4.470   1.126   1.518
 9290WAT  OW   37157   6.429   4.367   5.826
 9290WAT  HW1  37158   6.429   4.422   5.904
 9290WAT  HW2  37159   6.336   4.345   5.811
 9290WAT  MW   37160   6.416   4.371   5.834
 9291WAT  OW   37161   2.642   0.010   3.075
 9291WAT  HW1  37162   2.717  -0.039   3.108
 9291WAT  HW2  37163   2.677   0.060   3.001
 9291WAT  MW   37164   2.657   0.010   3.069
 9292WAT  OW   37165   6.031   5.296   3.881
 9292WAT  HW1  37166   6.025   5.383   3.841
 9292WAT  HW2  37167   6.118   5.265   3.858
 9292WAT  MW   37168   6.041   5.304   3.873
 9293WAT  OW   37169   1.755   2.250   3.283
 9293WAT  HW1  37170   1.739   2.190   3.210
 9293WAT  HW2  37171   1.739   2.337   3.246
 9293WAT  MW   37172   1.751   2.254   3.269
 9294WAT  OW   37173   4.840   2.851   0.288
 9294WAT  HW1  37174   4.748   2.831   0.266
 9294WAT  HW2  37175   4.840   2.945   0.307
 9294WAT  MW   37176   4.828   2.861   0.288
 9295WAT  OW   37177   2.425   6.632   1.700
 9295WAT  HW1  37178   2.411   6.685   1.779
 9295WAT  HW2  37179   2.401   6.690   1.628
 9295WAT  MW   37180   2.420   6.646   1.701
 9296WAT  OW   37181   1.999   3.231   4.204
 9296WAT  HW1  37182   1.912   3.198   4.228
 9296WAT  HW2  37183   2.056   3.198   4.273
 9296WAT  MW   37184   1.995   3.223   4.216
 9297WAT  OW   37185   2.840   5.245   3.520
 9297WAT  HW1  37186   2.803   5.157   3.511
 9297WAT  HW2  37187   2.809   5.276   3.605
 9297WAT  MW   37188   2.831   5.238   3.530
 9298WAT  OW   37189   4.271   0.711   4.755
 9298WAT  HW1  37190   4.261   0.804   4.734
 9298WAT  HW2  37191   4.275   0.668   4.670
 9298WAT  MW   37192   4.270   0.718   4.741
 9299WAT  OW   37193   1.421   0.779   1.539
 9299WAT  HW1  37194   1.469   0.697   1.545
 9299WAT  HW2  37195   1.331   0.757   1.565
 9299WAT  MW   37196   1.415   0.765   1.543
 9300WAT  OW   37197   2.462   4.122   4.880
 9300WAT  HW1  37198   2.520   4.047   4.872
 9300WAT  HW2  37199   2.430   4.138   4.791
 9300WAT  MW   37200   2.465   4.115   4.868
 9301WAT  OW   37201   0.007   2.734   5.369
 9301WAT  HW1  37202   0.054   2.809   5.404
 9301WAT  HW2  37203  -0.074   2.770   5.335
 9301WAT  MW   37204   0.003   2.748   5.369
 9302WAT  OW   37205   6.536   3.486   4.749
 9302WAT  HW1  37206   6.567   3.569   4.713
 9302WAT  HW2  37207   6.557   3.491   4.842
 9302WAT  MW   37208   6.543   3.498   4.757
 9303WAT  OW   37209   1.197   3.625   5.184
 9303WAT  HW1  37210   1.118   3.577   5.160
 9303WAT  HW2  37211   1.258   3.607   5.112
 9303WAT  MW   37212   1.195   3.616   5.171
 9304WAT  OW   37213   5.525   4.464   6.308
 9304WAT  HW1  37214   5.472   4.463   6.387
 9304WAT  HW2  37215   5.498   4.544   6.262
 9304WAT  MW   37216   5.514   4.475   6.312
 9305WAT  OW   37217   2.066   3.261   3.384
 9305WAT  HW1  37218   2.139   3.312   3.420
 9305WAT  HW2  37219   2.039   3.204   3.456
 9305WAT  MW   37220   2.072   3.261   3.398
 9306WAT  OW   37221   6.540   3.888   4.808
 9306WAT  HW1  37222   6.444   3.883   4.808
 9306WAT  HW2  37223   6.565   3.882   4.900
 9306WAT  MW   37224   6.531   3.886   4.820
 9307WAT  OW   37225   3.674   4.128   4.197
 9307WAT  HW1  37226   3.687   4.113   4.291
 9307WAT  HW2  37227   3.672   4.223   4.188
 9307WAT  MW   37228   3.675   4.138   4.208
 9308WAT  OW   37229   5.932   2.689   5.323
 9308WAT  HW1  37230   5.984   2.618   5.360
 9308WAT  HW2  37231   5.993   2.764   5.321
 9308WAT  MW   37232   5.947   2.690   5.328
 9309WAT  OW   37233   1.192   2.410   3.394
 9309WAT  HW1  37234   1.231   2.386   3.478
 9309WAT  HW2  37235   1.176   2.327   3.351
 9309WAT  MW   37236   1.195   2.396   3.400
 9310WAT  OW   37237   6.390   3.380   1.524
 9310WAT  HW1  37238   6.390   3.475   1.510
 9310WAT  HW2  37239   6.458   3.347   1.465
 9310WAT  MW   37240   6.399   3.388   1.514
 9311WAT  OW   37241   5.945   6.535   4.860
 9311WAT  HW1  37242   5.928   6.607   4.799
 9311WAT  HW2  37243   6.002   6.475   4.811
 9311WAT  MW   37244   5.950   6.537   4.845
 9312WAT  OW   37245   5.194   1.435   5.443
 9312WAT  HW1  37246   5.176   1.343   5.421
 9312WAT  HW2  37247   5.110   1.479   5.430
 9312WAT  MW   37248   5.180   1.428   5.438
 9313WAT  OW   37249   1.637   5.145   5.287
 9313WAT  HW1  37250   1.573   5.213   5.267
 9313WAT  HW2  37251   1.584   5.066   5.300
 9313WAT  MW   37252   1.621   5.143   5.286
 9314WAT  OW   37253   2.564   5.815   3.759
 9314WAT  HW1  37254   2.645   5.764   3.749
 9314WAT  HW2  37255   2.586   5.901   3.724
 9314WAT  MW   37256   2.578   5.819   3.753
 9315WAT  OW   37257   0.903   3.200   3.109
 9315WAT  HW1  37258   0.857   3.268   3.157
 9315WAT  HW2  37259   0.938   3.243   3.032
 9315WAT  MW   37260   0.902   3.214   3.105
 9316WAT  OW   37261   6.407   5.008   4.020
 9316WAT  HW1  37262   6.409   4.987   4.113
 9316WAT  HW2  37263   6.418   5.103   4.017
 9316WAT  MW   37264   6.409   5.018   4.032
 9317WAT  OW   37265   0.354   1.467   4.319
 9317WAT  HW1  37266   0.265   1.453   4.288
 9317WAT  HW2  37267   0.401   1.388   4.293
 9317WAT  MW   37268   0.348   1.455   4.311
 9318WAT  OW   37269   3.921   3.938   4.773
 9318WAT  HW1  37270   4.010   3.955   4.743
 9318WAT  HW2  37271   3.907   3.844   4.757
 9318WAT  MW   37272   3.930   3.928   4.767
 9319WAT  OW   37273   3.924   4.974   4.046
 9319WAT  HW1  37274   4.018   4.958   4.060
 9319WAT  HW2  37275   3.886   4.887   4.040
 9319WAT  MW   37276   3.932   4.961   4.047
 9320WAT  OW   37277   2.045   5.352   3.260
 9320WAT  HW1  37278   2.072   5.427   3.313
 9320WAT  HW2  37279   1.949   5.352   3.265
 9320WAT  MW   37280   2.036   5.362   3.268
 9321WAT  OW   37281   0.706   1.396   1.997
 9321WAT  HW1  37282   0.700   1.339   1.920
 9321WAT  HW2  37283   0.785   1.365   2.042
 9321WAT  MW   37284   0.716   1.384   1.993
 9322WAT  OW   37285   1.105   5.454   3.826
 9322WAT  HW1  37286   1.037   5.475   3.889
 9322WAT  HW2  37287   1.179   5.510   3.850
 9322WAT  MW   37288   1.106   5.464   3.837
 9323WAT  OW   37289   3.657   1.904   4.985
 9323WAT  HW1  37290   3.713   1.937   5.056
 9323WAT  HW2  37291   3.690   1.948   4.907
 9323WAT  MW   37292   3.669   1.914   4.984
 9324WAT  OW   37293   6.118   6.541   3.593
 9324WAT  HW1  37294   6.128   6.557   3.499
 9324WAT  HW2  37295   6.025   6.524   3.604
 9324WAT  MW   37296   6.107   6.541   3.582
 9325WAT  OW   37297   2.041   2.360   4.433
 9325WAT  HW1  37298   2.010   2.430   4.490
 9325WAT  HW2  37299   2.136   2.374   4.428
 9325WAT  MW   37300   2.049   2.371   4.440
 9326WAT  OW   37301   3.128   0.079   1.316
 9326WAT  HW1  37302   3.180   0.020   1.371
 9326WAT  HW2  37303   3.191   0.144   1.284
 9326WAT  MW   37304   3.143   0.080   1.319
 9327WAT  OW   37305   0.650   3.248   4.875
 9327WAT  HW1  37306   0.574   3.226   4.929
 9327WAT  HW2  37307   0.657   3.176   4.812
 9327WAT  MW   37308   0.641   3.235   4.874
 9328WAT  OW   37309   1.011   6.338   5.545
 9328WAT  HW1  37310   1.034   6.251   5.513
 9328WAT  HW2  37311   1.057   6.346   5.628
 9328WAT  MW   37312   1.020   6.327   5.551
 9329WAT  OW   37313   4.914   2.519   5.592
 9329WAT  HW1  37314   4.919   2.598   5.646
 9329WAT  HW2  37315   5.006   2.497   5.575
 9329WAT  MW   37316   4.927   2.527   5.597
 9330WAT  OW   37317   0.386   2.060   3.222
 9330WAT  HW1  37318   0.376   1.970   3.189
 9330WAT  HW2  37319   0.417   2.050   3.311
 9330WAT  MW   37320   0.389   2.047   3.229
 9331WAT  OW   37321   5.011   6.461   1.422
 9331WAT  HW1  37322   5.024   6.453   1.327
 9331WAT  HW2  37323   5.015   6.371   1.454
 9331WAT  MW   37324   5.013   6.448   1.413
 9332WAT  OW   37325   5.148   2.172   3.468
 9332WAT  HW1  37326   5.099   2.094   3.492
 9332WAT  HW2  37327   5.203   2.191   3.544
 9332WAT  MW   37328   5.149   2.164   3.481
 9333WAT  OW   37329   3.975   1.202   2.569
 9333WAT  HW1  37330   3.979   1.128   2.508
 9333WAT  HW2  37331   4.030   1.269   2.528
 9333WAT  MW   37332   3.983   1.201   2.555
 9334WAT  OW   37333   1.458   0.941   2.490
 9334WAT  HW1  37334   1.518   0.868   2.502
 9334WAT  HW2  37335   1.449   0.979   2.577
 9334WAT  MW   37336   1.465   0.936   2.503
 9335WAT  OW   37337   0.094   0.360   0.022
 9335WAT  HW1  37338   0.014   0.412   0.010
 9335WAT  HW2  37339   0.157   0.420   0.061
 9335WAT  MW   37340   0.092   0.375   0.025
 9336WAT  OW   37341   5.901   0.078   5.458
 9336WAT  HW1  37342   5.964   0.022   5.415
 9336WAT  HW2  37343   5.885   0.036   5.543
 9336WAT  MW   37344   5.907   0.065   5.464
 9337WAT  OW   37345   4.669   6.600   3.472
 9337WAT  HW1  37346   4.576   6.608   3.454
 9337WAT  HW2  37347   4.696   6.519   3.428
 9337WAT  MW   37348   4.660   6.590   3.463
 9338WAT  OW   37349   5.354   0.223   3.547
 9338WAT  HW1  37350   5.385   0.209   3.458
 9338WAT  HW2  37351   5.420   0.183   3.603
 9338WAT  MW   37352   5.367   0.216   3.543
 9339WAT  OW   37353   2.295   5.947   5.553
 9339WAT  HW1  37354   2.318   5.903   5.634
 9339WAT  HW2  37355   2.247   5.880   5.503
 9339WAT  MW   37356   2.292   5.932   5.557
 9340WAT  OW   37357   1.354   1.618   0.192
 9340WAT  HW1  37358   1.360   1.685   0.124
 9340WAT  HW2  37359   1.269   1.577   0.180
 9340WAT  MW   37360   1.344   1.622   0.182
 9341WAT  OW   37361   5.426   6.493   5.536
 9341WAT  HW1  37362   5.437   6.433   5.610
 9341WAT  HW2  37363   5.510   6.491   5.490
 9341WAT  MW   37364   5.438   6.485   5.540
 9342WAT  OW   37365   3.588   6.441   0.153
 9342WAT  HW1  37366   3.516   6.435   0.090
 9342WAT  HW2  37367   3.559   6.505   0.218
 9342WAT  MW   37368   3.575   6.448   0.153
 9343WAT  OW   37369   2.738   2.048   1.680
 9343WAT  HW1  37370   2.740   2.109   1.606
 9343WAT  HW2  37371   2.760   2.101   1.756
 9343WAT  MW   37372   2.741   2.063   1.680
 9344WAT  OW   37373   1.665   3.714   3.638
 9344WAT  HW1  37374   1.731   3.769   3.597
 9344WAT  HW2  37375   1.636   3.654   3.569
 9344WAT  MW   37376   1.670   3.713   3.624
 9345WAT  OW   37377   3.128   3.896   0.530
 9345WAT  HW1  37378   3.102   3.805   0.513
 9345WAT  HW2  37379   3.059   3.949   0.489
 9345WAT  MW   37380   3.116   3.891   0.522
 9346WAT  OW   37381   3.520   5.259   2.974
 9346WAT  HW1  37382   3.464   5.309   3.033
 9346WAT  HW2  37383   3.608   5.293   2.991
 9346WAT  MW   37384   3.525   5.270   2.984
 9347WAT  OW   37385   2.585   1.621   2.544
 9347WAT  HW1  37386   2.649   1.586   2.482
 9347WAT  HW2  37387   2.554   1.702   2.503
 9347WAT  MW   37388   2.589   1.627   2.530
 9348WAT  OW   37389   2.555   6.448   0.634
 9348WAT  HW1  37390   2.555   6.496   0.552
 9348WAT  HW2  37391   2.534   6.358   0.609
 9348WAT  MW   37392   2.552   6.442   0.620
 9349WAT  OW   37393   1.523   1.112   1.192
 9349WAT  HW1  37394   1.473   1.067   1.259
 9349WAT  HW2  37395   1.524   1.204   1.220
 9349WAT  MW   37396   1.517   1.118   1.204
 9350WAT  OW   37397   0.448   3.171   6.405
 9350WAT  HW1  37398   0.428   3.083   6.439
 9350WAT  HW2  37399   0.409   3.230   6.470
 9350WAT  MW   37400   0.440   3.167   6.418
 9351WAT  OW   37401   4.703   6.458   4.312
 9351WAT  HW1  37402   4.754   6.378   4.301
 9351WAT  HW2  37403   4.662   6.472   4.226
 9351WAT  MW   37404   4.704   6.449   4.299
 9352WAT  OW   37405   6.425   6.315   1.359
 9352WAT  HW1  37406   6.501   6.350   1.405
 9352WAT  HW2  37407   6.388   6.389   1.313
 9352WAT  MW   37408   6.430   6.329   1.359
 9353WAT  OW   37409   6.529   3.088   1.473
 9353WAT  HW1  37410   6.597   3.024   1.492
 9353WAT  HW2  37411   6.497   3.064   1.386
 9353WAT  MW   37412   6.533   3.076   1.464
 9354WAT  OW   37413   6.326   3.583   0.092
 9354WAT  HW1  37414   6.240   3.582   0.133
 9354WAT  HW2  37415   6.387   3.592   0.165
 9354WAT  MW   37416   6.323   3.584   0.107
 9355WAT  OW   37417   3.821   5.516   1.585
 9355WAT  HW1  37418   3.801   5.430   1.622
 9355WAT  HW2  37419   3.746   5.571   1.607
 9355WAT  MW   37420   3.809   5.512   1.593
 9356WAT  OW   37421   2.667   4.661   1.837
 9356WAT  HW1  37422   2.603   4.705   1.893
 9356WAT  HW2  37423   2.621   4.649   1.754
 9356WAT  MW   37424   2.652   4.665   1.833
 9357WAT  OW   37425   4.021   2.743   5.091
 9357WAT  HW1  37426   3.966   2.796   5.033
 9357WAT  HW2  37427   3.973   2.740   5.173
 9357WAT  MW   37428   4.007   2.750   5.094
 9358WAT  OW   37429   4.637   1.268   0.293
 9358WAT  HW1  37430   4.573   1.340   0.293
 9358WAT  HW2  37431   4.584   1.189   0.293
 9358WAT  MW   37432   4.622   1.267   0.293
 9359WAT  OW   37433   3.241   5.960   4.500
 9359WAT  HW1  37434   3.300   6.030   4.529
 9359WAT  HW2  37435   3.160   5.976   4.549
 9359WAT  MW   37436   3.238   5.972   4.511
 9360WAT  OW   37437   6.047   2.793   1.997
 9360WAT  HW1  37438   6.080   2.880   2.020
 9360WAT  HW2  37439   6.116   2.733   2.024
 9360WAT  MW   37440   6.061   2.797   2.004
 9361WAT  OW   37441   5.395   3.378   5.754
 9361WAT  HW1  37442   5.447   3.440   5.804
 9361WAT  HW2  37443   5.453   3.350   5.683
 9361WAT  MW   37444   5.410   3.382   5.751
 9362WAT  OW   37445   3.196   5.372   4.640
 9362WAT  HW1  37446   3.181   5.383   4.546
 9362WAT  HW2  37447   3.109   5.358   4.676
 9362WAT  MW   37448   3.182   5.372   4.632
 9363WAT  OW   37449   4.919   4.871   2.981
 9363WAT  HW1  37450   4.887   4.961   2.979
 9363WAT  HW2  37451   4.850   4.822   3.025
 9363WAT  MW   37452   4.906   4.876   2.986
 9364WAT  OW   37453   0.168   1.890   2.429
 9364WAT  HW1  37454   0.094   1.950   2.422
 9364WAT  HW2  37455   0.238   1.941   2.469
 9364WAT  MW   37456   0.167   1.905   2.433
 9365WAT  OW   37457   5.510   0.359   0.104
 9365WAT  HW1  37458   5.527   0.416   0.029
 9365WAT  HW2  37459   5.427   0.391   0.139
 9365WAT  MW   37460   5.501   0.371   0.099
 9366WAT  OW   37461   4.449   2.512   0.614
 9366WAT  HW1  37462   4.530   2.515   0.562
 9366WAT  HW2  37463   4.399   2.588   0.584
 9366WAT  MW   37464   4.453   2.523   0.603
 9367WAT  OW   37465   0.839   5.420   5.636
 9367WAT  HW1  37466   0.847   5.400   5.543
 9367WAT  HW2  37467   0.795   5.505   5.639
 9367WAT  MW   37468   0.834   5.428   5.624
 9368WAT  OW   37469   4.231   1.227   3.503
 9368WAT  HW1  37470   4.276   1.301   3.543
 9368WAT  HW2  37471   4.215   1.167   3.576
 9368WAT  MW   37472   4.235   1.228   3.518
 9369WAT  OW   37473   3.139   0.628   0.960
 9369WAT  HW1  37474   3.081   0.642   0.885
 9369WAT  HW2  37475   3.218   0.590   0.923
 9369WAT  MW   37476   3.142   0.625   0.945
 9370WAT  OW   37477   1.602   0.822   1.045
 9370WAT  HW1  37478   1.536   0.890   1.063
 9370WAT  HW2  37479   1.612   0.824   0.949
 9370WAT  MW   37480   1.595   0.831   1.034
 9371WAT  OW   37481   5.848   6.669   5.716
 9371WAT  HW1  37482   5.815   6.655   5.805
 9371WAT  HW2  37483   5.927   6.616   5.711
 9371WAT  MW   37484   5.854   6.660   5.727
 9372WAT  OW   37485   2.387   4.292   2.901
 9372WAT  HW1  37486   2.319   4.351   2.866
 9372WAT  HW2  37487   2.338   4.217   2.935
 9372WAT  MW   37488   2.371   4.290   2.901
 9373WAT  OW   37489   3.373   5.523   4.811
 9373WAT  HW1  37490   3.292   5.529   4.861
 9373WAT  HW2  37491   3.350   5.472   4.733
 9373WAT  MW   37492   3.359   5.517   4.807
 9374WAT  OW   37493   5.308   2.722   4.033
 9374WAT  HW1  37494   5.315   2.724   4.129
 9374WAT  HW2  37495   5.353   2.801   4.004
 9374WAT  MW   37496   5.315   2.732   4.042
 9375WAT  OW   37497   6.539   0.457   6.658
 9375WAT  HW1  37498   6.480   0.384   6.674
 9375WAT  HW2  37499   6.492   0.533   6.693
 9375WAT  MW   37500   6.525   0.457   6.665
 9376WAT  OW   37501   4.188   4.080   6.584
 9376WAT  HW1  37502   4.155   4.005   6.632
 9376WAT  HW2  37503   4.193   4.150   6.649
 9376WAT  MW   37504   4.184   4.079   6.599
 9377WAT  OW   37505   0.196   2.734   3.410
 9377WAT  HW1  37506   0.187   2.640   3.428
 9377WAT  HW2  37507   0.107   2.768   3.415
 9377WAT  MW   37508   0.183   2.726   3.413
 9378WAT  OW   37509   1.569   0.262   1.561
 9378WAT  HW1  37510   1.629   0.233   1.630
 9378WAT  HW2  37511   1.524   0.182   1.533
 9378WAT  MW   37512   1.571   0.247   1.566
 9379WAT  OW   37513   3.721   3.146   1.663
 9379WAT  HW1  37514   3.764   3.107   1.586
 9379WAT  HW2  37515   3.735   3.082   1.733
 9379WAT  MW   37516   3.729   3.132   1.662
 9380WAT  OW   37517   3.406   5.852   0.846
 9380WAT  HW1  37518   3.336   5.917   0.836
 9380WAT  HW2  37519   3.486   5.899   0.820
 9380WAT  MW   37520   3.408   5.867   0.841
 9381WAT  OW   37521   0.070   5.857   6.602
 9381WAT  HW1  37522   0.073   5.761   6.609
 9381WAT  HW2  37523   0.046   5.873   6.511
 9381WAT  MW   37524   0.067   5.846   6.591
 9382WAT  OW   37525   2.264   2.787   2.905
 9382WAT  HW1  37526   2.184   2.839   2.900
 9382WAT  HW2  37527   2.318   2.819   2.832
 9382WAT  MW   37528   2.260   2.798   2.894
 9383WAT  OW   37529   2.334   3.338   3.488
 9383WAT  HW1  37530   2.330   3.334   3.392
 9383WAT  HW2  37531   2.406   3.399   3.506
 9383WAT  MW   37532   2.343   3.345   3.478
 9384WAT  OW   37533   0.977   1.862   6.099
 9384WAT  HW1  37534   1.035   1.859   6.024
 9384WAT  HW2  37535   1.036   1.868   6.175
 9384WAT  MW   37536   0.992   1.862   6.099
 9385WAT  OW   37537   0.021   0.069   2.493
 9385WAT  HW1  37538   0.078   0.063   2.417
 9385WAT  HW2  37539   0.071   0.123   2.556
 9385WAT  MW   37540   0.035   0.076   2.492
 9386WAT  OW   37541   2.879   0.600   4.436
 9386WAT  HW1  37542   2.903   0.644   4.354
 9386WAT  HW2  37543   2.790   0.630   4.454
 9386WAT  MW   37544   2.870   0.610   4.428
 9387WAT  OW   37545   5.633   6.174   2.327
 9387WAT  HW1  37546   5.638   6.255   2.276
 9387WAT  HW2  37547   5.704   6.120   2.292
 9387WAT  MW   37548   5.643   6.178   2.316
 9388WAT  OW   37549   1.635   4.999   2.807
 9388WAT  HW1  37550   1.636   4.966   2.897
 9388WAT  HW2  37551   1.641   4.920   2.753
 9388WAT  MW   37552   1.636   4.984   2.812
 9389WAT  OW   37553   1.233   5.548   1.590
 9389WAT  HW1  37554   1.298   5.605   1.549
 9389WAT  HW2  37555   1.274   5.520   1.672
 9389WAT  MW   37556   1.247   5.552   1.596
 9390WAT  OW   37557   1.235   1.260   4.700
 9390WAT  HW1  37558   1.162   1.250   4.639
 9390WAT  HW2  37559   1.195   1.247   4.787
 9390WAT  MW   37560   1.220   1.257   4.704
 9391WAT  OW   37561   2.347   5.745   0.384
 9391WAT  HW1  37562   2.374   5.664   0.342
 9391WAT  HW2  37563   2.273   5.720   0.439
 9391WAT  MW   37564   2.341   5.731   0.386
 9392WAT  OW   37565   5.250   0.441   3.183
 9392WAT  HW1  37566   5.219   0.429   3.273
 9392WAT  HW2  37567   5.170   0.451   3.131
 9392WAT  MW   37568   5.235   0.441   3.188
 9393WAT  OW   37569   0.570   4.929   6.656
 9393WAT  HW1  37570   0.528   4.886   6.729
 9393WAT  HW2  37571   0.581   5.020   6.683
 9393WAT  MW   37572   0.566   4.935   6.669
 9394WAT  OW   37573   3.144   0.671   2.624
 9394WAT  HW1  37574   3.111   0.744   2.571
 9394WAT  HW2  37575   3.228   0.703   2.657
 9394WAT  MW   37576   3.151   0.685   2.622
 9395WAT  OW   37577   0.259   3.572   2.135
 9395WAT  HW1  37578   0.287   3.617   2.055
 9395WAT  HW2  37579   0.164   3.565   2.125
 9395WAT  MW   37580   0.250   3.577   2.123
 9396WAT  OW   37581   3.673   2.540   1.440
 9396WAT  HW1  37582   3.721   2.586   1.509
 9396WAT  HW2  37583   3.740   2.517   1.376
 9396WAT  MW   37584   3.689   2.543   1.441
 9397WAT  OW   37585   3.998   1.709   4.531
 9397WAT  HW1  37586   3.993   1.726   4.437
 9397WAT  HW2  37587   3.984   1.795   4.571
 9397WAT  MW   37588   3.996   1.723   4.524
 9398WAT  OW   37589   0.332   4.722   3.924
 9398WAT  HW1  37590   0.242   4.719   3.956
 9398WAT  HW2  37591   0.345   4.639   3.879
 9398WAT  MW   37592   0.322   4.711   3.922
 9399WAT  OW   37593   2.183   4.354   2.585
 9399WAT  HW1  37594   2.156   4.386   2.671
 9399WAT  HW2  37595   2.215   4.265   2.601
 9399WAT  MW   37596   2.184   4.346   2.599
 9400WAT  OW   37597   5.934   3.465   1.745
 9400WAT  HW1  37598   5.992   3.436   1.675
 9400WAT  HW2  37599   5.987   3.525   1.797
 9400WAT  MW   37600   5.948   3.469   1.742
 9401WAT  OW   37601   2.108   0.687   1.828
 9401WAT  HW1  37602   2.028   0.709   1.877
 9401WAT  HW2  37603   2.087   0.709   1.737
 9401WAT  MW   37604   2.094   0.693   1.822
 9402WAT  OW   37605   3.719   1.556   0.454
 9402WAT  HW1  37606   3.670   1.595   0.382
 9402WAT  HW2  37607   3.790   1.508   0.412
 9402WAT  MW   37608   3.722   1.555   0.439
 9403WAT  OW   37609   5.192   1.832   6.408
 9403WAT  HW1  37610   5.105   1.837   6.448
 9403WAT  HW2  37611   5.248   1.801   6.479
 9403WAT  MW   37612   5.188   1.829   6.423
 9404WAT  OW   37613   2.766   1.610   4.624
 9404WAT  HW1  37614   2.745   1.607   4.531
 9404WAT  HW2  37615   2.760   1.519   4.654
 9404WAT  MW   37616   2.763   1.598   4.616
 9405WAT  OW   37617   5.741   0.710   6.598
 9405WAT  HW1  37618   5.695   0.626   6.590
 9405WAT  HW2  37619   5.677   0.769   6.639
 9405WAT  MW   37620   5.727   0.707   6.603
 9406WAT  OW   37621   6.285   5.306   2.960
 9406WAT  HW1  37622   6.215   5.366   2.982
 9406WAT  HW2  37623   6.341   5.354   2.899
 9406WAT  MW   37624   6.284   5.320   2.955
 9407WAT  OW   37625   3.485   5.593   0.719
 9407WAT  HW1  37626   3.449   5.675   0.751
 9407WAT  HW2  37627   3.571   5.616   0.684
 9407WAT  MW   37628   3.491   5.606   0.719
 9408WAT  OW   37629   1.964   0.262   3.683
 9408WAT  HW1  37630   1.961   0.347   3.640
 9408WAT  HW2  37631   1.936   0.200   3.617
 9408WAT  MW   37632   1.960   0.265   3.669
 9409WAT  OW   37633   2.356   4.176   4.478
 9409WAT  HW1  37634   2.304   4.116   4.530
 9409WAT  HW2  37635   2.408   4.119   4.420
 9409WAT  MW   37636   2.356   4.161   4.477
 9410WAT  OW   37637   0.458   0.676   2.299
 9410WAT  HW1  37638   0.515   0.640   2.367
 9410WAT  HW2  37639   0.483   0.769   2.294
 9410WAT  MW   37640   0.469   0.684   2.307
 9411WAT  OW   37641   6.299   5.332   3.480
 9411WAT  HW1  37642   6.393   5.349   3.473
 9411WAT  HW2  37643   6.279   5.273   3.407
 9411WAT  MW   37644   6.309   5.327   3.469
 9412WAT  OW   37645   3.238   3.876   5.595
 9412WAT  HW1  37646   3.217   3.862   5.502
 9412WAT  HW2  37647   3.259   3.969   5.600
 9412WAT  MW   37648   3.238   3.887   5.583
 9413WAT  OW   37649   5.370   4.374   5.074
 9413WAT  HW1  37650   5.345   4.466   5.076
 9413WAT  HW2  37651   5.369   4.351   4.981
 9413WAT  MW   37652   5.366   4.383   5.062
 9414WAT  OW   37653   5.992   1.652   3.961
 9414WAT  HW1  37654   5.935   1.729   3.962
 9414WAT  HW2  37655   6.022   1.643   4.051
 9414WAT  MW   37656   5.988   1.661   3.973
 9415WAT  OW   37657   2.523   0.042   5.518
 9415WAT  HW1  37658   2.541   0.125   5.474
 9415WAT  HW2  37659   2.429   0.043   5.534
 9415WAT  MW   37660   2.513   0.053   5.514
 9416WAT  OW   37661   2.539   2.067   4.736
 9416WAT  HW1  37662   2.508   1.977   4.731
 9416WAT  HW2  37663   2.467   2.115   4.778
 9416WAT  MW   37664   2.525   2.061   4.741
 9417WAT  OW   37665   0.659   5.255   5.264
 9417WAT  HW1  37666   0.669   5.260   5.169
 9417WAT  HW2  37667   0.721   5.319   5.298
 9417WAT  MW   37668   0.668   5.264   5.256
 9418WAT  OW   37669   2.235   6.218   5.941
 9418WAT  HW1  37670   2.204   6.232   6.031
 9418WAT  HW2  37671   2.193   6.286   5.890
 9418WAT  MW   37672   2.226   6.229   5.946
 9419WAT  OW   37673   0.788   1.006   6.092
 9419WAT  HW1  37674   0.777   0.919   6.053
 9419WAT  HW2  37675   0.876   1.032   6.066
 9419WAT  MW   37676   0.798   0.998   6.083
 9420WAT  OW   37677   4.865   2.213   1.868
 9420WAT  HW1  37678   4.950   2.170   1.870
 9420WAT  HW2  37679   4.873   2.281   1.801
 9420WAT  MW   37680   4.877   2.216   1.859
 9421WAT  OW   37681   5.234   4.968   5.573
 9421WAT  HW1  37682   5.269   4.913   5.503
 9421WAT  HW2  37683   5.169   4.914   5.617
 9421WAT  MW   37684   5.230   4.954   5.570
 9422WAT  OW   37685   2.208   4.956   3.907
 9422WAT  HW1  37686   2.129   4.940   3.958
 9422WAT  HW2  37687   2.277   4.969   3.972
 9422WAT  MW   37688   2.207   4.955   3.922
 9423WAT  OW   37689   6.686   1.525   4.145
 9423WAT  HW1  37690   6.753   1.551   4.082
 9423WAT  HW2  37691   6.629   1.602   4.152
 9423WAT  MW   37692   6.687   1.539   4.138
 9424WAT  OW   37693   0.024   4.272   1.939
 9424WAT  HW1  37694   0.028   4.321   1.857
 9424WAT  HW2  37695   0.096   4.209   1.933
 9424WAT  MW   37696   0.034   4.270   1.927
 9425WAT  OW   37697   5.500   2.073   0.565
 9425WAT  HW1  37698   5.476   1.981   0.559
 9425WAT  HW2  37699   5.445   2.107   0.636
 9425WAT  MW   37700   5.490   2.065   0.574
 9426WAT  OW   37701   3.514   3.358   2.013
 9426WAT  HW1  37702   3.479   3.345   1.925
 9426WAT  HW2  37703   3.602   3.321   2.010
 9426WAT  MW   37704   3.521   3.352   2.001
 9427WAT  OW   37705   4.911   6.524   3.225
 9427WAT  HW1  37706   4.856   6.448   3.245
 9427WAT  HW2  37707   5.000   6.490   3.223
 9427WAT  MW   37708   4.916   6.510   3.228
 9428WAT  OW   37709   3.036   5.475   4.042
 9428WAT  HW1  37710   2.994   5.557   4.067
 9428WAT  HW2  37711   2.964   5.417   4.016
 9428WAT  MW   37712   3.021   5.478   4.042
 9429WAT  OW   37713   1.272   2.080   6.171
 9429WAT  HW1  37714   1.314   2.146   6.226
 9429WAT  HW2  37715   1.235   2.130   6.099
 9429WAT  MW   37716   1.273   2.096   6.169
 9430WAT  OW   37717   2.222   1.429   5.981
 9430WAT  HW1  37718   2.179   1.466   5.904
 9430WAT  HW2  37719   2.182   1.342   5.991
 9430WAT  MW   37720   2.211   1.422   5.972
 9431WAT  OW   37721   2.728   0.638   2.001
 9431WAT  HW1  37722   2.679   0.573   2.051
 9431WAT  HW2  37723   2.702   0.624   1.910
 9431WAT  MW   37724   2.718   0.628   1.996
 9432WAT  OW   37725   4.245   5.806   1.736
 9432WAT  HW1  37726   4.249   5.836   1.827
 9432WAT  HW2  37727   4.156   5.770   1.727
 9432WAT  MW   37728   4.234   5.805   1.746
 9433WAT  OW   37729   3.489   3.632   1.822
 9433WAT  HW1  37730   3.445   3.715   1.840
 9433WAT  HW2  37731   3.475   3.580   1.901
 9433WAT  MW   37732   3.481   3.636   1.835
 9434WAT  OW   37733   6.048   0.884   5.563
 9434WAT  HW1  37734   5.972   0.914   5.512
 9434WAT  HW2  37735   6.016   0.808   5.611
 9434WAT  MW   37736   6.034   0.878   5.562
 9435WAT  OW   37737   1.987   2.215   0.805
 9435WAT  HW1  37738   2.076   2.229   0.772
 9435WAT  HW2  37739   1.972   2.121   0.796
 9435WAT  MW   37740   1.997   2.205   0.800
 9436WAT  OW   37741   3.117   1.969   5.171
 9436WAT  HW1  37742   3.141   2.061   5.180
 9436WAT  HW2  37743   3.133   1.949   5.078
 9436WAT  MW   37744   3.122   1.978   5.160
 9437WAT  OW   37745   0.274   2.043   1.002
 9437WAT  HW1  37746   0.193   2.006   1.037
 9437WAT  HW2  37747   0.247   2.127   0.965
 9437WAT  MW   37748   0.259   2.049   1.001
 9438WAT  OW   37749   5.269   3.102   4.053
 9438WAT  HW1  37750   5.237   3.138   3.970
 9438WAT  HW2  37751   5.197   3.047   4.084
 9438WAT  MW   37752   5.255   3.099   4.046
 9439WAT  OW   37753   2.031   1.496   6.426
 9439WAT  HW1  37754   1.953   1.552   6.422
 9439WAT  HW2  37755   2.095   1.540   6.370
 9439WAT  MW   37756   2.029   1.509   6.418
 9440WAT  OW   37757   0.747   2.852   4.942
 9440WAT  HW1  37758   0.652   2.854   4.933
 9440WAT  HW2  37759   0.770   2.935   4.983
 9440WAT  MW   37760   0.738   2.863   4.946
 9441WAT  OW   37761   6.645   6.384   1.481
 9441WAT  HW1  37762   6.647   6.446   1.554
 9441WAT  HW2  37763   6.728   6.399   1.434
 9441WAT  MW   37764   6.656   6.394   1.484
 9442WAT  OW   37765   1.282   6.045   5.018
 9442WAT  HW1  37766   1.289   6.071   5.110
 9442WAT  HW2  37767   1.350   5.978   5.007
 9442WAT  MW   37768   1.292   6.039   5.029
 9443WAT  OW   37769   1.843   2.714   1.255
 9443WAT  HW1  37770   1.907   2.748   1.193
 9443WAT  HW2  37771   1.888   2.714   1.339
 9443WAT  MW   37772   1.857   2.718   1.258
 9444WAT  OW   37773   4.318   0.348   4.152
 9444WAT  HW1  37774   4.296   0.302   4.070
 9444WAT  HW2  37775   4.234   0.379   4.185
 9444WAT  MW   37776   4.304   0.346   4.145
 9445WAT  OW   37777   1.688   4.014   3.881
 9445WAT  HW1  37778   1.617   3.988   3.823
 9445WAT  HW2  37779   1.647   4.072   3.945
 9445WAT  MW   37780   1.673   4.018   3.882
 9446WAT  OW   37781   4.378   5.802   0.743
 9446WAT  HW1  37782   4.395   5.712   0.717
 9446WAT  HW2  37783   4.313   5.833   0.680
 9446WAT  MW   37784   4.372   5.795   0.731
 9447WAT  OW   37785   2.556   6.389   4.046
 9447WAT  HW1  37786   2.559   6.477   4.084
 9447WAT  HW2  37787   2.482   6.347   4.089
 9447WAT  MW   37788   2.547   6.395   4.056
 9448WAT  OW   37789   3.565   1.135   1.240
 9448WAT  HW1  37790   3.499   1.073   1.208
 9448WAT  HW2  37791   3.582   1.192   1.166
 9448WAT  MW   37792   3.558   1.134   1.226
 9449WAT  OW   37793   2.839   3.610   1.640
 9449WAT  HW1  37794   2.838   3.705   1.625
 9449WAT  HW2  37795   2.789   3.574   1.567
 9449WAT  MW   37796   2.833   3.618   1.628
 9450WAT  OW   37797   3.144   2.248   5.175
 9450WAT  HW1  37798   3.212   2.309   5.203
 9450WAT  HW2  37799   3.071   2.263   5.236
 9450WAT  MW   37800   3.143   2.258   5.187
 9451WAT  OW   37801   1.464   1.888   2.652
 9451WAT  HW1  37802   1.428   1.898   2.740
 9451WAT  HW2  37803   1.501   1.800   2.652
 9451WAT  MW   37804   1.464   1.877   2.663
 9452WAT  OW   37805   0.745   4.289   1.697
 9452WAT  HW1  37806   0.682   4.253   1.634
 9452WAT  HW2  37807   0.819   4.228   1.695
 9452WAT  MW   37808   0.746   4.276   1.689
 9453WAT  OW   37809   4.196   6.253   0.236
 9453WAT  HW1  37810   4.146   6.171   0.237
 9453WAT  HW2  37811   4.263   6.241   0.303
 9453WAT  MW   37812   4.198   6.240   0.245
 9454WAT  OW   37813   1.425   4.889   0.787
 9454WAT  HW1  37814   1.464   4.976   0.793
 9454WAT  HW2  37815   1.440   4.850   0.873
 9454WAT  MW   37816   1.432   4.895   0.799
 9455WAT  OW   37817   3.788   1.961   1.468
 9455WAT  HW1  37818   3.881   1.963   1.444
 9455WAT  HW2  37819   3.751   2.040   1.429
 9455WAT  MW   37820   3.795   1.972   1.460
 9456WAT  OW   37821   3.623   0.555   0.369
 9456WAT  HW1  37822   3.665   0.506   0.299
 9456WAT  HW2  37823   3.595   0.637   0.328
 9456WAT  MW   37824   3.625   0.560   0.355
 9457WAT  OW   37825   1.364   1.383   0.765
 9457WAT  HW1  37826   1.347   1.291   0.784
 9457WAT  HW2  37827   1.296   1.407   0.701
 9457WAT  MW   37828   1.352   1.374   0.759
 9458WAT  OW   37829   1.696   4.601   1.389
 9458WAT  HW1  37830   1.710   4.607   1.483
 9458WAT  HW2  37831   1.689   4.692   1.360
 9458WAT  MW   37832   1.697   4.614   1.397
 9459WAT  OW   37833   1.833   5.380   4.200
 9459WAT  HW1  37834   1.806   5.465   4.234
 9459WAT  HW2  37835   1.766   5.319   4.232
 9459WAT  MW   37836   1.821   5.383   4.209
 9460WAT  OW   37837   0.166   4.288   3.318
 9460WAT  HW1  37838   0.238   4.322   3.265
 9460WAT  HW2  37839   0.089   4.337   3.288
 9460WAT  MW   37840   0.165   4.299   3.307
 9461WAT  OW   37841   6.222   1.745   6.248
 9461WAT  HW1  37842   6.188   1.732   6.159
 9461WAT  HW2  37843   6.291   1.679   6.256
 9461WAT  MW   37844   6.227   1.734   6.237
 9462WAT  OW   37845   0.627   1.896   2.338
 9462WAT  HW1  37846   0.665   1.872   2.253
 9462WAT  HW2  37847   0.697   1.942   2.383
 9462WAT  MW   37848   0.641   1.899   2.332
 9463WAT  OW   37849   6.352   5.007   4.560
 9463WAT  HW1  37850   6.329   4.928   4.609
 9463WAT  HW2  37851   6.446   5.019   4.577
 9463WAT  MW   37852   6.362   4.998   4.569
 9464WAT  OW   37853   3.429   6.213   3.541
 9464WAT  HW1  37854   3.364   6.234   3.474
 9464WAT  HW2  37855   3.439   6.118   3.536
 9464WAT  MW   37856   3.421   6.203   3.532
 9465WAT  OW   37857   3.680   5.629   2.736
 9465WAT  HW1  37858   3.620   5.558   2.714
 9465WAT  HW2  37859   3.636   5.708   2.706
 9465WAT  MW   37860   3.667   5.630   2.729
 9466WAT  OW   37861   4.244   4.281   1.569
 9466WAT  HW1  37862   4.319   4.271   1.510
 9466WAT  HW2  37863   4.248   4.372   1.599
 9466WAT  MW   37864   4.255   4.291   1.565
 9467WAT  OW   37865   4.706   4.804   5.027
 9467WAT  HW1  37866   4.650   4.812   4.950
 9467WAT  HW2  37867   4.691   4.715   5.059
 9467WAT  MW   37868   4.696   4.794   5.021
 9468WAT  OW   37869   5.665   5.825   3.895
 9468WAT  HW1  37870   5.727   5.895   3.873
 9468WAT  HW2  37871   5.587   5.872   3.924
 9468WAT  MW   37872   5.663   5.840   3.896
 9469WAT  OW   37873   2.844   0.318   3.315
 9469WAT  HW1  37874   2.925   0.287   3.274
 9469WAT  HW2  37875   2.811   0.384   3.255
 9469WAT  MW   37876   2.850   0.323   3.302
 9470WAT  OW   37877   5.985   2.379   3.861
 9470WAT  HW1  37878   6.004   2.327   3.783
 9470WAT  HW2  37879   5.973   2.468   3.828
 9470WAT  MW   37880   5.986   2.384   3.847
 9471WAT  OW   37881   5.503   1.611   4.648
 9471WAT  HW1  37882   5.560   1.537   4.662
 9471WAT  HW2  37883   5.554   1.687   4.675
 9471WAT  MW   37884   5.517   1.612   4.653
 9472WAT  OW   37885   6.211   4.019   1.980
 9472WAT  HW1  37886   6.264   4.065   1.915
 9472WAT  HW2  37887   6.268   3.950   2.013
 9472WAT  MW   37888   6.225   4.016   1.976
 9473WAT  OW   37889   0.054   1.452   0.434
 9473WAT  HW1  37890   0.061   1.360   0.407
 9473WAT  HW2  37891  -0.037   1.464   0.458
 9473WAT  MW   37892   0.043   1.441   0.433
 9474WAT  OW   37893   3.584   1.303   2.755
 9474WAT  HW1  37894   3.630   1.278   2.675
 9474WAT  HW2  37895   3.618   1.389   2.778
 9474WAT  MW   37896   3.594   1.311   2.748
 9475WAT  OW   37897   4.596   0.176   3.324
 9475WAT  HW1  37898   4.674   0.123   3.305
 9475WAT  HW2  37899   4.631   0.261   3.350
 9475WAT  MW   37900   4.611   0.180   3.325
 9476WAT  OW   37901   6.218   3.936   5.070
 9476WAT  HW1  37902   6.225   3.906   4.979
 9476WAT  HW2  37903   6.260   4.022   5.070
 9476WAT  MW   37904   6.224   3.944   5.058
 9477WAT  OW   37905   2.868   3.989   2.176
 9477WAT  HW1  37906   2.925   3.980   2.252
 9477WAT  HW2  37907   2.862   3.900   2.140
 9477WAT  MW   37908   2.875   3.976   2.181
 9478WAT  OW   37909   2.174   6.538   2.341
 9478WAT  HW1  37910   2.202   6.558   2.252
 9478WAT  HW2  37911   2.199   6.614   2.392
 9478WAT  MW   37912   2.181   6.550   2.336
 9479WAT  OW   37913   0.538   1.253   4.276
 9479WAT  HW1  37914   0.505   1.163   4.274
 9479WAT  HW2  37915   0.567   1.270   4.187
 9479WAT  MW   37916   0.537   1.244   4.264
 9480WAT  OW   37917   3.089   4.237   0.618
 9480WAT  HW1  37918   3.174   4.195   0.633
 9480WAT  HW2  37919   3.025   4.167   0.633
 9480WAT  MW   37920   3.092   4.222   0.622
 9481WAT  OW   37921   0.963   3.694   2.585
 9481WAT  HW1  37922   0.971   3.637   2.662
 9481WAT  HW2  37923   0.972   3.635   2.510
 9481WAT  MW   37924   0.965   3.679   2.586
 9482WAT  OW   37925   6.113   5.367   4.479
 9482WAT  HW1  37926   6.157   5.328   4.403
 9482WAT  HW2  37927   6.175   5.358   4.551
 9482WAT  MW   37928   6.127   5.361   4.478
 9483WAT  OW   37929   0.528   3.836   4.171
 9483WAT  HW1  37930   0.532   3.921   4.127
 9483WAT  HW2  37931   0.454   3.792   4.130
 9483WAT  MW   37932   0.519   3.842   4.159
 9484WAT  OW   37933   6.601   6.588   3.648
 9484WAT  HW1  37934   6.525   6.536   3.623
 9484WAT  HW2  37935   6.608   6.575   3.743
 9484WAT  MW   37936   6.592   6.579   3.657
 9485WAT  OW   37937   6.005   1.912   6.317
 9485WAT  HW1  37938   5.996   1.987   6.258
 9485WAT  HW2  37939   6.082   1.865   6.284
 9485WAT  MW   37940   6.014   1.916   6.305
 9486WAT  OW   37941   1.174   1.063   1.029
 9486WAT  HW1  37942   1.177   0.989   1.090
 9486WAT  HW2  37943   1.147   1.024   0.946
 9486WAT  MW   37944   1.170   1.048   1.026
 9487WAT  OW   37945   2.434   4.449   3.953
 9487WAT  HW1  37946   2.502   4.388   3.984
 9487WAT  HW2  37947   2.482   4.514   3.903
 9487WAT  MW   37948   2.449   4.449   3.950
 9488WAT  OW   37949   2.635   2.542   5.910
 9488WAT  HW1  37950   2.580   2.612   5.944
 9488WAT  HW2  37951   2.722   2.559   5.947
 9488WAT  MW   37952   2.640   2.554   5.919
 9489WAT  OW   37953   3.966   3.832   4.445
 9489WAT  HW1  37954   3.938   3.762   4.504
 9489WAT  HW2  37955   4.009   3.895   4.502
 9489WAT  MW   37956   3.968   3.831   4.460
 9490WAT  OW   37957   5.476   2.083   3.657
 9490WAT  HW1  37958   5.565   2.074   3.690
 9490WAT  HW2  37959   5.475   2.033   3.575
 9490WAT  MW   37960   5.487   2.075   3.651
 9491WAT  OW   37961   4.337   1.533   0.587
 9491WAT  HW1  37962   4.275   1.488   0.644
 9491WAT  HW2  37963   4.329   1.625   0.612
 9491WAT  MW   37964   4.328   1.539   0.598
 9492WAT  OW   37965   0.480   2.769   1.707
 9492WAT  HW1  37966   0.545   2.746   1.773
 9492WAT  HW2  37967   0.396   2.751   1.749
 9492WAT  MW   37968   0.477   2.764   1.722
 9493WAT  OW   37969   1.943   5.367   1.671
 9493WAT  HW1  37970   1.906   5.279   1.670
 9493WAT  HW2  37971   1.869   5.425   1.654
 9493WAT  MW   37972   1.928   5.363   1.668
 9494WAT  OW   37973   2.712   5.846   3.085
 9494WAT  HW1  37974   2.686   5.936   3.104
 9494WAT  HW2  37975   2.657   5.819   3.012
 9494WAT  MW   37976   2.702   5.854   3.078
 9495WAT  OW   37977   3.990   6.692   5.204
 9495WAT  HW1  37978   4.085   6.690   5.216
 9495WAT  HW2  37979   3.967   6.784   5.219
 9495WAT  MW   37980   4.000   6.704   5.208
 9496WAT  OW   37981   0.758   4.314   5.522
 9496WAT  HW1  37982   0.784   4.278   5.437
 9496WAT  HW2  37983   0.837   4.355   5.556
 9496WAT  MW   37984   0.772   4.314   5.515
 9497WAT  OW   37985   1.897   1.131   5.415
 9497WAT  HW1  37986   1.909   1.119   5.510
 9497WAT  HW2  37987   1.831   1.200   5.408
 9497WAT  MW   37988   1.890   1.139   5.427
 9498WAT  OW   37989   0.853   3.423   1.523
 9498WAT  HW1  37990   0.921   3.358   1.503
 9498WAT  HW2  37991   0.774   3.389   1.480
 9498WAT  MW   37992   0.852   3.410   1.515
 9499WAT  OW   37993   3.544   4.945   0.881
 9499WAT  HW1  37994   3.456   4.908   0.875
 9499WAT  HW2  37995   3.588   4.915   0.801
 9499WAT  MW   37996   3.538   4.936   0.870
 9500WAT  OW   37997   0.764   4.727   4.543
 9500WAT  HW1  37998   0.730   4.697   4.627
 9500WAT  HW2  37999   0.782   4.646   4.494
 9500WAT  MW   38000   0.762   4.712   4.547
 9501WAT  OW   38001   6.454   2.305   2.367
 9501WAT  HW1  38002   6.383   2.245   2.343
 9501WAT  HW2  38003   6.425   2.344   2.450
 9501WAT  MW   38004   6.441   2.302   2.375
 9502WAT  OW   38005   6.636   1.721   0.649
 9502WAT  HW1  38006   6.556   1.736   0.599
 9502WAT  HW2  38007   6.681   1.805   0.648
 9502WAT  MW   38008   6.631   1.734   0.642
 9503WAT  OW   38009   1.548   2.711   3.384
 9503WAT  HW1  38010   1.539   2.762   3.304
 9503WAT  HW2  38011   1.471   2.734   3.436
 9503WAT  MW   38012   1.536   2.721   3.380
 9504WAT  OW   38013   0.243   5.603   4.956
 9504WAT  HW1  38014   0.220   5.688   4.994
 9504WAT  HW2  38015   0.280   5.624   4.870
 9504WAT  MW   38016   0.245   5.617   4.950
 9505WAT  OW   38017   5.113   0.095   2.185
 9505WAT  HW1  38018   5.103   0.185   2.154
 9505WAT  HW2  38019   5.026   0.071   2.218
 9505WAT  MW   38020   5.100   0.104   2.185
 9506WAT  OW   38021   6.329   1.997   2.558
 9506WAT  HW1  38022   6.369   2.070   2.605
 9506WAT  HW2  38023   6.402   1.952   2.516
 9506WAT  MW   38024   6.344   2.001   2.559
 9507WAT  OW   38025   4.228   1.543   5.144
 9507WAT  HW1  38026   4.173   1.593   5.204
 9507WAT  HW2  38027   4.209   1.579   5.057
 9507WAT  MW   38028   4.218   1.554   5.140
 9508WAT  OW   38029   5.163   0.280   0.605
 9508WAT  HW1  38030   5.217   0.359   0.612
 9508WAT  HW2  38031   5.097   0.290   0.673
 9508WAT  MW   38032   5.162   0.292   0.615
 9509WAT  OW   38033   3.323   1.372   6.335
 9509WAT  HW1  38034   3.243   1.323   6.352
 9509WAT  HW2  38035   3.369   1.322   6.268
 9509WAT  MW   38036   3.319   1.359   6.328
 9510WAT  OW   38037   2.179   2.468   2.375
 9510WAT  HW1  38038   2.136   2.546   2.409
 9510WAT  HW2  38039   2.246   2.502   2.314
 9510WAT  MW   38040   2.182   2.483   2.371
 9511WAT  OW   38041   3.141   4.398   2.964
 9511WAT  HW1  38042   3.125   4.305   2.980
 9511WAT  HW2  38043   3.222   4.400   2.913
 9511WAT  MW   38044   3.150   4.386   2.959
 9512WAT  OW   38045   1.155   5.304   5.516
 9512WAT  HW1  38046   1.126   5.386   5.555
 9512WAT  HW2  38047   1.078   5.248   5.518
 9512WAT  MW   38048   1.141   5.307   5.521
 9513WAT  OW   38049   0.968   2.448   0.175
 9513WAT  HW1  38050   0.954   2.429   0.268
 9513WAT  HW2  38051   1.058   2.418   0.158
 9513WAT  MW   38052   0.978   2.441   0.185
 9514WAT  OW   38053   5.285   5.508   3.529
 9514WAT  HW1  38054   5.256   5.595   3.502
 9514WAT  HW2  38055   5.357   5.487   3.469
 9514WAT  MW   38056   5.291   5.517   3.517
 9515WAT  OW   38057   4.246   2.611   5.013
 9515WAT  HW1  38058   4.214   2.522   5.023
 9515WAT  HW2  38059   4.167   2.666   5.020
 9515WAT  MW   38060   4.231   2.607   5.016
 9516WAT  OW   38061   1.998   6.164   2.285
 9516WAT  HW1  38062   2.008   6.151   2.380
 9516WAT  HW2  38063   1.917   6.117   2.263
 9516WAT  MW   38064   1.988   6.156   2.295
 9517WAT  OW   38065   1.237   5.911   0.815
 9517WAT  HW1  38066   1.219   5.910   0.909
 9517WAT  HW2  38067   1.151   5.921   0.774
 9517WAT  MW   38068   1.223   5.912   0.822
 9518WAT  OW   38069   5.889   1.418   0.179
 9518WAT  HW1  38070   5.873   1.336   0.131
 9518WAT  HW2  38071   5.905   1.390   0.269
 9518WAT  MW   38072   5.889   1.403   0.184
 9519WAT  OW   38073   3.304   3.973   5.194
 9519WAT  HW1  38074   3.243   3.931   5.255
 9519WAT  HW2  38075   3.256   4.048   5.159
 9519WAT  MW   38076   3.290   3.977   5.198
 9520WAT  OW   38077   6.447   1.778   0.466
 9520WAT  HW1  38078   6.487   1.838   0.404
 9520WAT  HW2  38079   6.355   1.804   0.470
 9520WAT  MW   38080   6.441   1.789   0.459
 9521WAT  OW   38081   0.001   0.546   2.423
 9521WAT  HW1  38082  -0.089   0.515   2.412
 9521WAT  HW2  38083   0.054   0.483   2.375
 9521WAT  MW   38084  -0.004   0.533   2.415
 9522WAT  OW   38085   1.273   1.630   2.094
 9522WAT  HW1  38086   1.255   1.625   2.000
 9522WAT  HW2  38087   1.238   1.715   2.120
 9522WAT  MW   38088   1.266   1.641   2.085
 9523WAT  OW   38089   4.015   0.036   0.583
 9523WAT  HW1  38090   4.096   0.086   0.572
 9523WAT  HW2  38091   3.971   0.042   0.498
 9523WAT  MW   38092   4.020   0.044   0.570
 9524WAT  OW   38093   5.399   6.181   2.792
 9524WAT  HW1  38094   5.374   6.260   2.744
 9524WAT  HW2  38095   5.388   6.204   2.884
 9524WAT  MW   38096   5.394   6.195   2.798
 9525WAT  OW   38097   3.035   0.950   5.368
 9525WAT  HW1  38098   3.056   1.027   5.315
 9525WAT  HW2  38099   2.997   0.888   5.305
 9525WAT  MW   38100   3.032   0.952   5.352
 9526WAT  OW   38101   6.300   0.499   5.217
 9526WAT  HW1  38102   6.255   0.578   5.189
 9526WAT  HW2  38103   6.234   0.430   5.208
 9526WAT  MW   38104   6.285   0.500   5.212
 9527WAT  OW   38105   0.412   0.514   0.326
 9527WAT  HW1  38106   0.362   0.507   0.407
 9527WAT  HW2  38107   0.412   0.426   0.289
 9527WAT  MW   38108   0.406   0.502   0.332
 9528WAT  OW   38109   0.987   5.943   0.681
 9528WAT  HW1  38110   0.967   5.940   0.587
 9528WAT  HW2  38111   0.933   5.873   0.719
 9528WAT  MW   38112   0.977   5.933   0.673
 9529WAT  OW   38113   4.866   2.800   4.982
 9529WAT  HW1  38114   4.784   2.848   4.971
 9529WAT  HW2  38115   4.851   2.742   5.056
 9529WAT  MW   38116   4.853   2.799   4.990
 9530WAT  OW   38117   0.746   4.424   5.040
 9530WAT  HW1  38118   0.651   4.423   5.046
 9530WAT  HW2  38119   0.774   4.349   5.094
 9530WAT  MW   38120   0.737   4.414   5.048
 9531WAT  OW   38121   0.041   6.518   2.118
 9531WAT  HW1  38122   0.133   6.491   2.117
 9531WAT  HW2  38123  -0.003   6.452   2.171
 9531WAT  MW   38124   0.047   6.506   2.125
 9532WAT  OW   38125   4.436   2.287   5.216
 9532WAT  HW1  38126   4.517   2.292   5.166
 9532WAT  HW2  38127   4.447   2.351   5.287
 9532WAT  MW   38128   4.448   2.296   5.219
 9533WAT  OW   38129   0.437   6.103   6.223
 9533WAT  HW1  38130   0.381   6.032   6.254
 9533WAT  HW2  38131   0.501   6.060   6.166
 9533WAT  MW   38132   0.438   6.088   6.220
 9534WAT  OW   38133   0.899   3.854   1.296
 9534WAT  HW1  38134   0.832   3.916   1.266
 9534WAT  HW2  38135   0.896   3.860   1.391
 9534WAT  MW   38136   0.890   3.863   1.304
 9535WAT  OW   38137   5.447   1.667   4.402
 9535WAT  HW1  38138   5.426   1.590   4.349
 9535WAT  HW2  38139   5.472   1.631   4.487
 9535WAT  MW   38140   5.448   1.652   4.406
 9536WAT  OW   38141   4.185   4.494   5.390
 9536WAT  HW1  38142   4.266   4.543   5.400
 9536WAT  HW2  38143   4.189   4.459   5.301
 9536WAT  MW   38144   4.196   4.496   5.380
 9537WAT  OW   38145   1.560   5.790   5.995
 9537WAT  HW1  38146   1.638   5.774   6.047
 9537WAT  HW2  38147   1.500   5.835   6.055
 9537WAT  MW   38148   1.562   5.794   6.010
 9538WAT  OW   38149   5.358   6.666   5.230
 9538WAT  HW1  38150   5.299   6.646   5.157
 9538WAT  HW2  38151   5.308   6.725   5.286
 9538WAT  MW   38152   5.344   6.671   5.228
 9539WAT  OW   38153   2.907   2.240   4.320
 9539WAT  HW1  38154   2.923   2.334   4.319
 9539WAT  HW2  38155   2.986   2.203   4.360
 9539WAT  MW   38156   2.920   2.248   4.325
 9540WAT  OW   38157   6.175   3.527   5.276
 9540WAT  HW1  38158   6.206   3.615   5.297
 9540WAT  HW2  38159   6.080   3.534   5.277
 9540WAT  MW   38160   6.167   3.539   5.279
 9541WAT  OW   38161   1.363   0.920   5.015
 9541WAT  HW1  38162   1.404   1.001   4.985
 9541WAT  HW2  38163   1.367   0.861   4.940
 9541WAT  MW   38164   1.369   0.923   5.001
 9542WAT  OW   38165   1.315   1.022   3.446
 9542WAT  HW1  38166   1.379   1.093   3.435
 9542WAT  HW2  38167   1.255   1.034   3.373
 9542WAT  MW   38168   1.316   1.033   3.435
 9543WAT  OW   38169   1.479   1.215   4.984
 9543WAT  HW1  38170   1.572   1.202   5.002
 9543WAT  HW2  38171   1.473   1.304   4.950
 9543WAT  MW   38172   1.491   1.225   4.982
 9544WAT  OW   38173   4.240   2.458   3.458
 9544WAT  HW1  38174   4.223   2.364   3.459
 9544WAT  HW2  38175   4.321   2.467   3.407
 9544WAT  MW   38176   4.248   2.446   3.452
 9545WAT  OW   38177   1.663   6.459   6.001
 9545WAT  HW1  38178   1.713   6.406   6.064
 9545WAT  HW2  38179   1.711   6.449   5.919
 9545WAT  MW   38180   1.676   6.451   5.999
 9546WAT  OW   38181   1.266   4.320   1.948
 9546WAT  HW1  38182   1.304   4.317   1.860
 9546WAT  HW2  38183   1.239   4.411   1.959
 9546WAT  MW   38184   1.267   4.332   1.938
 9547WAT  OW   38185   2.697   2.582   4.027
 9547WAT  HW1  38186   2.686   2.525   3.951
 9547WAT  HW2  38187   2.652   2.538   4.098
 9547WAT  MW   38188   2.690   2.569   4.026
 9548WAT  OW   38189   2.548   4.699   3.410
 9548WAT  HW1  38190   2.523   4.784   3.447
 9548WAT  HW2  38191   2.619   4.669   3.467
 9548WAT  MW   38192   2.554   4.707   3.423
 9549WAT  OW   38193   5.633   5.944   0.171
 9549WAT  HW1  38194   5.583   6.005   0.225
 9549WAT  HW2  38195   5.647   5.991   0.089
 9549WAT  MW   38196   5.628   5.958   0.167
 9550WAT  OW   38197   3.666   5.009   2.060
 9550WAT  HW1  38198   3.604   5.078   2.086
 9550WAT  HW2  38199   3.672   5.017   1.965
 9550WAT  MW   38200   3.658   5.020   2.051
 9551WAT  OW   38201   6.597   4.379   4.242
 9551WAT  HW1  38202   6.600   4.380   4.337
 9551WAT  HW2  38203   6.682   4.345   4.215
 9551WAT  MW   38204   6.609   4.375   4.251
 9552WAT  OW   38205   1.147   3.007   4.035
 9552WAT  HW1  38206   1.062   3.003   4.079
 9552WAT  HW2  38207   1.138   3.077   3.970
 9552WAT  MW   38208   1.135   3.016   4.032
 9553WAT  OW   38209   2.494   0.550   0.456
 9553WAT  HW1  38210   2.553   0.572   0.528
 9553WAT  HW2  38211   2.483   0.455   0.461
 9553WAT  MW   38212   2.501   0.540   0.466
 9554WAT  OW   38213   3.783   2.569   3.947
 9554WAT  HW1  38214   3.804   2.541   3.858
 9554WAT  HW2  38215   3.867   2.565   3.993
 9554WAT  MW   38216   3.797   2.565   3.942
 9555WAT  OW   38217   5.804   4.909   1.890
 9555WAT  HW1  38218   5.857   4.889   1.968
 9555WAT  HW2  38219   5.794   4.825   1.846
 9555WAT  MW   38220   5.810   4.895   1.895
 9556WAT  OW   38221   2.091   1.080   3.820
 9556WAT  HW1  38222   1.997   1.092   3.834
 9556WAT  HW2  38223   2.132   1.154   3.864
 9556WAT  MW   38224   2.084   1.091   3.827
 9557WAT  OW   38225   5.217   6.024   6.212
 9557WAT  HW1  38226   5.241   6.115   6.227
 9557WAT  HW2  38227   5.151   6.028   6.142
 9557WAT  MW   38228   5.211   6.036   6.204
 9558WAT  OW   38229   0.082   4.136   0.621
 9558WAT  HW1  38230   0.026   4.116   0.696
 9558WAT  HW2  38231   0.156   4.077   0.629
 9558WAT  MW   38232   0.084   4.126   0.632
 9559WAT  OW   38233   5.271   4.725   2.956
 9559WAT  HW1  38234   5.228   4.789   3.013
 9559WAT  HW2  38235   5.363   4.747   2.959
 9559WAT  MW   38236   5.277   4.736   2.964
 9560WAT  OW   38237   1.632   3.406   1.881
 9560WAT  HW1  38238   1.681   3.449   1.951
 9560WAT  HW2  38239   1.696   3.395   1.810
 9560WAT  MW   38240   1.647   3.410   1.881
 9561WAT  OW   38241   6.693   0.466   1.346
 9561WAT  HW1  38242   6.735   0.494   1.427
 9561WAT  HW2  38243   6.600   0.464   1.367
 9561WAT  MW   38244   6.687   0.469   1.359
 9562WAT  OW   38245   5.767   1.670   5.921
 9562WAT  HW1  38246   5.802   1.590   5.960
 9562WAT  HW2  38247   5.839   1.733   5.927
 9562WAT  MW   38248   5.781   1.668   5.927
 9563WAT  OW   38249   5.875   5.008   4.141
 9563WAT  HW1  38250   5.851   5.058   4.063
 9563WAT  HW2  38251   5.797   5.010   4.196
 9563WAT  MW   38252   5.862   5.015   4.138
 9564WAT  OW   38253   6.547   6.233   3.729
 9564WAT  HW1  38254   6.518   6.220   3.819
 9564WAT  HW2  38255   6.489   6.301   3.695
 9564WAT  MW   38256   6.535   6.240   3.736
 9565WAT  OW   38257   5.691   5.941   4.580
 9565WAT  HW1  38258   5.672   6.035   4.588
 9565WAT  HW2  38259   5.779   5.938   4.542
 9565WAT  MW   38260   5.700   5.953   4.576
 9566WAT  OW   38261   4.834   5.998   3.562
 9566WAT  HW1  38262   4.821   5.999   3.467
 9566WAT  HW2  38263   4.852   5.906   3.582
 9566WAT  MW   38264   4.835   5.986   3.552
 9567WAT  OW   38265   1.052   6.366   3.541
 9567WAT  HW1  38266   1.081   6.416   3.617
 9567WAT  HW2  38267   1.060   6.274   3.569
 9567WAT  MW   38268   1.057   6.360   3.555
 9568WAT  OW   38269   2.992   4.224   5.513
 9568WAT  HW1  38270   2.973   4.315   5.495
 9568WAT  HW2  38271   2.914   4.191   5.558
 9568WAT  MW   38272   2.980   4.231   5.516
 9569WAT  OW   38273   5.384   5.663   2.213
 9569WAT  HW1  38274   5.371   5.755   2.194
 9569WAT  HW2  38275   5.478   5.655   2.231
 9569WAT  MW   38276   5.395   5.674   2.213
 9570WAT  OW   38277   0.299   4.571   3.441
 9570WAT  HW1  38278   0.246   4.635   3.488
 9570WAT  HW2  38279   0.377   4.560   3.495
 9570WAT  MW   38280   0.302   4.578   3.454
 9571WAT  OW   38281   1.685   3.077   5.143
 9571WAT  HW1  38282   1.777   3.089   5.165
 9571WAT  HW2  38283   1.637   3.132   5.205
 9571WAT  MW   38284   1.690   3.086   5.154
 9572WAT  OW   38285   5.922   3.632   6.696
 9572WAT  HW1  38286   5.882   3.719   6.703
 9572WAT  HW2  38287   5.972   3.622   6.777
 9572WAT  MW   38288   5.923   3.642   6.707
 9573WAT  OW   38289   3.243   4.374   6.399
 9573WAT  HW1  38290   3.273   4.297   6.352
 9573WAT  HW2  38291   3.176   4.412   6.342
 9573WAT  MW   38292   3.238   4.369   6.385
 9574WAT  OW   38293   0.688   3.895   5.308
 9574WAT  HW1  38294   0.664   3.955   5.238
 9574WAT  HW2  38295   0.766   3.850   5.275
 9574WAT  MW   38296   0.695   3.897   5.295
 9575WAT  OW   38297   3.020   0.284   1.965
 9575WAT  HW1  38298   3.023   0.368   2.009
 9575WAT  HW2  38299   3.033   0.220   2.035
 9575WAT  MW   38300   3.022   0.286   1.980
 9576WAT  OW   38301   3.663   4.068   4.730
 9576WAT  HW1  38302   3.656   4.048   4.637
 9576WAT  HW2  38303   3.747   4.031   4.757
 9576WAT  MW   38304   3.673   4.061   4.721
 9577WAT  OW   38305   0.123   3.859   0.468
 9577WAT  HW1  38306   0.192   3.795   0.488
 9577WAT  HW2  38307   0.147   3.893   0.381
 9577WAT  MW   38308   0.135   3.855   0.459
 9578WAT  OW   38309   3.528   1.808   5.485
 9578WAT  HW1  38310   3.482   1.846   5.411
 9578WAT  HW2  38311   3.608   1.859   5.493
 9578WAT  MW   38312   3.532   1.820   5.476
 9579WAT  OW   38313   4.675   2.322   5.087
 9579WAT  HW1  38314   4.676   2.227   5.078
 9579WAT  HW2  38315   4.766   2.349   5.074
 9579WAT  MW   38316   4.687   2.313   5.084
 9580WAT  OW   38317   5.536   0.937   0.684
 9580WAT  HW1  38318   5.534   0.933   0.779
 9580WAT  HW2  38319   5.627   0.955   0.662
 9580WAT  MW   38320   5.548   0.939   0.693
 9581WAT  OW   38321   4.449   5.054   5.015
 9581WAT  HW1  38322   4.454   4.987   4.947
 9581WAT  HW2  38323   4.486   5.012   5.093
 9581WAT  MW   38324   4.454   5.040   5.017
 9582WAT  OW   38325   5.600   0.600   3.860
 9582WAT  HW1  38326   5.560   0.536   3.920
 9582WAT  HW2  38327   5.547   0.679   3.872
 9582WAT  MW   38328   5.587   0.602   3.870
 9583WAT  OW   38329   4.918   5.626   0.556
 9583WAT  HW1  38330   4.897   5.713   0.523
 9583WAT  HW2  38331   4.875   5.566   0.494
 9583WAT  MW   38332   4.910   5.629   0.543
 9584WAT  OW   38333   2.533   4.826   2.332
 9584WAT  HW1  38334   2.468   4.761   2.360
 9584WAT  HW2  38335   2.606   4.814   2.392
 9584WAT  MW   38336   2.534   4.815   2.343
 9585WAT  OW   38337   1.990   1.238   0.204
 9585WAT  HW1  38338   1.997   1.314   0.146
 9585WAT  HW2  38339   1.910   1.253   0.253
 9585WAT  MW   38340   1.981   1.250   0.203
 9586WAT  OW   38341   4.936   1.734   2.111
 9586WAT  HW1  38342   4.898   1.818   2.136
 9586WAT  HW2  38343   4.879   1.703   2.040
 9586WAT  MW   38344   4.923   1.741   2.105
 9587WAT  OW   38345   2.833   0.796   5.967
 9587WAT  HW1  38346   2.808   0.887   5.982
 9587WAT  HW2  38347   2.906   0.781   6.027
 9587WAT  MW   38348   2.839   0.806   5.977
 9588WAT  OW   38349   0.594   6.088   4.874
 9588WAT  HW1  38350   0.561   6.118   4.959
 9588WAT  HW2  38351   0.522   6.035   4.839
 9588WAT  MW   38352   0.580   6.085   4.881
 9589WAT  OW   38353   0.510   2.310   3.190
 9589WAT  HW1  38354   0.453   2.235   3.175
 9589WAT  HW2  38355   0.490   2.370   3.118
 9589WAT  MW   38356   0.500   2.308   3.179
 9590WAT  OW   38357   5.205   0.982   4.555
 9590WAT  HW1  38358   5.260   0.939   4.490
 9590WAT  HW2  38359   5.262   0.995   4.630
 9590WAT  MW   38360   5.220   0.978   4.556
 9591WAT  OW   38361   5.930   1.162   0.053
 9591WAT  HW1  38362   5.881   1.089   0.090
 9591WAT  HW2  38363   5.884   1.183  -0.028
 9591WAT  MW   38364   5.918   1.155   0.047
 9592WAT  OW   38365   6.281   0.090   2.043
 9592WAT  HW1  38366   6.226   0.167   2.034
 9592WAT  HW2  38367   6.283   0.050   1.956
 9592WAT  MW   38368   6.274   0.095   2.030
 9593WAT  OW   38369   0.100   6.623   4.820
 9593WAT  HW1  38370   0.122   6.706   4.862
 9593WAT  HW2  38371   0.052   6.575   4.887
 9593WAT  MW   38372   0.096   6.628   4.834
 9594WAT  OW   38373   4.154   4.899   5.572
 9594WAT  HW1  38374   4.093   4.845   5.521
 9594WAT  HW2  38375   4.240   4.862   5.553
 9594WAT  MW   38376   4.157   4.887   5.563
 9595WAT  OW   38377   5.656   2.771   6.615
 9595WAT  HW1  38378   5.700   2.832   6.674
 9595WAT  HW2  38379   5.577   2.746   6.662
 9595WAT  MW   38380   5.652   2.776   6.629
 9596WAT  OW   38381   0.084   2.687   5.119
 9596WAT  HW1  38382   0.067   2.777   5.092
 9596WAT  HW2  38383   0.063   2.684   5.212
 9596WAT  MW   38384   0.079   2.698   5.127
 9597WAT  OW   38385   6.266   2.600   5.704
 9597WAT  HW1  38386   6.352   2.560   5.708
 9597WAT  HW2  38387   6.225   2.579   5.788
 9597WAT  MW   38388   6.272   2.592   5.716
 9598WAT  OW   38389   4.121   0.918   2.090
 9598WAT  HW1  38390   4.192   0.971   2.052
 9598WAT  HW2  38391   4.166   0.856   2.148
 9598WAT  MW   38392   4.136   0.917   2.093
 9599WAT  OW   38393   4.290   3.422   3.342
 9599WAT  HW1  38394   4.198   3.410   3.364
 9599WAT  HW2  38395   4.307   3.360   3.271
 9599WAT  MW   38396   4.280   3.412   3.335
 9600WAT  OW   38397   2.663   2.374   3.827
 9600WAT  HW1  38398   2.568   2.360   3.824
 9600WAT  HW2  38399   2.689   2.379   3.736
 9600WAT  MW   38400   2.654   2.373   3.815
 9601WAT  OW   38401   1.444   1.462   4.322
 9601WAT  HW1  38402   1.520   1.514   4.295
 9601WAT  HW2  38403   1.373   1.525   4.330
 9601WAT  MW   38404   1.445   1.477   4.320
 9602WAT  OW   38405   1.584   3.546   6.344
 9602WAT  HW1  38406   1.675   3.523   6.362
 9602WAT  HW2  38407   1.538   3.462   6.339
 9602WAT  MW   38408   1.590   3.532   6.346
 9603WAT  OW   38409   2.585   0.564   5.123
 9603WAT  HW1  38410   2.495   0.584   5.149
 9603WAT  HW2  38411   2.580   0.551   5.028
 9603WAT  MW   38412   2.573   0.565   5.114
 9604WAT  OW   38413   0.492   5.646   5.151
 9604WAT  HW1  38414   0.580   5.624   5.181
 9604WAT  HW2  38415   0.486   5.607   5.064
 9604WAT  MW   38416   0.503   5.638   5.144
 9605WAT  OW   38417   1.281   6.064   0.153
 9605WAT  HW1  38418   1.366   6.103   0.132
 9605WAT  HW2  38419   1.276   5.986   0.099
 9605WAT  MW   38420   1.292   6.059   0.143
 9606WAT  OW   38421   4.419   3.953   0.770
 9606WAT  HW1  38422   4.386   4.043   0.769
 9606WAT  HW2  38423   4.513   3.961   0.783
 9606WAT  MW   38424   4.427   3.966   0.772
 9607WAT  OW   38425   2.067   4.322   2.235
 9607WAT  HW1  38426   2.023   4.400   2.269
 9607WAT  HW2  38427   2.157   4.328   2.269
 9607WAT  MW   38428   2.073   4.333   2.244
 9608WAT  OW   38429   6.483   5.983   4.578
 9608WAT  HW1  38430   6.404   5.990   4.631
 9608WAT  HW2  38431   6.549   5.947   4.637
 9608WAT  MW   38432   6.482   5.979   4.592
 9609WAT  OW   38433   6.637   5.180   3.658
 9609WAT  HW1  38434   6.583   5.107   3.690
 9609WAT  HW2  38435   6.596   5.205   3.575
 9609WAT  MW   38436   6.624   5.174   3.652
 9610WAT  OW   38437   1.858   2.018   2.692
 9610WAT  HW1  38438   1.936   2.073   2.685
 9610WAT  HW2  38439   1.804   2.062   2.758
 9610WAT  MW   38440   1.861   2.031   2.700
 9611WAT  OW   38441   3.094   4.719   4.251
 9611WAT  HW1  38442   3.153   4.778   4.298
 9611WAT  HW2  38443   3.009   4.729   4.295
 9611WAT  MW   38444   3.091   4.728   4.263
 9612WAT  OW   38445   5.895   2.033   2.977
 9612WAT  HW1  38446   5.981   2.051   2.941
 9612WAT  HW2  38447   5.861   1.962   2.922
 9612WAT  MW   38448   5.902   2.026   2.965
 9613WAT  OW   38449   0.985   6.190   0.880
 9613WAT  HW1  38450   0.973   6.098   0.902
 9613WAT  HW2  38451   0.933   6.237   0.945
 9613WAT  MW   38452   0.976   6.184   0.891
 9614WAT  OW   38453   4.132   3.820   1.843
 9614WAT  HW1  38454   4.180   3.834   1.761
 9614WAT  HW2  38455   4.140   3.903   1.890
 9614WAT  MW   38456   4.139   3.833   1.838
 9615WAT  OW   38457   0.423   3.406   2.278
 9615WAT  HW1  38458   0.358   3.452   2.225
 9615WAT  HW2  38459   0.439   3.324   2.231
 9615WAT  MW   38460   0.417   3.401   2.265
 9616WAT  OW   38461   3.210   6.618   0.258
 9616WAT  HW1  38462   3.295   6.661   0.250
 9616WAT  HW2  38463   3.216   6.566   0.338
 9616WAT  MW   38464   3.222   6.617   0.267
 9617WAT  OW   38465   3.252   3.345   0.017
 9617WAT  HW1  38466   3.246   3.384   0.104
 9617WAT  HW2  38467   3.162   3.346  -0.015
 9617WAT  MW   38468   3.239   3.350   0.024
 9618WAT  OW   38469   5.626   3.917   4.739
 9618WAT  HW1  38470   5.533   3.916   4.717
 9618WAT  HW2  38471   5.632   3.971   4.818
 9618WAT  MW   38472   5.614   3.924   4.746
 9619WAT  OW   38473   4.799   0.402   3.155
 9619WAT  HW1  38474   4.730   0.356   3.106
 9619WAT  HW2  38475   4.772   0.494   3.152
 9619WAT  MW   38476   4.786   0.408   3.148
 9620WAT  OW   38477   4.532   2.553   3.407
 9620WAT  HW1  38478   4.599   2.621   3.412
 9620WAT  HW2  38479   4.565   2.492   3.341
 9620WAT  MW   38480   4.545   2.554   3.399
 9621WAT  OW   38481   3.312   5.077   5.051
 9621WAT  HW1  38482   3.394   5.028   5.065
 9621WAT  HW2  38483   3.286   5.055   4.962
 9621WAT  MW   38484   3.319   5.067   5.041
 9622WAT  OW   38485   4.299   0.981   4.676
 9622WAT  HW1  38486   4.358   0.948   4.608
 9622WAT  HW2  38487   4.353   1.040   4.729
 9622WAT  MW   38488   4.314   0.984   4.674
 9623WAT  OW   38489   2.975   1.657   3.107
 9623WAT  HW1  38490   2.992   1.604   3.029
 9623WAT  HW2  38491   2.987   1.747   3.078
 9623WAT  MW   38492   2.979   1.662   3.093
 9624WAT  OW   38493   2.773   5.408   3.734
 9624WAT  HW1  38494   2.745   5.464   3.661
 9624WAT  HW2  38495   2.869   5.409   3.729
 9624WAT  MW   38496   2.782   5.416   3.723
 9625WAT  OW   38497   0.345   5.865   1.609
 9625WAT  HW1  38498   0.326   5.959   1.605
 9625WAT  HW2  38499   0.307   5.829   1.529
 9625WAT  MW   38500   0.337   5.873   1.598
 9626WAT  OW   38501   6.551   4.320   5.124
 9626WAT  HW1  38502   6.542   4.346   5.216
 9626WAT  HW2  38503   6.634   4.273   5.121
 9626WAT  MW   38504   6.561   4.317   5.136
 9627WAT  OW   38505   2.019   2.559   3.010
 9627WAT  HW1  38506   2.066   2.552   3.093
 9627WAT  HW2  38507   2.077   2.610   2.954
 9627WAT  MW   38508   2.033   2.565   3.013
 9628WAT  OW   38509   1.882   2.057   4.130
 9628WAT  HW1  38510   1.823   1.993   4.168
 9628WAT  HW2  38511   1.851   2.141   4.163
 9628WAT  MW   38512   1.870   2.060   4.139
 9629WAT  OW   38513   5.512   5.850   6.339
 9629WAT  HW1  38514   5.555   5.765   6.345
 9629WAT  HW2  38515   5.418   5.830   6.340
 9629WAT  MW   38516   5.505   5.836   6.340
 9630WAT  OW   38517   0.648   2.285   2.470
 9630WAT  HW1  38518   0.577   2.349   2.456
 9630WAT  HW2  38519   0.723   2.339   2.495
 9630WAT  MW   38520   0.648   2.301   2.471
 9631WAT  OW   38521   1.186   0.659   1.048
 9631WAT  HW1  38522   1.170   0.744   1.088
 9631WAT  HW2  38523   1.203   0.600   1.121
 9631WAT  MW   38524   1.186   0.662   1.063
 9632WAT  OW   38525   1.768   3.047   3.500
 9632WAT  HW1  38526   1.851   3.059   3.546
 9632WAT  HW2  38527   1.766   2.954   3.478
 9632WAT  MW   38528   1.778   3.037   3.504
 9633WAT  OW   38529   3.263   1.613   6.456
 9633WAT  HW1  38530   3.283   1.534   6.406
 9633WAT  HW2  38531   3.184   1.648   6.414
 9633WAT  MW   38532   3.255   1.607   6.444
 9634WAT  OW   38533   1.200   2.405   1.619
 9634WAT  HW1  38534   1.131   2.409   1.552
 9634WAT  HW2  38535   1.277   2.373   1.571
 9634WAT  MW   38536   1.201   2.401   1.604
 9635WAT  OW   38537   5.656   3.740   2.683
 9635WAT  HW1  38538   5.664   3.667   2.621
 9635WAT  HW2  38539   5.653   3.697   2.769
 9635WAT  MW   38540   5.657   3.725   2.686
 9636WAT  OW   38541   4.624   2.785   3.834
 9636WAT  HW1  38542   4.586   2.743   3.912
 9636WAT  HW2  38543   4.690   2.724   3.804
 9636WAT  MW   38544   4.628   2.772   3.841
 9637WAT  OW   38545   2.423   0.560   1.072
 9637WAT  HW1  38546   2.435   0.635   1.129
 9637WAT  HW2  38547   2.492   0.498   1.099
 9637WAT  MW   38548   2.434   0.562   1.083
 9638WAT  OW   38549   3.132   0.177   6.407
 9638WAT  HW1  38550   3.185   0.108   6.448
 9638WAT  HW2  38551   3.085   0.133   6.337
 9638WAT  MW   38552   3.133   0.162   6.403
 9639WAT  OW   38553   6.673   6.502   5.019
 9639WAT  HW1  38554   6.585   6.541   5.017
 9639WAT  HW2  38555   6.671   6.441   5.093
 9639WAT  MW   38556   6.661   6.499   5.029
 9640WAT  OW   38557   3.083   4.109   0.967
 9640WAT  HW1  38558   3.039   4.062   0.896
 9640WAT  HW2  38559   3.135   4.042   1.011
 9640WAT  MW   38560   3.084   4.094   0.963
 9641WAT  OW   38561   6.354   2.802   5.903
 9641WAT  HW1  38562   6.290   2.781   5.971
 9641WAT  HW2  38563   6.349   2.729   5.842
 9641WAT  MW   38564   6.345   2.790   5.904
 9642WAT  OW   38565   2.959   2.407   4.029
 9642WAT  HW1  38566   2.884   2.451   4.068
 9642WAT  HW2  38567   3.020   2.477   4.008
 9642WAT  MW   38568   2.957   2.422   4.031
 9643WAT  OW   38569   6.617   2.242   5.438
 9643WAT  HW1  38570   6.696   2.281   5.475
 9643WAT  HW2  38571   6.571   2.205   5.514
 9643WAT  MW   38572   6.621   2.242   5.453
 9644WAT  OW   38573   4.425   1.352   2.949
 9644WAT  HW1  38574   4.467   1.430   2.913
 9644WAT  HW2  38575   4.419   1.370   3.043
 9644WAT  MW   38576   4.430   1.365   2.956
 9645WAT  OW   38577   6.051   0.154   6.111
 9645WAT  HW1  38578   6.006   0.185   6.032
 9645WAT  HW2  38579   6.140   0.133   6.081
 9645WAT  MW   38580   6.057   0.156   6.096
 9646WAT  OW   38581   3.097   6.591   5.878
 9646WAT  HW1  38582   3.139   6.668   5.917
 9646WAT  HW2  38583   3.036   6.628   5.814
 9646WAT  MW   38584   3.094   6.606   5.875
 9647WAT  OW   38585   3.992   0.793   6.373
 9647WAT  HW1  38586   4.079   0.754   6.372
 9647WAT  HW2  38587   4.004   0.882   6.339
 9647WAT  MW   38588   4.005   0.800   6.369
 9648WAT  OW   38589   1.143   2.347   3.049
 9648WAT  HW1  38590   1.078   2.401   3.006
 9648WAT  HW2  38591   1.212   2.408   3.075
 9648WAT  MW   38592   1.144   2.362   3.047
 9649WAT  OW   38593   0.380   4.682   1.137
 9649WAT  HW1  38594   0.302   4.648   1.182
 9649WAT  HW2  38595   0.356   4.772   1.115
 9649WAT  MW   38596   0.366   4.690   1.140
 9650WAT  OW   38597   5.137   1.202   5.781
 9650WAT  HW1  38598   5.096   1.242   5.704
 9650WAT  HW2  38599   5.182   1.275   5.824
 9650WAT  MW   38600   5.138   1.217   5.776
 9651WAT  OW   38601   5.696   4.845   0.947
 9651WAT  HW1  38602   5.653   4.802   1.021
 9651WAT  HW2  38603   5.713   4.934   0.978
 9651WAT  MW   38604   5.692   4.851   0.961
 9652WAT  OW   38605   2.753   2.951   1.565
 9652WAT  HW1  38606   2.834   2.931   1.611
 9652WAT  HW2  38607   2.757   2.900   1.485
 9652WAT  MW   38608   2.764   2.942   1.561
 9653WAT  OW   38609   4.368   3.685   2.185
 9653WAT  HW1  38610   4.336   3.680   2.275
 9653WAT  HW2  38611   4.289   3.694   2.132
 9653WAT  MW   38612   4.353   3.686   2.190
 9654WAT  OW   38613   3.105   1.362   1.712
 9654WAT  HW1  38614   3.176   1.299   1.702
 9654WAT  HW2  38615   3.035   1.330   1.654
 9654WAT  MW   38616   3.105   1.350   1.703
 9655WAT  OW   38617   4.595   4.846   0.979
 9655WAT  HW1  38618   4.525   4.814   0.922
 9655WAT  HW2  38619   4.672   4.795   0.955
 9655WAT  MW   38620   4.596   4.835   0.968
 9656WAT  OW   38621   2.260   0.101   6.518
 9656WAT  HW1  38622   2.334   0.099   6.458
 9656WAT  HW2  38623   2.294   0.144   6.596
 9656WAT  MW   38624   2.274   0.106   6.520
 9657WAT  OW   38625   2.935   5.346   6.244
 9657WAT  HW1  38626   3.029   5.359   6.232
 9657WAT  HW2  38627   2.916   5.383   6.330
 9657WAT  MW   38628   2.945   5.353   6.253
 9658WAT  OW   38629   3.329   2.905   3.206
 9658WAT  HW1  38630   3.412   2.952   3.211
 9658WAT  HW2  38631   3.264   2.973   3.191
 9658WAT  MW   38632   3.332   2.920   3.204
 9659WAT  OW   38633   1.666   1.645   2.672
 9659WAT  HW1  38634   1.747   1.660   2.721
 9659WAT  HW2  38635   1.695   1.605   2.590
 9659WAT  MW   38636   1.680   1.642   2.667
 9660WAT  OW   38637   1.613   0.982   4.193
 9660WAT  HW1  38638   1.677   1.048   4.221
 9660WAT  HW2  38639   1.619   0.914   4.260
 9660WAT  MW   38640   1.623   0.982   4.206
 9661WAT  OW   38641   3.368   5.717   4.555
 9661WAT  HW1  38642   3.333   5.805   4.540
 9661WAT  HW2  38643   3.322   5.661   4.493
 9661WAT  MW   38644   3.358   5.722   4.545
 9662WAT  OW   38645   3.439   4.994   2.986
 9662WAT  HW1  38646   3.444   5.087   2.968
 9662WAT  HW2  38647   3.524   4.973   3.024
 9662WAT  MW   38648   3.451   5.003   2.989
 9663WAT  OW   38649   0.715   4.012   5.075
 9663WAT  HW1  38650   0.654   4.040   5.007
 9663WAT  HW2  38651   0.777   3.956   5.029
 9663WAT  MW   38652   0.715   4.009   5.060
 9664WAT  OW   38653   1.121   3.926   0.892
 9664WAT  HW1  38654   1.087   3.934   0.982
 9664WAT  HW2  38655   1.090   4.005   0.848
 9664WAT  MW   38656   1.112   3.937   0.898
 9665WAT  OW   38657   2.617   2.851   4.862
 9665WAT  HW1  38658   2.661   2.875   4.780
 9665WAT  HW2  38659   2.685   2.857   4.929
 9665WAT  MW   38660   2.631   2.855   4.860
 9666WAT  OW   38661   6.403   4.385   6.691
 9666WAT  HW1  38662   6.444   4.423   6.613
 9666WAT  HW2  38663   6.331   4.445   6.711
 9666WAT  MW   38664   6.399   4.398   6.683
 9667WAT  OW   38665   1.104   3.196   3.836
 9667WAT  HW1  38666   1.114   3.276   3.889
 9667WAT  HW2  38667   1.178   3.198   3.776
 9667WAT  MW   38668   1.115   3.207   3.835
 9668WAT  OW   38669   5.258   6.011   5.368
 9668WAT  HW1  38670   5.265   5.916   5.380
 9668WAT  HW2  38671   5.338   6.046   5.407
 9668WAT  MW   38672   5.269   6.003   5.375
 9669WAT  OW   38673   5.899   2.071   5.663
 9669WAT  HW1  38674   5.961   2.064   5.590
 9669WAT  HW2  38675   5.823   2.021   5.635
 9669WAT  MW   38676   5.897   2.064   5.649
 9670WAT  OW   38677   0.452   4.074   3.507
 9670WAT  HW1  38678   0.411   4.117   3.582
 9670WAT  HW2  38679   0.496   4.144   3.460
 9670WAT  MW   38680   0.452   4.089   3.511
 9671WAT  OW   38681   1.813   3.334   0.276
 9671WAT  HW1  38682   1.728   3.358   0.240
 9671WAT  HW2  38683   1.876   3.368   0.213
 9671WAT  MW   38684   1.810   3.341   0.263
 9672WAT  OW   38685   4.638   3.544   6.197
 9672WAT  HW1  38686   4.692   3.489   6.255
 9672WAT  HW2  38687   4.644   3.500   6.112
 9672WAT  MW   38688   4.646   3.531   6.194
 9673WAT  OW   38689   0.542   5.902   4.522
 9673WAT  HW1  38690   0.634   5.906   4.549
 9673WAT  HW2  38691   0.493   5.897   4.604
 9673WAT  MW   38692   0.548   5.902   4.537
 9674WAT  OW   38693   1.971   4.598   1.321
 9674WAT  HW1  38694   1.877   4.583   1.335
 9674WAT  HW2  38695   1.982   4.691   1.340
 9674WAT  MW   38696   1.960   4.608   1.325
 9675WAT  OW   38697   2.571   4.437   6.398
 9675WAT  HW1  38698   2.475   4.432   6.392
 9675WAT  HW2  38699   2.591   4.527   6.371
 9675WAT  MW   38700   2.561   4.448   6.394
 9676WAT  OW   38701   5.511   1.542   3.062
 9676WAT  HW1  38702   5.555   1.625   3.046
 9676WAT  HW2  38703   5.462   1.525   2.981
 9676WAT  MW   38704   5.510   1.551   3.049
 9677WAT  OW   38705   5.838   1.122   4.216
 9677WAT  HW1  38706   5.885   1.182   4.158
 9677WAT  HW2  38707   5.902   1.054   4.237
 9677WAT  MW   38708   5.853   1.121   4.211
 9678WAT  OW   38709   5.645   3.530   4.033
 9678WAT  HW1  38710   5.560   3.526   4.077
 9678WAT  HW2  38711   5.673   3.621   4.045
 9678WAT  MW   38712   5.637   3.542   4.040
 9679WAT  OW   38713   4.282   5.782   4.781
 9679WAT  HW1  38714   4.225   5.715   4.743
 9679WAT  HW2  38715   4.326   5.822   4.705
 9679WAT  MW   38716   4.280   5.779   4.766
 9680WAT  OW   38717   5.514   3.428   1.773
 9680WAT  HW1  38718   5.431   3.395   1.807
 9680WAT  HW2  38719   5.577   3.358   1.791
 9680WAT  MW   38720   5.511   3.414   1.780
 9681WAT  OW   38721   3.939   2.673   3.216
 9681WAT  HW1  38722   3.965   2.665   3.308
 9681WAT  HW2  38723   3.934   2.767   3.200
 9681WAT  MW   38724   3.942   2.684   3.226
 9682WAT  OW   38725   0.095   6.297   4.860
 9682WAT  HW1  38726   0.052   6.257   4.784
 9682WAT  HW2  38727   0.027   6.352   4.900
 9682WAT  MW   38728   0.081   6.299   4.855
 9683WAT  OW   38729   3.924   1.296   5.766
 9683WAT  HW1  38730   3.891   1.281   5.677
 9683WAT  HW2  38731   3.847   1.319   5.817
 9683WAT  MW   38732   3.910   1.297   5.761
 9684WAT  OW   38733   0.288   2.464   6.693
 9684WAT  HW1  38734   0.255   2.551   6.672
 9684WAT  HW2  38735   0.251   2.444   6.779
 9684WAT  MW   38736   0.279   2.473   6.702
 9685WAT  OW   38737   6.452   5.767   3.296
 9685WAT  HW1  38738   6.388   5.728   3.355
 9685WAT  HW2  38739   6.408   5.769   3.211
 9685WAT  MW   38740   6.438   5.762   3.292
 9686WAT  OW   38741   0.468   3.876   5.929
 9686WAT  HW1  38742   0.408   3.898   5.858
 9686WAT  HW2  38743   0.504   3.791   5.906
 9686WAT  MW   38744   0.465   3.868   5.917
 9687WAT  OW   38745   2.968   5.187   1.308
 9687WAT  HW1  38746   2.884   5.225   1.335
 9687WAT  HW2  38747   3.000   5.142   1.386
 9687WAT  MW   38748   2.961   5.186   1.322
 9688WAT  OW   38749   1.715   4.540   0.763
 9688WAT  HW1  38750   1.716   4.636   0.763
 9688WAT  HW2  38751   1.794   4.515   0.811
 9688WAT  MW   38752   1.726   4.549   0.770
 9689WAT  OW   38753   4.212   2.436   0.106
 9689WAT  HW1  38754   4.192   2.473   0.192
 9689WAT  HW2  38755   4.128   2.410   0.070
 9689WAT  MW   38756   4.199   2.438   0.113
 9690WAT  OW   38757   0.980   2.517   3.691
 9690WAT  HW1  38758   0.892   2.545   3.718
 9690WAT  HW2  38759   0.989   2.550   3.601
 9690WAT  MW   38760   0.969   2.525   3.682
 9691WAT  OW   38761   6.490   3.428   1.086
 9691WAT  HW1  38762   6.524   3.506   1.041
 9691WAT  HW2  38763   6.398   3.449   1.102
 9691WAT  MW   38764   6.482   3.441   1.082
 9692WAT  OW   38765   3.915   6.181   6.300
 9692WAT  HW1  38766   3.910   6.262   6.351
 9692WAT  HW2  38767   3.892   6.208   6.211
 9692WAT  MW   38768   3.911   6.196   6.295
 9693WAT  OW   38769   0.685   5.112   5.532
 9693WAT  HW1  38770   0.686   5.140   5.441
 9693WAT  HW2  38771   0.693   5.017   5.528
 9693WAT  MW   38772   0.687   5.103   5.520
 9694WAT  OW   38773   3.598   3.173   3.499
 9694WAT  HW1  38774   3.535   3.168   3.427
 9694WAT  HW2  38775   3.624   3.266   3.500
 9694WAT  MW   38776   3.593   3.185   3.490
 9695WAT  OW   38777   4.215   3.149   3.565
 9695WAT  HW1  38778   4.142   3.207   3.586
 9695WAT  HW2  38779   4.260   3.136   3.648
 9695WAT  MW   38780   4.211   3.155   3.578
 9696WAT  OW   38781   6.462   1.789   6.057
 9696WAT  HW1  38782   6.465   1.756   6.147
 9696WAT  HW2  38783   6.422   1.718   6.007
 9696WAT  MW   38784   6.457   1.775   6.063
 9697WAT  OW   38785   5.019   0.726   3.384
 9697WAT  HW1  38786   5.019   0.631   3.392
 9697WAT  HW2  38787   5.091   0.755   3.440
 9697WAT  MW   38788   5.029   0.717   3.392
 9698WAT  OW   38789   6.406   3.161   3.375
 9698WAT  HW1  38790   6.397   3.092   3.308
 9698WAT  HW2  38791   6.499   3.162   3.396
 9698WAT  MW   38792   6.417   3.152   3.369
 9699WAT  OW   38793   4.560   6.669   0.426
 9699WAT  HW1  38794   4.600   6.701   0.346
 9699WAT  HW2  38795   4.630   6.673   0.491
 9699WAT  MW   38796   4.574   6.674   0.424
 9700WAT  OW   38797   6.236   4.861   5.942
 9700WAT  HW1  38798   6.232   4.902   6.028
 9700WAT  HW2  38799   6.203   4.927   5.882
 9700WAT  MW   38800   6.231   4.875   5.945
 9701WAT  OW   38801   2.717   6.338   6.482
 9701WAT  HW1  38802   2.641   6.290   6.448
 9701WAT  HW2  38803   2.688   6.430   6.481
 9701WAT  MW   38804   2.703   6.344   6.477
 9702WAT  OW   38805   5.068   5.699   3.496
 9702WAT  HW1  38806   5.116   5.754   3.558
 9702WAT  HW2  38807   5.059   5.753   3.418
 9702WAT  MW   38808   5.073   5.713   3.494
 9703WAT  OW   38809   1.612   6.322   4.583
 9703WAT  HW1  38810   1.619   6.253   4.648
 9703WAT  HW2  38811   1.525   6.360   4.598
 9703WAT  MW   38812   1.601   6.318   4.594
 9704WAT  OW   38813   4.337   3.681   5.261
 9704WAT  HW1  38814   4.317   3.739   5.188
 9704WAT  HW2  38815   4.428   3.699   5.282
 9704WAT  MW   38816   4.346   3.691   5.254
 9705WAT  OW   38817   1.698   5.942   1.631
 9705WAT  HW1  38818   1.613   5.930   1.674
 9705WAT  HW2  38819   1.679   5.993   1.553
 9705WAT  MW   38820   1.685   5.947   1.626
 9706WAT  OW   38821   6.499   3.550   0.324
 9706WAT  HW1  38822   6.579   3.513   0.287
 9706WAT  HW2  38823   6.530   3.614   0.388
 9706WAT  MW   38824   6.514   3.554   0.327
 9707WAT  OW   38825   4.420   6.228   2.764
 9707WAT  HW1  38826   4.499   6.176   2.758
 9707WAT  HW2  38827   4.435   6.288   2.837
 9707WAT  MW   38828   4.432   6.229   2.773
 9708WAT  OW   38829   4.970   3.206   5.211
 9708WAT  HW1  38830   5.060   3.176   5.202
 9708WAT  HW2  38831   4.932   3.194   5.125
 9708WAT  MW   38832   4.977   3.200   5.199
 9709WAT  OW   38833   2.413   1.793   6.541
 9709WAT  HW1  38834   2.351   1.866   6.542
 9709WAT  HW2  38835   2.482   1.820   6.602
 9709WAT  MW   38836   2.414   1.806   6.549
 9710WAT  OW   38837   4.161   4.783   5.979
 9710WAT  HW1  38838   4.114   4.861   6.008
 9710WAT  HW2  38839   4.227   4.768   6.047
 9710WAT  MW   38840   4.163   4.791   5.992
 9711WAT  OW   38841   1.910   3.647   5.461
 9711WAT  HW1  38842   1.922   3.733   5.421
 9711WAT  HW2  38843   1.815   3.638   5.471
 9711WAT  MW   38844   1.899   3.657   5.457
 9712WAT  OW   38845   0.063   1.474   2.029
 9712WAT  HW1  38846   0.037   1.549   2.082
 9712WAT  HW2  38847   0.066   1.400   2.090
 9712WAT  MW   38848   0.060   1.474   2.044
 9713WAT  OW   38849   0.009   0.798   2.308
 9713WAT  HW1  38850   0.006   0.714   2.354
 9713WAT  HW2  38851  -0.071   0.800   2.257
 9713WAT  MW   38852  -0.002   0.787   2.307
 9714WAT  OW   38853   5.748   2.246   4.245
 9714WAT  HW1  38854   5.729   2.278   4.333
 9714WAT  HW2  38855   5.820   2.303   4.215
 9714WAT  MW   38856   5.755   2.258   4.253
 9715WAT  OW   38857   1.965   6.435   6.245
 9715WAT  HW1  38858   1.877   6.405   6.267
 9715WAT  HW2  38859   1.992   6.488   6.320
 9715WAT  MW   38860   1.957   6.438   6.258
 9716WAT  OW   38861   0.124   4.329   5.558
 9716WAT  HW1  38862   0.064   4.301   5.627
 9716WAT  HW2  38863   0.091   4.287   5.479
 9716WAT  MW   38864   0.112   4.320   5.557
 9717WAT  OW   38865   5.965   5.380   0.741
 9717WAT  HW1  38866   6.010   5.381   0.825
 9717WAT  HW2  38867   6.033   5.401   0.677
 9717WAT  MW   38868   5.980   5.383   0.743
 9718WAT  OW   38869   2.669   0.968   3.556
 9718WAT  HW1  38870   2.672   1.015   3.473
 9718WAT  HW2  38871   2.593   0.910   3.548
 9718WAT  MW   38872   2.659   0.966   3.544
 9719WAT  OW   38873   4.610   5.919   4.441
 9719WAT  HW1  38874   4.679   5.914   4.508
 9719WAT  HW2  38875   4.610   5.833   4.400
 9719WAT  MW   38876   4.619   5.907   4.444
 9720WAT  OW   38877   2.779   5.251   3.959
 9720WAT  HW1  38878   2.708   5.278   4.016
 9720WAT  HW2  38879   2.778   5.315   3.887
 9720WAT  MW   38880   2.770   5.263   3.957
 9721WAT  OW   38881   2.434   5.908   3.497
 9721WAT  HW1  38882   2.422   5.851   3.573
 9721WAT  HW2  38883   2.472   5.988   3.534
 9721WAT  MW   38884   2.437   5.911   3.512
 9722WAT  OW   38885   6.280   3.593   5.981
 9722WAT  HW1  38886   6.187   3.596   6.004
 9722WAT  HW2  38887   6.302   3.684   5.959
 9722WAT  MW   38888   6.271   3.606   5.981
 9723WAT  OW   38889   5.768   2.233   5.866
 9723WAT  HW1  38890   5.805   2.198   5.785
 9723WAT  HW2  38891   5.840   2.284   5.905
 9723WAT  MW   38892   5.783   2.235   5.861
 9724WAT  OW   38893   1.891   6.359   4.284
 9724WAT  HW1  38894   1.833   6.399   4.348
 9724WAT  HW2  38895   1.835   6.299   4.235
 9724WAT  MW   38896   1.876   6.356   4.286
 9725WAT  OW   38897   0.730   4.344   5.897
 9725WAT  HW1  38898   0.700   4.430   5.927
 9725WAT  HW2  38899   0.676   4.281   5.945
 9725WAT  MW   38900   0.719   4.347   5.907
 9726WAT  OW   38901   1.572   6.302   1.622
 9726WAT  HW1  38902   1.529   6.386   1.638
 9726WAT  HW2  38903   1.665   6.320   1.638
 9726WAT  MW   38904   1.579   6.316   1.627
 9727WAT  OW   38905   3.449   3.682   2.539
 9727WAT  HW1  38906   3.494   3.730   2.470
 9727WAT  HW2  38907   3.384   3.629   2.493
 9727WAT  MW   38908   3.446   3.682   2.524
 9728WAT  OW   38909   4.564   0.814   4.817
 9728WAT  HW1  38910   4.558   0.839   4.909
 9728WAT  HW2  38911   4.477   0.783   4.794
 9728WAT  MW   38912   4.552   0.813   4.826
 9729WAT  OW   38913   2.104   1.046   4.566
 9729WAT  HW1  38914   2.083   1.113   4.631
 9729WAT  HW2  38915   2.026   1.040   4.511
 9729WAT  MW   38916   2.091   1.054   4.567
 9730WAT  OW   38917   3.608   3.926   5.456
 9730WAT  HW1  38918   3.687   3.969   5.491
 9730WAT  HW2  38919   3.565   3.994   5.404
 9730WAT  MW   38920   3.613   3.941   5.454
 9731WAT  OW   38921   1.946   6.375   2.479
 9731WAT  HW1  38922   1.882   6.370   2.408
 9731WAT  HW2  38923   2.026   6.405   2.436
 9731WAT  MW   38924   1.948   6.379   2.464
 9732WAT  OW   38925   4.288   6.080   5.894
 9732WAT  HW1  38926   4.245   6.165   5.908
 9732WAT  HW2  38927   4.347   6.096   5.820
 9732WAT  MW   38928   4.290   6.093   5.886
 9733WAT  OW   38929   6.090   6.312   0.496
 9733WAT  HW1  38930   6.080   6.279   0.407
 9733WAT  HW2  38931   6.143   6.246   0.541
 9733WAT  MW   38932   6.096   6.299   0.490
 9734WAT  OW   38933   3.234   1.460   4.686
 9734WAT  HW1  38934   3.244   1.521   4.759
 9734WAT  HW2  38935   3.285   1.500   4.615
 9734WAT  MW   38936   3.242   1.474   4.686
 9735WAT  OW   38937   3.599   0.628   5.046
 9735WAT  HW1  38938   3.516   0.672   5.026
 9735WAT  HW2  38939   3.623   0.583   4.965
 9735WAT  MW   38940   3.591   0.628   5.033
 9736WAT  OW   38941   0.208   1.800   3.088
 9736WAT  HW1  38942   0.174   1.890   3.088
 9736WAT  HW2  38943   0.235   1.785   2.997
 9736WAT  MW   38944   0.207   1.810   3.076
 9737WAT  OW   38945   3.225   0.795   4.468
 9737WAT  HW1  38946   3.222   0.699   4.463
 9737WAT  HW2  38947   3.284   0.813   4.541
 9737WAT  MW   38948   3.232   0.785   4.477
 9738WAT  OW   38949   2.538   3.183   2.311
 9738WAT  HW1  38950   2.556   3.125   2.237
 9738WAT  HW2  38951   2.484   3.253   2.274
 9738WAT  MW   38952   2.533   3.185   2.296
 9739WAT  OW   38953   1.374   4.363   1.699
 9739WAT  HW1  38954   1.386   4.443   1.648
 9739WAT  HW2  38955   1.322   4.306   1.642
 9739WAT  MW   38956   1.369   4.366   1.684
 9740WAT  OW   38957   0.366   4.132   1.605
 9740WAT  HW1  38958   0.341   4.183   1.527
 9740WAT  HW2  38959   0.284   4.123   1.654
 9740WAT  MW   38960   0.352   4.138   1.601
 9741WAT  OW   38961   3.334   5.036   1.551
 9741WAT  HW1  38962   3.370   4.995   1.629
 9741WAT  HW2  38963   3.403   5.027   1.485
 9741WAT  MW   38964   3.348   5.029   1.553
 9742WAT  OW   38965   6.021   5.546   6.541
 9742WAT  HW1  38966   6.080   5.499   6.482
 9742WAT  HW2  38967   6.000   5.627   6.494
 9742WAT  MW   38968   6.026   5.551   6.527
 9743WAT  OW   38969   3.956   1.705   5.034
 9743WAT  HW1  38970   3.968   1.707   5.129
 9743WAT  HW2  38971   3.922   1.617   5.016
 9743WAT  MW   38972   3.953   1.694   5.044
 9744WAT  OW   38973   1.763   0.344   5.784
 9744WAT  HW1  38974   1.806   0.356   5.700
 9744WAT  HW2  38975   1.786   0.255   5.810
 9744WAT  MW   38976   1.772   0.334   5.776
 9745WAT  OW   38977   6.392   6.562   5.041
 9745WAT  HW1  38978   6.328   6.630   5.018
 9745WAT  HW2  38979   6.372   6.489   4.983
 9745WAT  MW   38980   6.381   6.562   5.030
 9746WAT  OW   38981   2.300   4.610   5.948
 9746WAT  HW1  38982   2.264   4.692   5.981
 9746WAT  HW2  38983   2.388   4.606   5.985
 9746WAT  MW   38984   2.307   4.620   5.958
 9747WAT  OW   38985   5.377   4.818   4.386
 9747WAT  HW1  38986   5.325   4.870   4.325
 9747WAT  HW2  38987   5.457   4.797   4.338
 9747WAT  MW   38988   5.381   4.822   4.372
 9748WAT  OW   38989   1.482   1.995   3.463
 9748WAT  HW1  38990   1.408   1.995   3.524
 9748WAT  HW2  38991   1.552   2.040   3.511
 9748WAT  MW   38992   1.482   2.001   3.478
 9749WAT  OW   38993   1.484   1.993   2.006
 9749WAT  HW1  38994   1.401   2.015   1.966
 9749WAT  HW2  38995   1.499   2.063   2.070
 9749WAT  MW   38996   1.475   2.005   2.009
 9750WAT  OW   38997   0.074   0.705   3.671
 9750WAT  HW1  38998   0.003   0.713   3.607
 9750WAT  HW2  38999   0.084   0.610   3.683
 9750WAT  MW   39000   0.066   0.693   3.664
 9751WAT  OW   39001   6.678   2.826   1.952
 9751WAT  HW1  39002   6.635   2.900   1.909
 9751WAT  HW2  39003   6.745   2.866   2.006
 9751WAT  MW   39004   6.681   2.841   1.953
 9752WAT  OW   39005   6.526   2.622   2.071
 9752WAT  HW1  39006   6.570   2.688   2.018
 9752WAT  HW2  39007   6.433   2.640   2.058
 9752WAT  MW   39008   6.520   2.633   2.062
 9753WAT  OW   39009   6.512   1.484   0.160
 9753WAT  HW1  39010   6.567   1.417   0.119
 9753WAT  HW2  39011   6.430   1.481   0.111
 9753WAT  MW   39012   6.508   1.474   0.148
 9754WAT  OW   39013   2.391   2.131   5.655
 9754WAT  HW1  39014   2.469   2.133   5.711
 9754WAT  HW2  39015   2.417   2.078   5.580
 9754WAT  MW   39016   2.405   2.125   5.653
 9755WAT  OW   39017   2.560   5.234   2.200
 9755WAT  HW1  39018   2.483   5.292   2.200
 9755WAT  HW2  39019   2.554   5.188   2.117
 9755WAT  MW   39020   2.549   5.236   2.189
 9756WAT  OW   39021   3.059   2.824   4.048
 9756WAT  HW1  39022   3.072   2.825   4.143
 9756WAT  HW2  39023   2.964   2.833   4.037
 9756WAT  MW   39024   3.048   2.825   4.059
 9757WAT  OW   39025   4.485   1.329   2.075
 9757WAT  HW1  39026   4.495   1.304   1.983
 9757WAT  HW2  39027   4.573   1.321   2.112
 9757WAT  MW   39028   4.497   1.325   2.068
 9758WAT  OW   39029   6.095   6.431   1.978
 9758WAT  HW1  39030   6.036   6.482   2.034
 9758WAT  HW2  39031   6.047   6.350   1.960
 9758WAT  MW   39032   6.081   6.427   1.983
 9759WAT  OW   39033   4.332   4.732   5.133
 9759WAT  HW1  39034   4.292   4.648   5.112
 9759WAT  HW2  39035   4.424   4.711   5.152
 9759WAT  MW   39036   4.339   4.718   5.133
 9760WAT  OW   39037   2.448   0.571   3.862
 9760WAT  HW1  39038   2.378   0.506   3.866
 9760WAT  HW2  39039   2.421   0.632   3.794
 9760WAT  MW   39040   2.436   0.570   3.854
 9761WAT  OW   39041   4.372   3.266   4.959
 9761WAT  HW1  39042   4.419   3.299   4.882
 9761WAT  HW2  39043   4.406   3.317   5.032
 9761WAT  MW   39044   4.383   3.277   4.959
 9762WAT  OW   39045   3.347   2.536   6.264
 9762WAT  HW1  39046   3.333   2.488   6.182
 9762WAT  HW2  39047   3.264   2.530   6.310
 9762WAT  MW   39048   3.334   2.529   6.259
 9763WAT  OW   39049   6.079   4.649   6.022
 9763WAT  HW1  39050   6.122   4.698   5.952
 9763WAT  HW2  39051   6.055   4.715   6.087
 9763WAT  MW   39052   6.081   4.664   6.022
 9764WAT  OW   39053   3.587   1.664   2.029
 9764WAT  HW1  39054   3.502   1.622   2.019
 9764WAT  HW2  39055   3.640   1.630   1.957
 9764WAT  MW   39056   3.583   1.654   2.018
 9765WAT  OW   39057   6.088   0.461   6.634
 9765WAT  HW1  39058   6.005   0.413   6.626
 9765WAT  HW2  39059   6.062   0.553   6.632
 9765WAT  MW   39060   6.074   0.467   6.633
 9766WAT  OW   39061   3.597   4.432   1.764
 9766WAT  HW1  39062   3.671   4.430   1.705
 9766WAT  HW2  39063   3.587   4.524   1.789
 9766WAT  MW   39064   3.605   4.444   1.760
 9767WAT  OW   39065   4.490   2.228   1.032
 9767WAT  HW1  39066   4.437   2.296   0.992
 9767WAT  HW2  39067   4.432   2.187   1.097
 9767WAT  MW   39068   4.476   2.231   1.035
 9768WAT  OW   39069   2.639   1.218   6.266
 9768WAT  HW1  39070   2.622   1.167   6.345
 9768WAT  HW2  39071   2.562   1.204   6.211
 9768WAT  MW   39072   2.627   1.210   6.269
 9769WAT  OW   39073   5.847   1.039   5.463
 9769WAT  HW1  39074   5.890   1.100   5.403
 9769WAT  HW2  39075   5.792   0.984   5.406
 9769WAT  MW   39076   5.845   1.040   5.448
 9770WAT  OW   39077   5.881   4.636   0.895
 9770WAT  HW1  39078   5.833   4.709   0.934
 9770WAT  HW2  39079   5.823   4.561   0.904
 9770WAT  MW   39080   5.867   4.636   0.901
 9771WAT  OW   39081   2.907   0.086   2.633
 9771WAT  HW1  39082   2.947   0.129   2.557
 9771WAT  HW2  39083   2.978   0.079   2.697
 9771WAT  MW   39084   2.922   0.091   2.631
 9772WAT  OW   39085   6.558   6.276   0.147
 9772WAT  HW1  39086   6.648   6.281   0.116
 9772WAT  HW2  39087   6.508   6.248   0.070
 9772WAT  MW   39088   6.563   6.273   0.133
 9773WAT  OW   39089   3.320   0.161   0.095
 9773WAT  HW1  39090   3.369   0.153   0.013
 9773WAT  HW2  39091   3.234   0.196   0.068
 9773WAT  MW   39092   3.315   0.165   0.081
 9774WAT  OW   39093   5.135   0.612   0.556
 9774WAT  HW1  39094   5.174   0.697   0.574
 9774WAT  HW2  39095   5.063   0.605   0.619
 9774WAT  MW   39096   5.130   0.622   0.567
 9775WAT  OW   39097   6.209   1.379   6.496
 9775WAT  HW1  39098   6.253   1.295   6.504
 9775WAT  HW2  39099   6.273   1.436   6.454
 9775WAT  MW   39100   6.223   1.376   6.492
 9776WAT  OW   39101   6.544   5.382   3.112
 9776WAT  HW1  39102   6.599   5.436   3.055
 9776WAT  HW2  39103   6.462   5.373   3.063
 9776WAT  MW   39104   6.540   5.388   3.098
 9777WAT  OW   39105   5.462   4.523   4.316
 9777WAT  HW1  39106   5.499   4.533   4.404
 9777WAT  HW2  39107   5.536   4.491   4.263
 9777WAT  MW   39108   5.477   4.520   4.320
 9778WAT  OW   39109   3.856   5.197   0.790
 9778WAT  HW1  39110   3.810   5.250   0.855
 9778WAT  HW2  39111   3.948   5.204   0.814
 9778WAT  MW   39112   3.862   5.205   0.802
 9779WAT  OW   39113   3.169   2.694   1.625
 9779WAT  HW1  39114   3.233   2.686   1.696
 9779WAT  HW2  39115   3.128   2.607   1.620
 9779WAT  MW   39116   3.172   2.682   1.634
 9780WAT  OW   39117   0.754   1.029   4.735
 9780WAT  HW1  39118   0.702   0.993   4.807
 9780WAT  HW2  39119   0.696   1.094   4.695
 9780WAT  MW   39120   0.739   1.033   4.739
 9781WAT  OW   39121   4.065   1.108   4.165
 9781WAT  HW1  39122   4.140   1.091   4.223
 9781WAT  HW2  39123   4.026   1.188   4.200
 9781WAT  MW   39124   4.070   1.116   4.178
 9782WAT  OW   39125   6.154   0.937   4.902
 9782WAT  HW1  39126   6.128   1.012   4.847
 9782WAT  HW2  39127   6.136   0.967   4.991
 9782WAT  MW   39128   6.148   0.951   4.907
 9783WAT  OW   39129   2.083   5.525   6.436
 9783WAT  HW1  39130   2.102   5.579   6.513
 9783WAT  HW2  39131   2.119   5.574   6.363
 9783WAT  MW   39132   2.090   5.538   6.437
 9784WAT  OW   39133   5.691   3.137   0.661
 9784WAT  HW1  39134   5.661   3.204   0.600
 9784WAT  HW2  39135   5.686   3.178   0.747
 9784WAT  MW   39136   5.686   3.151   0.665
 9785WAT  OW   39137   5.576   3.135   3.859
 9785WAT  HW1  39138   5.671   3.147   3.860
 9785WAT  HW2  39139   5.552   3.147   3.767
 9785WAT  MW   39140   5.586   3.138   3.847
 9786WAT  OW   39141   3.470   2.180   6.141
 9786WAT  HW1  39142   3.433   2.194   6.228
 9786WAT  HW2  39143   3.564   2.171   6.155
 9786WAT  MW   39144   3.477   2.181   6.154
 9787WAT  OW   39145   6.206   1.846   0.548
 9787WAT  HW1  39146   6.157   1.928   0.538
 9787WAT  HW2  39147   6.143   1.777   0.528
 9787WAT  MW   39148   6.191   1.848   0.544
 9788WAT  OW   39149   3.345   3.048   0.870
 9788WAT  HW1  39150   3.331   3.115   0.804
 9788WAT  HW2  39151   3.429   3.007   0.845
 9788WAT  MW   39152   3.354   3.051   0.858
 9789WAT  OW   39153   3.832   4.528   6.068
 9789WAT  HW1  39154   3.888   4.463   6.025
 9789WAT  HW2  39155   3.891   4.573   6.129
 9789WAT  MW   39156   3.847   4.526   6.070
 9790WAT  OW   39157   0.534   1.128   2.495
 9790WAT  HW1  39158   0.578   1.086   2.568
 9790WAT  HW2  39159   0.474   1.191   2.536
 9790WAT  MW   39160   0.532   1.131   2.510
 9791WAT  OW   39161   1.584   3.918   4.215
 9791WAT  HW1  39162   1.576   3.998   4.163
 9791WAT  HW2  39163   1.500   3.873   4.203
 9791WAT  MW   39164   1.572   3.923   4.206
 9792WAT  OW   39165   2.399   4.994   4.113
 9792WAT  HW1  39166   2.481   4.974   4.069
 9792WAT  HW2  39167   2.426   5.039   4.194
 9792WAT  MW   39168   2.413   4.998   4.118
 9793WAT  OW   39169   3.852   2.260   4.939
 9793WAT  HW1  39170   3.892   2.311   4.869
 9793WAT  HW2  39171   3.925   2.215   4.981
 9793WAT  MW   39172   3.867   2.261   4.935
 9794WAT  OW   39173   3.794   0.951   2.837
 9794WAT  HW1  39174   3.784   0.925   2.745
 9794WAT  HW2  39175   3.826   1.041   2.833
 9794WAT  MW   39176   3.797   0.959   2.824
 9795WAT  OW   39177   3.303   0.414   2.715
 9795WAT  HW1  39178   3.331   0.334   2.759
 9795WAT  HW2  39179   3.214   0.395   2.686
 9795WAT  MW   39180   3.295   0.401   2.717
 9796WAT  OW   39181   2.520   6.500   3.775
 9796WAT  HW1  39182   2.611   6.529   3.779
 9796WAT  HW2  39183   2.500   6.470   3.864
 9796WAT  MW   39184   2.529   6.499   3.787
 9797WAT  OW   39185   4.433   0.063   6.033
 9797WAT  HW1  39186   4.508   0.049   6.092
 9797WAT  HW2  39187   4.460   0.022   5.951
 9797WAT  MW   39188   4.447   0.056   6.030
 9798WAT  OW   39189   4.578   4.585   4.150
 9798WAT  HW1  39190   4.671   4.607   4.143
 9798WAT  HW2  39191   4.538   4.626   4.074
 9798WAT  MW   39192   4.585   4.593   4.139
 9799WAT  OW   39193   0.257   4.666   4.814
 9799WAT  HW1  39194   0.261   4.724   4.738
 9799WAT  HW2  39195   0.348   4.656   4.842
 9799WAT  MW   39196   0.270   4.672   4.807
 9800WAT  OW   39197   1.403   3.202   3.207
 9800WAT  HW1  39198   1.328   3.182   3.262
 9800WAT  HW2  39199   1.477   3.206   3.267
 9800WAT  MW   39200   1.403   3.200   3.222
 9801WAT  OW   39201   5.524   1.238   4.691
 9801WAT  HW1  39202   5.446   1.289   4.673
 9801WAT  HW2  39203   5.514   1.209   4.782
 9801WAT  MW   39204   5.513   1.241   4.701
 9802WAT  OW   39205   5.923   4.017   5.095
 9802WAT  HW1  39206   6.006   3.969   5.096
 9802WAT  HW2  39207   5.931   4.078   5.021
 9802WAT  MW   39208   5.935   4.019   5.086
 9803WAT  OW   39209   1.719   1.584   2.111
 9803WAT  HW1  39210   1.725   1.561   2.019
 9803WAT  HW2  39211   1.636   1.631   2.118
 9803WAT  MW   39212   1.708   1.587   2.100
 9804WAT  OW   39213   4.066   0.765   4.455
 9804WAT  HW1  39214   4.159   0.743   4.454
 9804WAT  HW2  39215   4.021   0.680   4.451
 9804WAT  MW   39216   4.072   0.751   4.454
 9805WAT  OW   39217   0.094   5.199   1.268
 9805WAT  HW1  39218   0.095   5.148   1.188
 9805WAT  HW2  39219   0.061   5.139   1.335
 9805WAT  MW   39220   0.090   5.185   1.266
 9806WAT  OW   39221   6.359   0.070   5.425
 9806WAT  HW1  39222   6.426   0.009   5.457
 9806WAT  HW2  39223   6.340   0.126   5.500
 9806WAT  MW   39224   6.366   0.069   5.439
 9807WAT  OW   39225   6.564   1.556   4.985
 9807WAT  HW1  39226   6.568   1.467   4.950
 9807WAT  HW2  39227   6.631   1.604   4.936
 9807WAT  MW   39228   6.573   1.550   4.974
 9808WAT  OW   39229   0.432   1.335   2.106
 9808WAT  HW1  39230   0.516   1.372   2.078
 9808WAT  HW2  39231   0.444   1.241   2.098
 9808WAT  MW   39232   0.445   1.328   2.101
 9809WAT  OW   39233   5.611   1.534   1.530
 9809WAT  HW1  39234   5.647   1.457   1.574
 9809WAT  HW2  39235   5.679   1.601   1.541
 9809WAT  MW   39236   5.625   1.533   1.537
 9810WAT  OW   39237   5.865   4.435   3.923
 9810WAT  HW1  39238   5.805   4.454   3.995
 9810WAT  HW2  39239   5.943   4.401   3.966
 9810WAT  MW   39240   5.867   4.433   3.938
 9811WAT  OW   39241   3.208   5.320   1.874
 9811WAT  HW1  39242   3.163   5.380   1.814
 9811WAT  HW2  39243   3.171   5.339   1.960
 9811WAT  MW   39244   3.197   5.330   1.877
 9812WAT  OW   39245   2.873   6.162   2.175
 9812WAT  HW1  39246   2.789   6.174   2.130
 9812WAT  HW2  39247   2.849   6.141   2.265
 9812WAT  MW   39248   2.859   6.161   2.181
 9813WAT  OW   39249   4.108   4.054   5.647
 9813WAT  HW1  39250   4.170   4.122   5.618
 9813WAT  HW2  39251   4.150   3.972   5.622
 9813WAT  MW   39252   4.122   4.052   5.640
 9814WAT  OW   39253   5.354   0.269   1.308
 9814WAT  HW1  39254   5.360   0.364   1.323
 9814WAT  HW2  39255   5.277   0.243   1.358
 9814WAT  MW   39256   5.345   0.278   1.317
 9815WAT  OW   39257   4.784   3.628   4.235
 9815WAT  HW1  39258   4.815   3.540   4.213
 9815WAT  HW2  39259   4.863   3.679   4.250
 9815WAT  MW   39260   4.798   3.623   4.234
 9816WAT  OW   39261   3.460   6.358   4.498
 9816WAT  HW1  39262   3.460   6.453   4.495
 9816WAT  HW2  39263   3.374   6.332   4.464
 9816WAT  MW   39264   3.449   6.367   4.493
 9817WAT  OW   39265   4.358   4.576   2.056
 9817WAT  HW1  39266   4.354   4.502   1.996
 9817WAT  HW2  39267   4.299   4.641   2.019
 9817WAT  MW   39268   4.350   4.575   2.043
 9818WAT  OW   39269   1.044   2.991   2.467
 9818WAT  HW1  39270   1.073   3.014   2.379
 9818WAT  HW2  39271   0.978   2.924   2.454
 9818WAT  MW   39272   1.039   2.985   2.454
 9819WAT  OW   39273   6.120   5.400   5.482
 9819WAT  HW1  39274   6.053   5.354   5.431
 9819WAT  HW2  39275   6.071   5.440   5.554
 9819WAT  MW   39276   6.104   5.399   5.485
 9820WAT  OW   39277   1.894   3.315   6.128
 9820WAT  HW1  39278   1.937   3.354   6.204
 9820WAT  HW2  39279   1.855   3.389   6.082
 9820WAT  MW   39280   1.895   3.330   6.132
 9821WAT  OW   39281   5.359   0.617   0.853
 9821WAT  HW1  39282   5.353   0.581   0.765
 9821WAT  HW2  39283   5.277   0.590   0.895
 9821WAT  MW   39284   5.347   0.609   0.847
 9822WAT  OW   39285   0.646   6.653   1.450
 9822WAT  HW1  39286   0.700   6.657   1.529
 9822WAT  HW2  39287   0.576   6.591   1.472
 9822WAT  MW   39288   0.644   6.646   1.463
 9823WAT  OW   39289   5.761   2.786   5.517
 9823WAT  HW1  39290   5.828   2.736   5.471
 9823WAT  HW2  39291   5.806   2.864   5.549
 9823WAT  MW   39292   5.776   2.789   5.515
 9824WAT  OW   39293   3.083   5.589   0.761
 9824WAT  HW1  39294   3.134   5.553   0.833
 9824WAT  HW2  39295   3.055   5.675   0.791
 9824WAT  MW   39296   3.086   5.596   0.774
 9825WAT  OW   39297   6.013   1.983   4.820
 9825WAT  HW1  39298   5.967   2.036   4.754
 9825WAT  HW2  39299   5.950   1.975   4.892
 9825WAT  MW   39300   5.999   1.989   4.821
 9826WAT  OW   39301   4.960   5.757   5.263
 9826WAT  HW1  39302   4.970   5.695   5.191
 9826WAT  HW2  39303   5.034   5.739   5.321
 9826WAT  MW   39304   4.971   5.746   5.262
 9827WAT  OW   39305   5.880   1.411   3.892
 9827WAT  HW1  39306   5.803   1.389   3.944
 9827WAT  HW2  39307   5.894   1.505   3.908
 9827WAT  MW   39308   5.872   1.421   3.901
 9828WAT  OW   39309   2.042   3.316   6.395
 9828WAT  HW1  39310   2.099   3.393   6.389
 9828WAT  HW2  39311   2.093   3.245   6.356
 9828WAT  MW   39312   2.056   3.317   6.389
 9829WAT  OW   39313   2.060   3.402   0.786
 9829WAT  HW1  39314   2.083   3.373   0.698
 9829WAT  HW2  39315   2.000   3.335   0.818
 9829WAT  MW   39316   2.055   3.389   0.779
 9830WAT  OW   39317   2.552   0.457   5.753
 9830WAT  HW1  39318   2.512   0.382   5.797
 9830WAT  HW2  39319   2.630   0.422   5.711
 9830WAT  MW   39320   2.557   0.443   5.753
 9831WAT  OW   39321   0.031   0.597   5.053
 9831WAT  HW1  39322  -0.052   0.637   5.026
 9831WAT  HW2  39323   0.006   0.526   5.112
 9831WAT  MW   39324   0.017   0.593   5.058
 9832WAT  OW   39325   2.249   0.377   3.872
 9832WAT  HW1  39326   2.160   0.387   3.906
 9832WAT  HW2  39327   2.290   0.312   3.929
 9832WAT  MW   39328   2.243   0.370   3.884
 9833WAT  OW   39329   1.788   2.908   4.854
 9833WAT  HW1  39330   1.697   2.879   4.852
 9833WAT  HW2  39331   1.839   2.828   4.865
 9833WAT  MW   39332   1.783   2.894   4.855
 9834WAT  OW   39333   2.852   4.378   1.544
 9834WAT  HW1  39334   2.921   4.336   1.594
 9834WAT  HW2  39335   2.772   4.360   1.594
 9834WAT  MW   39336   2.851   4.370   1.557
 9835WAT  OW   39337   4.314   5.707   6.571
 9835WAT  HW1  39338   4.307   5.634   6.509
 9835WAT  HW2  39339   4.369   5.673   6.642
 9835WAT  MW   39340   4.320   5.693   6.572
 9836WAT  OW   39341   2.928   2.161   2.188
 9836WAT  HW1  39342   2.873   2.088   2.159
 9836WAT  HW2  39343   3.006   2.155   2.132
 9836WAT  MW   39344   2.931   2.150   2.177
 9837WAT  OW   39345   6.692   2.159   4.944
 9837WAT  HW1  39346   6.753   2.190   4.877
 9837WAT  HW2  39347   6.606   2.176   4.907
 9837WAT  MW   39348   6.689   2.165   4.930
 9838WAT  OW   39349   5.511   0.271   2.295
 9838WAT  HW1  39350   5.552   0.323   2.365
 9838WAT  HW2  39351   5.429   0.241   2.334
 9838WAT  MW   39352   5.506   0.274   2.310
 9839WAT  OW   39353   4.320   0.609   1.981
 9839WAT  HW1  39354   4.335   0.514   1.982
 9839WAT  HW2  39355   4.231   0.619   1.947
 9839WAT  MW   39356   4.310   0.597   1.977
 9840WAT  OW   39357   0.403   5.902   5.231
 9840WAT  HW1  39358   0.448   5.834   5.182
 9840WAT  HW2  39359   0.434   5.985   5.194
 9840WAT  MW   39360   0.413   5.904   5.220
 9841WAT  OW   39361   5.586   3.927   1.914
 9841WAT  HW1  39362   5.617   3.838   1.898
 9841WAT  HW2  39363   5.496   3.928   1.881
 9841WAT  MW   39364   5.578   3.916   1.907
 9842WAT  OW   39365   0.376   2.858   0.799
 9842WAT  HW1  39366   0.282   2.875   0.790
 9842WAT  HW2  39367   0.390   2.849   0.893
 9842WAT  MW   39368   0.366   2.859   0.810
 9843WAT  OW   39369   0.683   6.448   3.463
 9843WAT  HW1  39370   0.744   6.452   3.537
 9843WAT  HW2  39371   0.681   6.356   3.438
 9843WAT  MW   39372   0.690   6.437   3.470
 9844WAT  OW   39373   0.674   6.174   3.397
 9844WAT  HW1  39374   0.745   6.194   3.336
 9844WAT  HW2  39375   0.711   6.108   3.456
 9844WAT  MW   39376   0.688   6.168   3.397
 9845WAT  OW   39377   2.676   2.884   0.865
 9845WAT  HW1  39378   2.650   2.795   0.890
 9845WAT  HW2  39379   2.611   2.940   0.908
 9845WAT  MW   39380   2.664   2.879   0.874
 9846WAT  OW   39381   1.261   2.862   5.230
 9846WAT  HW1  39382   1.240   2.835   5.141
 9846WAT  HW2  39383   1.357   2.859   5.234
 9846WAT  MW   39384   1.271   2.858   5.219
 9847WAT  OW   39385   3.576   3.214   0.056
 9847WAT  HW1  39386   3.521   3.141   0.028
 9847WAT  HW2  39387   3.616   3.247  -0.024
 9847WAT  MW   39388   3.574   3.209   0.042
 9848WAT  OW   39389   1.215   3.946   4.818
 9848WAT  HW1  39390   1.305   3.949   4.785
 9848WAT  HW2  39391   1.171   3.880   4.764
 9848WAT  MW   39392   1.221   3.938   4.806
 9849WAT  OW   39393   0.723   4.571   1.751
 9849WAT  HW1  39394   0.731   4.476   1.759
 9849WAT  HW2  39395   0.813   4.602   1.740
 9849WAT  MW   39396   0.736   4.563   1.750
 9850WAT  OW   39397   5.628   3.710   5.059
 9850WAT  HW1  39398   5.680   3.702   5.139
 9850WAT  HW2  39399   5.573   3.787   5.073
 9850WAT  MW   39400   5.628   3.719   5.071
 9851WAT  OW   39401   1.594   0.114   3.361
 9851WAT  HW1  39402   1.609   0.047   3.294
 9851WAT  HW2  39403   1.502   0.138   3.351
 9851WAT  MW   39404   1.584   0.108   3.351
 9852WAT  OW   39405   5.006   3.186   0.022
 9852WAT  HW1  39406   4.915   3.207   0.002
 9852WAT  HW2  39407   5.050   3.271   0.028
 9852WAT  MW   39408   5.000   3.200   0.020
 9853WAT  OW   39409   0.279   0.458   3.154
 9853WAT  HW1  39410   0.204   0.404   3.128
 9853WAT  HW2  39411   0.300   0.427   3.243
 9853WAT  MW   39412   0.272   0.447   3.162
 9854WAT  OW   39413   5.156   5.550   0.706
 9854WAT  HW1  39414   5.219   5.616   0.732
 9854WAT  HW2  39415   5.096   5.596   0.647
 9854WAT  MW   39416   5.156   5.564   0.701
 9855WAT  OW   39417   0.524   6.562   1.779
 9855WAT  HW1  39418   0.475   6.596   1.704
 9855WAT  HW2  39419   0.616   6.571   1.754
 9855WAT  MW   39420   0.529   6.568   1.766
 9856WAT  OW   39421   3.980   4.714   6.260
 9856WAT  HW1  39422   4.055   4.658   6.281
 9856WAT  HW2  39423   3.915   4.692   6.326
 9856WAT  MW   39424   3.982   4.704   6.271
 9857WAT  OW   39425   5.135   0.300   6.465
 9857WAT  HW1  39426   5.115   0.264   6.378
 9857WAT  HW2  39427   5.231   0.298   6.470
 9857WAT  MW   39428   5.145   0.295   6.454
 9858WAT  OW   39429   5.560   5.788   3.432
 9858WAT  HW1  39430   5.593   5.711   3.478
 9858WAT  HW2  39431   5.484   5.816   3.483
 9858WAT  MW   39432   5.554   5.781   3.445
 9859WAT  OW   39433   5.702   3.587   2.906
 9859WAT  HW1  39434   5.617   3.548   2.884
 9859WAT  HW2  39435   5.766   3.519   2.882
 9859WAT  MW   39436   5.699   3.573   2.900
 9860WAT  OW   39437   2.249   5.603   0.774
 9860WAT  HW1  39438   2.177   5.609   0.837
 9860WAT  HW2  39439   2.309   5.672   0.800
 9860WAT  MW   39440   2.247   5.613   0.786
 9861WAT  OW   39441   4.465   0.098   3.817
 9861WAT  HW1  39442   4.484   0.004   3.812
 9861WAT  HW2  39443   4.541   0.140   3.776
 9861WAT  MW   39444   4.478   0.091   3.811
 9862WAT  OW   39445   6.093   4.040   4.232
 9862WAT  HW1  39446   6.011   4.037   4.183
 9862WAT  HW2  39447   6.125   4.130   4.220
 9862WAT  MW   39448   6.087   4.052   4.224
 9863WAT  OW   39449   5.283   2.811   1.165
 9863WAT  HW1  39450   5.318   2.870   1.232
 9863WAT  HW2  39451   5.192   2.797   1.192
 9863WAT  MW   39452   5.276   2.817   1.178
 9864WAT  OW   39453   0.401   3.536   3.586
 9864WAT  HW1  39454   0.468   3.471   3.605
 9864WAT  HW2  39455   0.419   3.607   3.648
 9864WAT  MW   39456   0.412   3.537   3.597
 9865WAT  OW   39457   1.472   3.277   6.407
 9865WAT  HW1  39458   1.505   3.241   6.325
 9865WAT  HW2  39459   1.536   3.249   6.473
 9865WAT  MW   39460   1.485   3.269   6.405
 9866WAT  OW   39461   6.654   2.860   2.965
 9866WAT  HW1  39462   6.628   2.797   3.032
 9866WAT  HW2  39463   6.686   2.806   2.892
 9866WAT  MW   39464   6.655   2.844   2.964
 9867WAT  OW   39465   0.193   6.255   2.989
 9867WAT  HW1  39466   0.130   6.286   2.924
 9867WAT  HW2  39467   0.139   6.232   3.065
 9867WAT  MW   39468   0.178   6.256   2.990
 9868WAT  OW   39469   2.750   2.268   5.026
 9868WAT  HW1  39470   2.702   2.259   5.108
 9868WAT  HW2  39471   2.742   2.182   4.984
 9868WAT  MW   39472   2.743   2.255   5.031
 9869WAT  OW   39473   5.994   3.074   3.288
 9869WAT  HW1  39474   6.001   3.165   3.316
 9869WAT  HW2  39475   6.083   3.039   3.295
 9869WAT  MW   39476   6.007   3.081   3.292
 9870WAT  OW   39477   0.153   4.399   0.657
 9870WAT  HW1  39478   0.125   4.312   0.631
 9870WAT  HW2  39479   0.092   4.424   0.727
 9870WAT  MW   39480   0.141   4.391   0.663
 9871WAT  OW   39481   5.793   1.197   3.116
 9871WAT  HW1  39482   5.853   1.230   3.049
 9871WAT  HW2  39483   5.744   1.127   3.073
 9871WAT  MW   39484   5.794   1.192   3.102
 9872WAT  OW   39485   2.098   0.986   1.495
 9872WAT  HW1  39486   2.026   1.011   1.552
 9872WAT  HW2  39487   2.085   0.893   1.478
 9872WAT  MW   39488   2.087   0.977   1.500
 9873WAT  OW   39489   5.799   2.836   0.552
 9873WAT  HW1  39490   5.757   2.750   0.557
 9873WAT  HW2  39491   5.741   2.888   0.496
 9873WAT  MW   39492   5.786   2.832   0.545
 9874WAT  OW   39493   3.427   6.180   3.841
 9874WAT  HW1  39494   3.433   6.197   3.747
 9874WAT  HW2  39495   3.379   6.098   3.848
 9874WAT  MW   39496   3.422   6.171   3.829
 9875WAT  OW   39497   6.551   2.398   6.222
 9875WAT  HW1  39498   6.623   2.449   6.185
 9875WAT  HW2  39499   6.593   2.335   6.281
 9875WAT  MW   39500   6.566   2.396   6.225
 9876WAT  OW   39501   4.649   6.460   6.522
 9876WAT  HW1  39502   4.598   6.387   6.557
 9876WAT  HW2  39503   4.585   6.516   6.478
 9876WAT  MW   39504   4.634   6.458   6.521
 9877WAT  OW   39505   2.187   4.209   5.786
 9877WAT  HW1  39506   2.232   4.156   5.852
 9877WAT  HW2  39507   2.255   4.266   5.751
 9877WAT  MW   39508   2.202   4.209   5.790
 9878WAT  OW   39509   0.313   4.031   3.248
 9878WAT  HW1  39510   0.348   4.050   3.335
 9878WAT  HW2  39511   0.322   3.936   3.238
 9878WAT  MW   39512   0.319   4.021   3.258
 9879WAT  OW   39513   4.138   1.829   2.003
 9879WAT  HW1  39514   4.169   1.741   2.025
 9879WAT  HW2  39515   4.172   1.844   1.915
 9879WAT  MW   39516   4.147   1.819   1.994
 9880WAT  OW   39517   5.442   3.556   0.290
 9880WAT  HW1  39518   5.482   3.577   0.205
 9880WAT  HW2  39519   5.457   3.463   0.302
 9880WAT  MW   39520   5.449   3.547   0.280
 9881WAT  OW   39521   1.851   1.378   1.618
 9881WAT  HW1  39522   1.946   1.371   1.622
 9881WAT  HW2  39523   1.827   1.339   1.534
 9881WAT  MW   39524   1.860   1.372   1.607
 9882WAT  OW   39525   0.661   5.601   1.020
 9882WAT  HW1  39526   0.683   5.694   1.021
 9882WAT  HW2  39527   0.713   5.565   0.947
 9882WAT  MW   39528   0.671   5.609   1.011
 9883WAT  OW   39529   3.539   1.108   4.026
 9883WAT  HW1  39530   3.462   1.165   4.023
 9883WAT  HW2  39531   3.602   1.157   4.080
 9883WAT  MW   39532   3.537   1.122   4.033
 9884WAT  OW   39533   4.298   3.789   2.684
 9884WAT  HW1  39534   4.360   3.817   2.751
 9884WAT  HW2  39535   4.219   3.764   2.732
 9884WAT  MW   39536   4.296   3.790   2.699
 9885WAT  OW   39537   5.512   2.737   0.804
 9885WAT  HW1  39538   5.477   2.650   0.819
 9885WAT  HW2  39539   5.447   2.796   0.841
 9885WAT  MW   39540   5.499   2.733   0.811
 9886WAT  OW   39541   2.814   5.575   0.399
 9886WAT  HW1  39542   2.889   5.530   0.437
 9886WAT  HW2  39543   2.810   5.542   0.309
 9886WAT  MW   39544   2.823   5.565   0.392
 9887WAT  OW   39545   6.245   2.747   4.295
 9887WAT  HW1  39546   6.202   2.680   4.242
 9887WAT  HW2  39547   6.203   2.740   4.381
 9887WAT  MW   39548   6.233   2.737   4.299
 9888WAT  OW   39549   2.484   2.686   0.353
 9888WAT  HW1  39550   2.579   2.671   0.349
 9888WAT  HW2  39551   2.465   2.742   0.278
 9888WAT  MW   39552   2.494   2.691   0.343
 9889WAT  OW   39553   5.496   5.184   5.615
 9889WAT  HW1  39554   5.442   5.136   5.553
 9889WAT  HW2  39555   5.443   5.189   5.694
 9889WAT  MW   39556   5.482   5.178   5.617
 9890WAT  OW   39557   1.190   3.085   4.443
 9890WAT  HW1  39558   1.282   3.065   4.425
 9890WAT  HW2  39559   1.185   3.181   4.435
 9890WAT  MW   39560   1.202   3.095   4.440
 9891WAT  OW   39561   1.762   1.084   3.316
 9891WAT  HW1  39562   1.805   1.080   3.402
 9891WAT  HW2  39563   1.714   1.001   3.310
 9891WAT  MW   39564   1.761   1.072   3.327
 9892WAT  OW   39565   6.036   2.064   0.276
 9892WAT  HW1  39566   6.104   2.001   0.251
 9892WAT  HW2  39567   5.955   2.013   0.278
 9892WAT  MW   39568   6.034   2.049   0.273
 9893WAT  OW   39569   1.347   2.356   5.400
 9893WAT  HW1  39570   1.382   2.436   5.438
 9893WAT  HW2  39571   1.349   2.292   5.472
 9893WAT  MW   39572   1.352   2.358   5.415
 9894WAT  OW   39573   1.845   3.318   1.708
 9894WAT  HW1  39574   1.912   3.347   1.771
 9894WAT  HW2  39575   1.855   3.378   1.634
 9894WAT  MW   39576   1.855   3.330   1.706
 9895WAT  OW   39577   3.371   1.935   5.730
 9895WAT  HW1  39578   3.391   1.920   5.822
 9895WAT  HW2  39579   3.407   1.858   5.686
 9895WAT  MW   39580   3.379   1.922   5.736
 9896WAT  OW   39581   0.214   4.522   2.656
 9896WAT  HW1  39582   0.267   4.601   2.650
 9896WAT  HW2  39583   0.153   4.528   2.583
 9896WAT  MW   39584   0.213   4.533   2.645
 9897WAT  OW   39585   2.890   1.776   4.827
 9897WAT  HW1  39586   2.861   1.710   4.763
 9897WAT  HW2  39587   2.899   1.728   4.909
 9897WAT  MW   39588   2.888   1.761   4.829
 9898WAT  OW   39589   6.021   3.422   3.717
 9898WAT  HW1  39590   6.036   3.472   3.797
 9898WAT  HW2  39591   6.089   3.353   3.719
 9898WAT  MW   39592   6.032   3.419   3.728
 9899WAT  OW   39593   2.181   1.222   5.383
 9899WAT  HW1  39594   2.095   1.183   5.402
 9899WAT  HW2  39595   2.234   1.202   5.460
 9899WAT  MW   39596   2.177   1.214   5.395
 9900WAT  OW   39597   0.085   6.339   2.752
 9900WAT  HW1  39598  -0.003   6.373   2.740
 9900WAT  HW2  39599   0.079   6.246   2.728
 9900WAT  MW   39600   0.072   6.331   2.748
 9901WAT  OW   39601   1.821   1.121   3.842
 9901WAT  HW1  39602   1.774   1.043   3.873
 9901WAT  HW2  39603   1.795   1.190   3.903
 9901WAT  MW   39604   1.812   1.120   3.854
 9902WAT  OW   39605   2.871   3.624   4.923
 9902WAT  HW1  39606   2.810   3.631   4.851
 9902WAT  HW2  39607   2.906   3.712   4.935
 9902WAT  MW   39608   2.868   3.637   4.915
 9903WAT  OW   39609   1.027   6.660   1.056
 9903WAT  HW1  39610   0.949   6.713   1.066
 9903WAT  HW2  39611   1.080   6.705   0.989
 9903WAT  MW   39612   1.024   6.673   1.048
 9904WAT  OW   39613   1.808   3.888   5.088
 9904WAT  HW1  39614   1.753   3.964   5.068
 9904WAT  HW2  39615   1.863   3.877   5.011
 9904WAT  MW   39616   1.808   3.897   5.075
 9905WAT  OW   39617   4.335   5.279   2.126
 9905WAT  HW1  39618   4.372   5.356   2.170
 9905WAT  HW2  39619   4.408   5.244   2.075
 9905WAT  MW   39620   4.350   5.285   2.125
 9906WAT  OW   39621   0.195   0.022   3.076
 9906WAT  HW1  39622   0.136  -0.041   3.116
 9906WAT  HW2  39623   0.279   0.007   3.119
 9906WAT  MW   39624   0.198   0.012   3.087
 9907WAT  OW   39625   5.894   1.767   0.921
 9907WAT  HW1  39626   5.914   1.744   1.012
 9907WAT  HW2  39627   5.972   1.814   0.891
 9907WAT  MW   39628   5.907   1.770   0.929
 9908WAT  OW   39629   0.775   5.656   5.281
 9908WAT  HW1  39630   0.822   5.679   5.201
 9908WAT  HW2  39631   0.741   5.739   5.314
 9908WAT  MW   39632   0.777   5.670   5.275
 9909WAT  OW   39633   1.993   6.582   6.013
 9909WAT  HW1  39634   1.921   6.644   6.021
 9909WAT  HW2  39635   1.987   6.529   6.092
 9909WAT  MW   39636   1.983   6.583   6.024
 9910WAT  OW   39637   3.974   2.615   2.376
 9910WAT  HW1  39638   4.018   2.536   2.344
 9910WAT  HW2  39639   4.002   2.684   2.315
 9910WAT  MW   39640   3.983   2.614   2.364
 9911WAT  OW   39641   0.587   1.223   0.453
 9911WAT  HW1  39642   0.638   1.232   0.372
 9911WAT  HW2  39643   0.621   1.291   0.510
 9911WAT  MW   39644   0.598   1.233   0.450
 9912WAT  OW   39645   1.755   5.098   0.187
 9912WAT  HW1  39646   1.660   5.101   0.179
 9912WAT  HW2  39647   1.778   5.006   0.176
 9912WAT  MW   39648   1.746   5.086   0.185
 9913WAT  OW   39649   1.432   2.175   0.668
 9913WAT  HW1  39650   1.388   2.090   0.671
 9913WAT  HW2  39651   1.521   2.154   0.640
 9913WAT  MW   39652   1.437   2.161   0.665
 9914WAT  OW   39653   2.584   3.590   4.002
 9914WAT  HW1  39654   2.575   3.538   4.082
 9914WAT  HW2  39655   2.550   3.676   4.025
 9914WAT  MW   39656   2.578   3.594   4.016
 9915WAT  OW   39657   3.947   4.182   0.415
 9915WAT  HW1  39658   3.871   4.225   0.377
 9915WAT  HW2  39659   3.911   4.111   0.467
 9915WAT  MW   39660   3.932   4.179   0.417
 9916WAT  OW   39661   2.707   5.564   4.483
 9916WAT  HW1  39662   2.633   5.603   4.528
 9916WAT  HW2  39663   2.783   5.613   4.514
 9916WAT  MW   39664   2.707   5.576   4.493
 9917WAT  OW   39665   5.586   5.490   5.748
 9917WAT  HW1  39666   5.545   5.543   5.680
 9917WAT  HW2  39667   5.646   5.432   5.700
 9917WAT  MW   39668   5.589   5.490   5.733
 9918WAT  OW   39669   3.474   5.212   4.003
 9918WAT  HW1  39670   3.421   5.136   3.977
 9918WAT  HW2  39671   3.411   5.277   4.033
 9918WAT  MW   39672   3.459   5.210   4.004
 9919WAT  OW   39673   5.599   2.920   6.255
 9919WAT  HW1  39674   5.506   2.900   6.265
 9919WAT  HW2  39675   5.644   2.843   6.288
 9919WAT  MW   39676   5.593   2.907   6.260
 9920WAT  OW   39677   1.172   1.303   5.598
 9920WAT  HW1  39678   1.191   1.388   5.556
 9920WAT  HW2  39679   1.096   1.269   5.550
 9920WAT  MW   39680   1.165   1.310   5.586
 9921WAT  OW   39681   2.318   1.792   0.140
 9921WAT  HW1  39682   2.279   1.728   0.080
 9921WAT  HW2  39683   2.381   1.742   0.191
 9921WAT  MW   39684   2.321   1.777   0.138
 9922WAT  OW   39685   6.157   0.021   2.297
 9922WAT  HW1  39686   6.101   0.099   2.293
 9922WAT  HW2  39687   6.210   0.026   2.217
 9922WAT  MW   39688   6.157   0.032   2.286
 9923WAT  OW   39689   2.144   2.163   0.503
 9923WAT  HW1  39690   2.229   2.168   0.546
 9923WAT  HW2  39691   2.164   2.160   0.410
 9923WAT  MW   39692   2.158   2.163   0.496
 9924WAT  OW   39693   1.414   1.726   0.830
 9924WAT  HW1  39694   1.384   1.635   0.835
 9924WAT  HW2  39695   1.358   1.766   0.763
 9924WAT  MW   39696   1.403   1.720   0.822
 9925WAT  OW   39697   4.179   0.749   3.833
 9925WAT  HW1  39698   4.156   0.835   3.799
 9925WAT  HW2  39699   4.174   0.691   3.757
 9925WAT  MW   39700   4.176   0.752   3.818
 9926WAT  OW   39701   4.777   3.439   4.750
 9926WAT  HW1  39702   4.688   3.417   4.724
 9926WAT  HW2  39703   4.833   3.389   4.690
 9926WAT  MW   39704   4.773   3.429   4.739
 9927WAT  OW   39705   4.180   0.776   0.122
 9927WAT  HW1  39706   4.207   0.723   0.048
 9927WAT  HW2  39707   4.093   0.744   0.145
 9927WAT  MW   39708   4.172   0.765   0.115
 9928WAT  OW   39709   1.256   2.101   1.892
 9928WAT  HW1  39710   1.161   2.108   1.900
 9928WAT  HW2  39711   1.287   2.191   1.893
 9928WAT  MW   39712   1.248   2.114   1.893
 9929WAT  OW   39713   4.105   1.129   1.308
 9929WAT  HW1  39714   4.160   1.156   1.235
 9929WAT  HW2  39715   4.134   1.183   1.381
 9929WAT  MW   39716   4.116   1.140   1.308
 9930WAT  OW   39717   3.182   5.694   6.122
 9930WAT  HW1  39718   3.239   5.762   6.158
 9930WAT  HW2  39719   3.190   5.621   6.183
 9930WAT  MW   39720   3.191   5.693   6.135
 9931WAT  OW   39721   0.523   1.492   2.699
 9931WAT  HW1  39722   0.550   1.559   2.762
 9931WAT  HW2  39723   0.605   1.455   2.666
 9931WAT  MW   39724   0.537   1.496   2.703
 9932WAT  OW   39725   1.576   1.463   0.190
 9932WAT  HW1  39726   1.595   1.425   0.104
 9932WAT  HW2  39727   1.507   1.527   0.172
 9932WAT  MW   39728   1.569   1.467   0.176
 9933WAT  OW   39729   4.369   2.978   5.094
 9933WAT  HW1  39730   4.420   2.897   5.087
 9933WAT  HW2  39731   4.369   3.014   5.006
 9933WAT  MW   39732   4.376   2.972   5.082
 9934WAT  OW   39733   0.123   3.198   2.781
 9934WAT  HW1  39734   0.138   3.104   2.780
 9934WAT  HW2  39735   0.087   3.216   2.868
 9934WAT  MW   39736   0.120   3.188   2.793
 9935WAT  OW   39737   1.045   3.817   4.633
 9935WAT  HW1  39738   0.960   3.782   4.656
 9935WAT  HW2  39739   1.107   3.747   4.653
 9935WAT  MW   39740   1.042   3.803   4.638
 9936WAT  OW   39741   4.160   4.158   2.898
 9936WAT  HW1  39742   4.227   4.138   2.964
 9936WAT  HW2  39743   4.191   4.115   2.818
 9936WAT  MW   39744   4.173   4.149   2.896
 9937WAT  OW   39745   4.130   5.638   2.225
 9937WAT  HW1  39746   4.078   5.695   2.282
 9937WAT  HW2  39747   4.149   5.561   2.278
 9937WAT  MW   39748   4.126   5.635   2.239
 9938WAT  OW   39749   2.684   0.144   0.392
 9938WAT  HW1  39750   2.652   0.056   0.411
 9938WAT  HW2  39751   2.767   0.150   0.438
 9938WAT  MW   39752   2.691   0.133   0.400
 9939WAT  OW   39753   0.122   0.343   2.268
 9939WAT  HW1  39754   0.109   0.249   2.259
 9939WAT  HW2  39755   0.184   0.366   2.199
 9939WAT  MW   39756   0.128   0.334   2.258
 9940WAT  OW   39757   4.850   2.812   1.595
 9940WAT  HW1  39758   4.820   2.839   1.682
 9940WAT  HW2  39759   4.771   2.810   1.542
 9940WAT  MW   39760   4.836   2.815   1.600
 9941WAT  OW   39761   1.791   5.395   2.069
 9941WAT  HW1  39762   1.882   5.414   2.092
 9941WAT  HW2  39763   1.753   5.359   2.149
 9941WAT  MW   39764   1.798   5.393   2.082
 9942WAT  OW   39765   1.146   3.125   1.602
 9942WAT  HW1  39766   1.077   3.060   1.617
 9942WAT  HW2  39767   1.199   3.089   1.531
 9942WAT  MW   39768   1.144   3.112   1.595
 9943WAT  OW   39769   5.735   4.705   5.732
 9943WAT  HW1  39770   5.739   4.697   5.827
 9943WAT  HW2  39771   5.711   4.618   5.701
 9943WAT  MW   39772   5.732   4.693   5.740
 9944WAT  OW   39773   0.382   6.488   3.481
 9944WAT  HW1  39774   0.374   6.520   3.571
 9944WAT  HW2  39775   0.471   6.452   3.477
 9944WAT  MW   39776   0.393   6.488   3.492
 9945WAT  OW   39777   3.567   3.309   2.598
 9945WAT  HW1  39778   3.624   3.258   2.655
 9945WAT  HW2  39779   3.480   3.272   2.612
 9945WAT  MW   39780   3.563   3.297   2.607
 9946WAT  OW   39781   1.699   3.863   5.372
 9946WAT  HW1  39782   1.612   3.875   5.333
 9946WAT  HW2  39783   1.755   3.837   5.299
 9946WAT  MW   39784   1.695   3.862   5.358
 9947WAT  OW   39785   5.216   1.279   3.101
 9947WAT  HW1  39786   5.174   1.240   3.177
 9947WAT  HW2  39787   5.152   1.269   3.030
 9947WAT  MW   39788   5.202   1.273   3.102
 9948WAT  OW   39789   0.824   4.721   3.684
 9948WAT  HW1  39790   0.901   4.768   3.652
 9948WAT  HW2  39791   0.755   4.787   3.685
 9948WAT  MW   39792   0.825   4.736   3.680
 9949WAT  OW   39793   3.815   0.635   4.021
 9949WAT  HW1  39794   3.778   0.697   3.958
 9949WAT  HW2  39795   3.905   0.665   4.035
 9949WAT  MW   39796   3.822   0.647   4.015
 9950WAT  OW   39797   5.124   0.204   4.257
 9950WAT  HW1  39798   5.216   0.181   4.264
 9950WAT  HW2  39799   5.109   0.265   4.329
 9950WAT  MW   39800   5.134   0.209   4.268
 9951WAT  OW   39801   4.102   4.046   4.285
 9951WAT  HW1  39802   4.054   4.113   4.334
 9951WAT  HW2  39803   4.034   3.991   4.247
 9951WAT  MW   39804   4.087   4.048   4.286
 9952WAT  OW   39805   3.153   1.991   0.930
 9952WAT  HW1  39806   3.085   1.972   0.994
 9952WAT  HW2  39807   3.127   2.075   0.892
 9952WAT  MW   39808   3.140   2.000   0.933
 9953WAT  OW   39809   3.302   4.624   1.674
 9953WAT  HW1  39810   3.233   4.674   1.718
 9953WAT  HW2  39811   3.296   4.537   1.713
 9953WAT  MW   39812   3.292   4.619   1.685
 9954WAT  OW   39813   1.632   5.470   3.469
 9954WAT  HW1  39814   1.677   5.469   3.554
 9954WAT  HW2  39815   1.543   5.497   3.489
 9954WAT  MW   39816   1.626   5.473   3.483
 9955WAT  OW   39817   0.014   3.432   4.212
 9955WAT  HW1  39818  -0.077   3.450   4.232
 9955WAT  HW2  39819   0.028   3.471   4.125
 9955WAT  MW   39820   0.004   3.440   4.203
 9956WAT  OW   39821   5.909   1.350   5.765
 9956WAT  HW1  39822   5.997   1.335   5.733
 9956WAT  HW2  39823   5.889   1.441   5.743
 9956WAT  MW   39824   5.918   1.360   5.758
 9957WAT  OW   39825   5.795   3.790   6.224
 9957WAT  HW1  39826   5.840   3.710   6.250
 9957WAT  HW2  39827   5.840   3.818   6.144
 9957WAT  MW   39828   5.807   3.783   6.217
 9958WAT  OW   39829   5.137   5.382   5.763
 9958WAT  HW1  39830   5.154   5.456   5.821
 9958WAT  HW2  39831   5.085   5.418   5.691
 9958WAT  MW   39832   5.132   5.396   5.761
 9959WAT  OW   39833   0.680   5.108   3.108
 9959WAT  HW1  39834   0.746   5.151   3.163
 9959WAT  HW2  39835   0.623   5.179   3.080
 9959WAT  MW   39836   0.682   5.123   3.111
 9960WAT  OW   39837   1.695   3.214   6.544
 9960WAT  HW1  39838   1.729   3.155   6.476
 9960WAT  HW2  39839   1.741   3.297   6.529
 9960WAT  MW   39840   1.706   3.217   6.533
 9961WAT  OW   39841   3.880   2.121   3.543
 9961WAT  HW1  39842   3.840   2.200   3.579
 9961WAT  HW2  39843   3.946   2.153   3.481
 9961WAT  MW   39844   3.884   2.136   3.540
 9962WAT  OW   39845   5.386   1.886   2.203
 9962WAT  HW1  39846   5.337   1.875   2.122
 9962WAT  HW2  39847   5.324   1.925   2.265
 9962WAT  MW   39848   5.371   1.889   2.201
 9963WAT  OW   39849   4.660   1.655   5.391
 9963WAT  HW1  39850   4.635   1.611   5.472
 9963WAT  HW2  39851   4.582   1.649   5.335
 9963WAT  MW   39852   4.646   1.648   5.394
 9964WAT  OW   39853   4.493   0.905   5.073
 9964WAT  HW1  39854   4.562   0.953   5.118
 9964WAT  HW2  39855   4.419   0.908   5.134
 9964WAT  MW   39856   4.492   0.912   5.087
 9965WAT  OW   39857   4.005   4.726   5.406
 9965WAT  HW1  39858   4.049   4.642   5.391
 9965WAT  HW2  39859   3.932   4.704   5.465
 9965WAT  MW   39860   4.001   4.712   5.412
 9966WAT  OW   39861   3.908   0.389   4.037
 9966WAT  HW1  39862   3.839   0.332   4.071
 9966WAT  HW2  39863   3.868   0.475   4.033
 9966WAT  MW   39864   3.894   0.392   4.041
 9967WAT  OW   39865   1.507   3.348   3.685
 9967WAT  HW1  39866   1.514   3.287   3.759
 9967WAT  HW2  39867   1.464   3.425   3.722
 9967WAT  MW   39868   1.502   3.350   3.700
 9968WAT  OW   39869   5.761   3.446   2.251
 9968WAT  HW1  39870   5.769   3.352   2.233
 9968WAT  HW2  39871   5.677   3.470   2.212
 9968WAT  MW   39872   5.751   3.437   2.244
 9969WAT  OW   39873   5.289   3.648   1.995
 9969WAT  HW1  39874   5.231   3.642   2.071
 9969WAT  HW2  39875   5.264   3.573   1.941
 9969WAT  MW   39876   5.278   3.637   1.998
 9970WAT  OW   39877   6.046   1.780   1.740
 9970WAT  HW1  39878   6.059   1.696   1.784
 9970WAT  HW2  39879   6.135   1.814   1.728
 9970WAT  MW   39880   6.060   1.773   1.744
 9971WAT  OW   39881   5.403   3.382   3.852
 9971WAT  HW1  39882   5.467   3.318   3.884
 9971WAT  HW2  39883   5.456   3.456   3.823
 9971WAT  MW   39884   5.419   3.383   3.852
 9972WAT  OW   39885   5.896   3.849   2.616
 9972WAT  HW1  39886   5.818   3.808   2.652
 9972WAT  HW2  39887   5.961   3.778   2.612
 9972WAT  MW   39888   5.894   3.834   2.620
 9973WAT  OW   39889   6.644   3.048   4.795
 9973WAT  HW1  39890   6.670   2.982   4.730
 9973WAT  HW2  39891   6.676   3.131   4.758
 9973WAT  MW   39892   6.652   3.050   4.781
 9974WAT  OW   39893   6.648   5.460   1.273
 9974WAT  HW1  39894   6.697   5.384   1.243
 9974WAT  HW2  39895   6.612   5.499   1.194
 9974WAT  MW   39896   6.650   5.455   1.259
 9975WAT  OW   39897   2.747   0.152   1.809
 9975WAT  HW1  39898   2.764   0.061   1.835
 9975WAT  HW2  39899   2.831   0.195   1.818
 9975WAT  MW   39900   2.760   0.145   1.814
 9976WAT  OW   39901   3.954   2.371   0.788
 9976WAT  HW1  39902   3.920   2.345   0.702
 9976WAT  HW2  39903   4.023   2.307   0.807
 9976WAT  MW   39904   3.958   2.359   0.779
 9977WAT  OW   39905   0.338   4.164   4.551
 9977WAT  HW1  39906   0.424   4.166   4.510
 9977WAT  HW2  39907   0.309   4.255   4.552
 9977WAT  MW   39908   0.345   4.176   4.546
 9978WAT  OW   39909   0.332   3.742   4.006
 9978WAT  HW1  39910   0.287   3.827   4.009
 9978WAT  HW2  39911   0.261   3.679   3.993
 9978WAT  MW   39912   0.317   3.745   4.005
 9979WAT  OW   39913   6.499   4.574   4.663
 9979WAT  HW1  39914   6.536   4.494   4.627
 9979WAT  HW2  39915   6.571   4.636   4.663
 9979WAT  MW   39916   6.513   4.571   4.658
 9980WAT  OW   39917   4.573   1.325   1.109
 9980WAT  HW1  39918   4.634   1.356   1.177
 9980WAT  HW2  39919   4.585   1.387   1.036
 9980WAT  MW   39920   4.583   1.337   1.108
 9981WAT  OW   39921   4.760   3.351   6.359
 9981WAT  HW1  39922   4.838   3.402   6.376
 9981WAT  HW2  39923   4.697   3.380   6.425
 9981WAT  MW   39924   4.762   3.361   6.370
 9982WAT  OW   39925   0.417   1.003   6.401
 9982WAT  HW1  39926   0.458   0.938   6.343
 9982WAT  HW2  39927   0.389   0.953   6.478
 9982WAT  MW   39928   0.419   0.988   6.403
 9983WAT  OW   39929   0.519   0.534   1.391
 9983WAT  HW1  39930   0.466   0.574   1.321
 9983WAT  HW2  39931   0.548   0.451   1.354
 9983WAT  MW   39932   0.515   0.528   1.377
 9984WAT  OW   39933   3.943   0.302   0.370
 9984WAT  HW1  39934   3.899   0.300   0.455
 9984WAT  HW2  39935   4.034   0.324   0.390
 9984WAT  MW   39936   3.949   0.305   0.384
 9985WAT  OW   39937   0.213   1.365   1.074
 9985WAT  HW1  39938   0.172   1.452   1.071
 9985WAT  HW2  39939   0.243   1.350   0.985
 9985WAT  MW   39940   0.211   1.375   1.062
 9986WAT  OW   39941   0.096   5.836   2.590
 9986WAT  HW1  39942   0.102   5.926   2.620
 9986WAT  HW2  39943   0.002   5.818   2.585
 9986WAT  MW   39944   0.084   5.845   2.593
 9987WAT  OW   39945   2.134   5.712   6.616
 9987WAT  HW1  39946   2.193   5.780   6.586
 9987WAT  HW2  39947   2.059   5.759   6.653
 9987WAT  MW   39948   2.132   5.727   6.617
 9988WAT  OW   39949   2.038   5.643   3.055
 9988WAT  HW1  39950   2.090   5.564   3.075
 9988WAT  HW2  39951   2.102   5.714   3.052
 9988WAT  MW   39952   2.053   5.642   3.057
 9989WAT  OW   39953   3.499   4.158   0.421
 9989WAT  HW1  39954   3.476   4.251   0.408
 9989WAT  HW2  39955   3.440   4.111   0.362
 9989WAT  MW   39956   3.488   4.164   0.411
 9990WAT  OW   39957   0.005   3.318   3.674
 9990WAT  HW1  39958  -0.027   3.260   3.605
 9990WAT  HW2  39959  -0.059   3.310   3.744
 9990WAT  MW   39960  -0.007   3.309   3.674
 9991WAT  OW   39961   4.859   5.238   2.327
 9991WAT  HW1  39962   4.842   5.284   2.410
 9991WAT  HW2  39963   4.947   5.203   2.336
 9991WAT  MW   39964   4.868   5.239   2.339
 9992WAT  OW   39965   0.098   6.230   5.192
 9992WAT  HW1  39966   0.124   6.190   5.275
 9992WAT  HW2  39967   0.180   6.263   5.155
 9992WAT  MW   39968   0.113   6.229   5.198
 9993WAT  OW   39969   4.722   3.530   2.660
 9993WAT  HW1  39970   4.701   3.612   2.615
 9993WAT  HW2  39971   4.711   3.462   2.594
 9993WAT  MW   39972   4.718   3.532   2.645
 9994WAT  OW   39973   6.111   1.772   3.196
 9994WAT  HW1  39974   6.050   1.705   3.227
 9994WAT  HW2  39975   6.062   1.853   3.200
 9994WAT  MW   39976   6.097   1.774   3.201
 9995WAT  OW   39977   4.454   4.436   6.158
 9995WAT  HW1  39978   4.540   4.418   6.119
 9995WAT  HW2  39979   4.391   4.408   6.091
 9995WAT  MW   39980   4.457   4.430   6.144
 9996WAT  OW   39981   1.459   0.045   0.083
 9996WAT  HW1  39982   1.407  -0.034   0.095
 9996WAT  HW2  39983   1.448   0.093   0.165
 9996WAT  MW   39984   1.451   0.041   0.095
 9997WAT  OW   39985   6.379   2.246   5.677
 9997WAT  HW1  39986   6.291   2.260   5.710
 9997WAT  HW2  39987   6.426   2.327   5.699
 9997WAT  MW   39988   6.374   2.259   5.684
 9998WAT  OW   39989   6.320   5.637   0.297
 9998WAT  HW1  39990   6.278   5.716   0.262
 9998WAT  HW2  39991   6.324   5.651   0.391
 9998WAT  MW   39992   6.315   5.649   0.305
 9999WAT  OW   39993   3.873   2.892   4.927
 9999WAT  HW1  39994   3.789   2.851   4.906
 9999WAT  HW2  39995   3.919   2.897   4.843
 9999WAT  MW   39996   3.868   2.887   4.913
10000WAT  OW   39997   5.917   1.983   3.238
10000WAT  HW1  39998   5.985   2.043   3.268
10000WAT  HW2  39999   5.907   2.001   3.144
10000WAT  MW   40000   5.924   1.993   3.229
   6.69623   6.69623   6.69633
