Agua tip4p_2005 bulk
50000
    1WAT     OW    1   0.174   4.918   6.299
    1WAT    HW1    2   0.082   4.892   6.304
    1WAT    HW2    3   0.173   4.999   6.248
    1WAT    LP1    4   0.200   4.929   6.363
    1WAT    LP2    5   0.212   4.869   6.266
    2WAT     OW    6   5.942   0.164   3.520
    2WAT    HW1    7   6.022   0.167   3.467
    2WAT    HW2    8   5.888   0.097   3.479
    2WAT    LP1    9   5.957   0.147   3.586
    2WAT    LP2   10   5.909   0.226   3.519
    3WAT     OW   11   1.901   6.603   2.724
    3WAT    HW1   12   1.903   6.552   2.805
    3WAT    HW2   13   1.808   6.606   2.700
    3WAT    LP1   14   1.925   6.668   2.735
    3WAT    LP2   15   1.939   6.572   2.674
    4WAT     OW   16   5.929   1.052   0.490
    4WAT    HW1   17   5.962   1.068   0.401
    4WAT    HW2   18   5.836   1.074   0.485
    4WAT    LP1   19   5.938   0.985   0.508
    4WAT    LP2   20   5.962   1.093   0.536
    5WAT     OW   21   3.801   5.480   0.210
    5WAT    HW1   22   3.847   5.472   0.294
    5WAT    HW2   23   3.849   5.422   0.151
    5WAT    LP1   24   3.735   5.460   0.216
    5WAT    LP2   25   3.804   5.546   0.187
    6WAT     OW   26   1.418   1.670   0.630
    6WAT    HW1   27   1.461   1.704   0.708
    6WAT    HW2   28   1.394   1.580   0.653
    6WAT    LP1   29   1.361   1.707   0.614
    6WAT    LP2   30   1.461   1.670   0.575
    7WAT     OW   31   4.632   4.064   4.339
    7WAT    HW1   32   4.595   3.995   4.283
    7WAT    HW2   33   4.575   4.065   4.416
    7WAT    LP1   34   4.698   4.048   4.357
    7WAT    LP2   35   4.630   4.126   4.306
    8WAT     OW   36   5.108   0.219   4.499
    8WAT    HW1   37   5.045   0.215   4.427
    8WAT    HW2   38   5.139   0.129   4.509
    8WAT    LP1   39   5.161   0.261   4.482
    8WAT    LP2   40   5.078   0.241   4.558
    9WAT     OW   41   4.289   5.651   5.823
    9WAT    HW1   42   4.313   5.639   5.731
    9WAT    HW2   43   4.266   5.563   5.853
    9WAT    LP1   44   4.343   5.676   5.860
    9WAT    LP2   45   4.235   5.694   5.829
   10WAT     OW   46   6.279   2.458   2.646
   10WAT    HW1   47   6.315   2.415   2.568
   10WAT    HW2   48   6.355   2.484   2.697
   10WAT    LP1   49   6.241   2.514   2.627
   10WAT    LP2   50   6.239   2.414   2.682
   11WAT     OW   51   2.116   0.654   5.577
   11WAT    HW1   52   2.078   0.701   5.503
   11WAT    HW2   53   2.146   0.571   5.541
   11WAT    LP1   54   2.170   0.690   5.604
   11WAT    LP2   55   2.069   0.644   5.627
   12WAT     OW   56   1.173   1.005   1.878
   12WAT    HW1   57   1.232   1.033   1.808
   12WAT    HW2   58   1.134   0.924   1.846
   12WAT    LP1   59   1.209   0.993   1.937
   12WAT    LP2   60   1.124   1.053   1.890
   13WAT     OW   61   4.398   3.419   5.661
   13WAT    HW1   62   4.354   3.446   5.580
   13WAT    HW2   63   4.400   3.498   5.714
   13WAT    LP1   64   4.362   3.369   5.693
   13WAT    LP2   65   4.463   3.397   5.647
   14WAT     OW   66   5.762   6.339   1.342
   14WAT    HW1   67   5.719   6.296   1.416
   14WAT    HW2   68   5.823   6.273   1.308
   14WAT    LP1   69   5.715   6.357   1.294
   14WAT    LP2   70   5.797   6.396   1.364
   15WAT     OW   71   6.466   6.044   3.002
   15WAT    HW1   72   6.483   6.126   3.048
   15WAT    HW2   73   6.386   6.061   2.952
   15WAT    LP1   74   6.519   6.028   2.958
   15WAT    LP2   75   6.457   5.991   3.047
   16WAT     OW   76   5.616   6.000   3.825
   16WAT    HW1   77   5.697   5.994   3.876
   16WAT    HW2   78   5.605   5.913   3.788
   16WAT    LP1   79   5.562   6.016   3.867
   16WAT    LP2   80   5.621   6.048   3.775
   17WAT     OW   81   1.543   0.094   4.719
   17WAT    HW1   82   1.516   0.086   4.810
   17WAT    HW2   83   1.472   0.141   4.676
   17WAT    LP1   84   1.603   0.131   4.714
   17WAT    LP2   85   1.553   0.031   4.690
   18WAT     OW   86   5.348   4.713   4.082
   18WAT    HW1   87   5.392   4.795   4.102
   18WAT    HW2   88   5.365   4.657   4.157
   18WAT    LP1   89   5.279   4.723   4.074
   18WAT    LP2   90   5.374   4.685   4.023
   19WAT     OW   91   1.933   5.700   0.070
   19WAT    HW1   92   1.945   5.611   0.104
   19WAT    HW2   93   1.853   5.696   0.019
   19WAT    LP1   94   1.927   5.746   0.122
   19WAT    LP2   95   1.987   5.718   0.030
   20WAT     OW   96   2.467   0.387   5.522
   20WAT    HW1   97   2.481   0.292   5.529
   20WAT    HW2   98   2.373   0.395   5.508
   20WAT    LP1   99   2.486   0.418   5.582
   20WAT    LP2  100   2.503   0.414   5.469
   21WAT     OW  101   5.859   6.582   0.708
   21WAT    HW1  102   5.893   6.501   0.668
   21WAT    HW2  103   5.925   6.648   0.689
   21WAT    LP1  104   5.797   6.599   0.679
   21WAT    LP2  105   5.851   6.574   0.777
   22WAT     OW  106   1.704   0.594   2.969
   22WAT    HW1  107   1.669   0.576   2.881
   22WAT    HW2  108   1.788   0.549   2.971
   22WAT    LP1  109   1.712   0.663   2.978
   22WAT    LP2  110   1.661   0.568   3.018
   23WAT     OW  111   4.035   0.485   3.389
   23WAT    HW1  112   4.091   0.561   3.369
   23WAT    HW2  113   4.022   0.489   3.483
   23WAT    LP1  114   3.973   0.491   3.355
   23WAT    LP2  115   4.066   0.426   3.370
   24WAT     OW  116   2.504   2.435   3.412
   24WAT    HW1  117   2.566   2.365   3.392
   24WAT    HW2  118   2.418   2.397   3.392
   24WAT    LP1  119   2.508   2.453   3.480
   24WAT    LP2  120   2.516   2.491   3.372
   25WAT     OW  121   2.750   0.332   5.151
   25WAT    HW1  122   2.845   0.338   5.140
   25WAT    HW2  123   2.734   0.360   5.241
   25WAT    LP1  124   2.717   0.373   5.105
   25WAT    LP2  125   2.728   0.266   5.142
   26WAT     OW  126   3.854   1.943   5.638
   26WAT    HW1  127   3.878   2.009   5.573
   26WAT    HW2  128   3.933   1.891   5.650
   26WAT    LP1  129   3.834   1.974   5.698
   26WAT    LP2  130   3.801   1.903   5.614
   27WAT     OW  131   4.130   1.786   3.461
   27WAT    HW1  132   4.169   1.743   3.385
   27WAT    HW2  133   4.168   1.741   3.536
   27WAT    LP1  134   4.145   1.854   3.462
   27WAT    LP2  135   4.060   1.778   3.461
   28WAT     OW  136   4.940   4.729   0.871
   28WAT    HW1  137   4.903   4.660   0.815
   28WAT    HW2  138   4.865   4.784   0.892
   28WAT    LP1  139   4.967   4.701   0.929
   28WAT    LP2  140   4.988   4.766   0.836
   29WAT     OW  141   2.074   1.030   3.758
   29WAT    HW1  142   2.167   1.020   3.777
   29WAT    HW2  143   2.031   0.961   3.808
   29WAT    LP1  144   2.051   1.093   3.778
   29WAT    LP2  145   2.061   1.021   3.689
   30WAT     OW  146   0.228   6.513   3.935
   30WAT    HW1  147   0.158   6.574   3.908
   30WAT    HW2  148   0.195   6.473   4.015
   30WAT    LP1  149   0.238   6.464   3.885
   30WAT    LP2  150   0.287   6.547   3.946
   31WAT     OW  151   5.956   6.675   5.224
   31WAT    HW1  152   6.028   6.723   5.183
   31WAT    HW2  153   5.996   6.595   5.258
   31WAT    LP1  154   5.927   6.712   5.276
   31WAT    LP2  155   5.906   6.660   5.176
   32WAT     OW  156   6.294   4.887   0.028
   32WAT    HW1  157   6.382   4.855   0.048
   32WAT    HW2  158   6.240   4.853   0.099
   32WAT    LP1  159   6.293   4.957   0.027
   32WAT    LP2  160   6.273   4.863  -0.034
   33WAT     OW  161   0.008   6.100   1.051
   33WAT    HW1  162  -0.032   6.142   0.975
   33WAT    HW2  163   0.008   6.007   1.030
   33WAT    LP1  164   0.074   6.123   1.060
   33WAT    LP2  165  -0.029   6.112   1.108
   34WAT     OW  166   5.817   0.477   5.204
   34WAT    HW1  167   5.824   0.437   5.117
   34WAT    HW2  168   5.861   0.415   5.262
   34WAT    LP1  169   5.849   0.539   5.205
   34WAT    LP2  170   5.750   0.484   5.222
   35WAT     OW  171   0.696   4.989   2.972
   35WAT    HW1  172   0.750   4.961   3.046
   35WAT    HW2  173   0.757   4.989   2.898
   35WAT    LP1  174   0.644   4.943   2.961
   35WAT    LP2  175   0.669   5.052   2.983
   36WAT     OW  176   5.899   6.023   4.535
   36WAT    HW1  177   5.849   5.961   4.481
   36WAT    HW2  178   5.868   6.109   4.506
   36WAT    LP1  179   5.885   6.014   4.603
   36WAT    LP2  180   5.967   6.017   4.523
   37WAT     OW  181   2.907   6.304   0.411
   37WAT    HW1  182   2.951   6.386   0.432
   37WAT    HW2  183   2.968   6.260   0.351
   37WAT    LP1  184   2.897   6.266   0.468
   37WAT    LP2  185   2.846   6.316   0.379
   38WAT     OW  186   1.837   6.512   1.292
   38WAT    HW1  187   1.870   6.552   1.211
   38WAT    HW2  188   1.743   6.501   1.277
   38WAT    LP1  189   1.867   6.449   1.302
   38WAT    LP2  190   1.849   6.553   1.347
   39WAT     OW  191   0.433   0.144   4.776
   39WAT    HW1  192   0.454   0.202   4.703
   39WAT    HW2  193   0.353   0.181   4.814
   39WAT    LP1  194   0.422   0.079   4.753
   39WAT    LP2  195   0.485   0.144   4.823
   40WAT     OW  196   3.489   5.071   2.483
   40WAT    HW1  197   3.511   4.978   2.474
   40WAT    HW2  198   3.543   5.114   2.416
   40WAT    LP1  199   3.421   5.082   2.471
   40WAT    LP2  200   3.506   5.094   2.546
   41WAT     OW  201   2.332   0.842   3.248
   41WAT    HW1  202   2.268   0.779   3.280
   41WAT    HW2  203   2.340   0.821   3.154
   41WAT    LP1  204   2.309   0.907   3.256
   41WAT    LP2  205   2.393   0.834   3.280
   42WAT     OW  206   0.636   1.443   4.086
   42WAT    HW1  207   0.555   1.426   4.039
   42WAT    HW2  208   0.684   1.360   4.083
   42WAT    LP1  209   0.673   1.494   4.055
   42WAT    LP2  210   0.623   1.462   4.152
   43WAT     OW  211   1.954   5.095   0.520
   43WAT    HW1  212   1.957   5.068   0.612
   43WAT    HW2  213   1.930   5.187   0.523
   43WAT    LP1  214   2.016   5.086   0.489
   43WAT    LP2  215   1.905   5.058   0.486
   44WAT     OW  216   6.131   0.614   6.442
   44WAT    HW1  217   6.209   0.561   6.452
   44WAT    HW2  218   6.110   0.644   6.530
   44WAT    LP1  219   6.143   0.669   6.400
   44WAT    LP2  220   6.078   0.576   6.415
   45WAT     OW  221   3.447   3.029   2.883
   45WAT    HW1  222   3.516   3.030   2.816
   45WAT    HW2  223   3.406   2.943   2.872
   45WAT    LP1  224   3.475   3.035   2.947
   45WAT    LP2  225   3.401   3.080   2.872
   46WAT     OW  226   1.991   1.982   2.703
   46WAT    HW1  227   2.019   1.917   2.638
   46WAT    HW2  228   1.916   1.940   2.747
   46WAT    LP1  229   2.042   1.995   2.749
   46WAT    LP2  230   1.971   2.041   2.672
   47WAT     OW  231   5.525   3.661   0.935
   47WAT    HW1  232   5.474   3.637   1.012
   47WAT    HW2  233   5.611   3.622   0.950
   47WAT    LP1  234   5.496   3.634   0.877
   47WAT    LP2  235   5.530   3.730   0.929
   48WAT     OW  236   5.100   4.513   3.227
   48WAT    HW1  237   5.017   4.533   3.270
   48WAT    HW2  238   5.075   4.476   3.143
   48WAT    LP1  239   5.138   4.571   3.219
   48WAT    LP2  240   5.136   4.466   3.265
   49WAT     OW  241   0.148   5.205   6.451
   49WAT    HW1  242   0.234   5.184   6.486
   49WAT    HW2  243   0.160   5.208   6.356
   49WAT    LP1  244   0.101   5.156   6.468
   49WAT    LP2  245   0.126   5.267   6.475
   50WAT     OW  246   0.193   4.787   0.483
   50WAT    HW1  247   0.253   4.855   0.514
   50WAT    HW2  248   0.212   4.779   0.390
   50WAT    LP1  249   0.206   4.726   0.516
   50WAT    LP2  250   0.127   4.806   0.493
   51WAT     OW  251   3.355   0.218   5.587
   51WAT    HW1  252   3.443   0.187   5.606
   51WAT    HW2  253   3.340   0.194   5.495
   51WAT    LP1  254   3.308   0.186   5.628
   51WAT    LP2  255   3.350   0.287   5.595
   52WAT     OW  256   5.063   1.210   6.047
   52WAT    HW1  257   5.079   1.206   6.141
   52WAT    HW2  258   5.026   1.297   6.032
   52WAT    LP1  259   5.122   1.201   6.011
   52WAT    LP2  260   5.017   1.160   6.028
   53WAT     OW  261   3.780   0.665   4.424
   53WAT    HW1  262   3.860   0.686   4.374
   53WAT    HW2  263   3.801   0.691   4.514
   53WAT    LP1  264   3.726   0.702   4.399
   53WAT    LP2  265   3.766   0.597   4.420
   54WAT     OW  266   1.135   5.250   2.656
   54WAT    HW1  267   1.177   5.308   2.720
   54WAT    HW2  268   1.165   5.282   2.571
   54WAT    LP1  269   1.156   5.184   2.666
   54WAT    LP2  270   1.066   5.253   2.661
   55WAT     OW  271   6.433   6.122   0.960
   55WAT    HW1  272   6.393   6.203   0.991
   55WAT    HW2  273   6.363   6.077   0.913
   55WAT    LP1  274   6.487   6.135   0.918
   55WAT    LP2  275   6.455   6.083   1.015
   56WAT     OW  276   3.765   4.046   2.998
   56WAT    HW1  277   3.675   4.077   2.997
   56WAT    HW2  278   3.790   4.048   3.090
   56WAT    LP1  279   3.769   3.981   2.972
   56WAT    LP2  280   3.806   4.089   2.960
   57WAT     OW  281   6.423   1.948   1.578
   57WAT    HW1  282   6.412   1.945   1.673
   57WAT    HW2  283   6.371   2.024   1.550
   57WAT    LP1  284   6.491   1.958   1.562
   57WAT    LP2  285   6.400   1.890   1.548
   58WAT     OW  286   0.163   4.522   3.874
   58WAT    HW1  287   0.224   4.589   3.901
   58WAT    HW2  288   0.172   4.517   3.779
   58WAT    LP1  289   0.179   4.460   3.903
   58WAT    LP2  290   0.097   4.539   3.892
   59WAT     OW  291   1.064   0.785   1.741
   59WAT    HW1  292   1.083   0.691   1.745
   59WAT    HW2  293   0.969   0.790   1.730
   59WAT    LP1  294   1.084   0.816   1.800
   59WAT    LP2  295   1.097   0.814   1.687
   60WAT     OW  296   1.554   6.145   1.439
   60WAT    HW1  297   1.533   6.221   1.494
   60WAT    HW2  298   1.500   6.074   1.476
   60WAT    LP1  299   1.537   6.157   1.372
   60WAT    LP2  300   1.622   6.129   1.444
   61WAT     OW  301   5.738   4.512   5.688
   61WAT    HW1  302   5.658   4.559   5.712
   61WAT    HW2  303   5.722   4.481   5.599
   61WAT    LP1  304   5.793   4.555   5.689
   61WAT    LP2  305   5.749   4.458   5.731
   62WAT     OW  306   4.487   2.401   5.022
   62WAT    HW1  307   4.473   2.403   5.116
   62WAT    HW2  308   4.581   2.415   5.011
   62WAT    LP1  309   4.468   2.339   4.996
   62WAT    LP2  310   4.450   2.451   4.990
   63WAT     OW  311   1.201   1.767   0.283
   63WAT    HW1  312   1.247   1.704   0.227
   63WAT    HW2  313   1.116   1.779   0.242
   63WAT    LP1  314   1.194   1.741   0.348
   63WAT    LP2  315   1.236   1.827   0.286
   64WAT     OW  316   3.824   6.269   6.437
   64WAT    HW1  317   3.729   6.271   6.444
   64WAT    HW2  318   3.842   6.218   6.358
   64WAT    LP1  319   3.850   6.333   6.431
   64WAT    LP2  320   3.852   6.237   6.494
   65WAT     OW  321   1.553   2.146   5.586
   65WAT    HW1  322   1.488   2.212   5.610
   65WAT    HW2  323   1.527   2.119   5.497
   65WAT    LP1  324   1.617   2.173   5.586
   65WAT    LP2  325   1.550   2.092   5.630
   66WAT     OW  326   2.372   0.362   6.498
   66WAT    HW1  327   2.438   0.429   6.481
   66WAT    HW2  328   2.358   0.365   6.593
   66WAT    LP1  329   2.313   0.377   6.464
   66WAT    LP2  330   2.395   0.299   6.478
   67WAT     OW  331   0.817   5.469   0.243
   67WAT    HW1  332   0.790   5.525   0.316
   67WAT    HW2  333   0.756   5.395   0.246
   67WAT    LP1  334   0.811   5.504   0.183
   67WAT    LP2  335   0.883   5.448   0.252
   68WAT     OW  336   2.934   4.298   2.281
   68WAT    HW1  337   2.941   4.321   2.374
   68WAT    HW2  338   3.023   4.276   2.255
   68WAT    LP1  339   2.891   4.243   2.272
   68WAT    LP2  340   2.910   4.352   2.244
   69WAT     OW  341   1.032   5.715   2.959
   69WAT    HW1  342   1.035   5.808   2.936
   69WAT    HW2  343   1.022   5.670   2.876
   69WAT    LP1  344   1.091   5.695   2.991
   69WAT    LP2  345   0.977   5.702   3.001
   70WAT     OW  346   4.151   4.522   5.870
   70WAT    HW1  347   4.141   4.500   5.778
   70WAT    HW2  348   4.170   4.439   5.913
   70WAT    LP1  349   4.204   4.567   5.879
   70WAT    LP2  350   4.092   4.550   5.896
   71WAT     OW  351   2.135   6.246   6.031
   71WAT    HW1  352   2.100   6.191   6.101
   71WAT    HW2  353   2.220   6.275   6.063
   71WAT    LP1  354   2.142   6.209   5.972
   71WAT    LP2  355   2.093   6.300   6.019
   72WAT     OW  356   6.342   5.285   1.829
   72WAT    HW1  357   6.341   5.236   1.912
   72WAT    HW2  358   6.418   5.250   1.782
   72WAT    LP1  359   6.283   5.274   1.794
   72WAT    LP2  360   6.350   5.354   1.841
   73WAT     OW  361   3.685   2.491   0.717
   73WAT    HW1  362   3.673   2.582   0.745
   73WAT    HW2  363   3.780   2.479   0.716
   73WAT    LP1  364   3.655   2.447   0.763
   73WAT    LP2  365   3.657   2.481   0.654
   74WAT     OW  366   1.343   2.886   5.978
   74WAT    HW1  367   1.305   2.817   6.033
   74WAT    HW2  368   1.337   2.965   6.031
   74WAT    LP1  369   1.409   2.871   5.962
   74WAT    LP2  370   1.306   2.893   5.919
   75WAT     OW  371   5.171   4.314   0.775
   75WAT    HW1  372   5.169   4.242   0.712
   75WAT    HW2  373   5.244   4.292   0.833
   75WAT    LP1  374   5.183   4.374   0.743
   75WAT    LP2  375   5.111   4.317   0.811
   76WAT     OW  376   2.224   4.686   4.717
   76WAT    HW1  377   2.225   4.635   4.798
   76WAT    HW2  378   2.183   4.628   4.652
   76WAT    LP1  379   2.186   4.745   4.725
   76WAT    LP2  380   2.289   4.703   4.697
   77WAT     OW  381   0.637   0.417   5.741
   77WAT    HW1  382   0.679   0.501   5.722
   77WAT    HW2  383   0.573   0.437   5.809
   77WAT    LP1  384   0.605   0.392   5.684
   77WAT    LP2  385   0.684   0.370   5.764
   78WAT     OW  386   0.867   4.739   1.244
   78WAT    HW1  387   0.872   4.833   1.260
   78WAT    HW2  388   0.870   4.731   1.149
   78WAT    LP1  389   0.920   4.705   1.274
   78WAT    LP2  390   0.806   4.713   1.269
   79WAT     OW  391   3.053   4.549   1.529
   79WAT    HW1  392   3.122   4.562   1.595
   79WAT    HW2  393   2.976   4.523   1.579
   79WAT    LP1  394   3.041   4.609   1.494
   79WAT    LP2  395   3.071   4.499   1.484
   80WAT     OW  396   0.261   0.900   4.792
   80WAT    HW1  397   0.340   0.854   4.763
   80WAT    HW2  398   0.293   0.974   4.843
   80WAT    LP1  399   0.224   0.922   4.737
   80WAT    LP2  400   0.221   0.858   4.832
   81WAT     OW  401   1.498   5.457   1.085
   81WAT    HW1  402   1.544   5.412   1.155
   81WAT    HW2  403   1.567   5.503   1.036
   81WAT    LP1  404   1.465   5.411   1.043
   81WAT    LP2  405   1.452   5.503   1.110
   82WAT     OW  406   4.114   2.125   0.369
   82WAT    HW1  407   4.084   2.038   0.344
   82WAT    HW2  408   4.033   2.174   0.387
   82WAT    LP1  409   4.154   2.122   0.426
   82WAT    LP2  410   4.150   2.155   0.317
   83WAT     OW  411   2.559   2.084   1.852
   83WAT    HW1  412   2.574   2.171   1.889
   83WAT    HW2  413   2.527   2.032   1.925
   83WAT    LP1  414   2.511   2.087   1.801
   83WAT    LP2  415   2.618   2.057   1.826
   84WAT     OW  416   3.246   1.375   0.225
   84WAT    HW1  417   3.213   1.290   0.195
   84WAT    HW2  418   3.169   1.432   0.228
   84WAT    LP1  419   3.275   1.369   0.289
   84WAT    LP2  420   3.293   1.400   0.180
   85WAT     OW  421   6.149   1.024   5.533
   85WAT    HW1  422   6.082   0.994   5.472
   85WAT    HW2  423   6.116   1.107   5.567
   85WAT    LP1  424   6.157   0.977   5.585
   85WAT    LP2  425   6.210   1.033   5.501
   86WAT     OW  426   3.279   5.245   5.195
   86WAT    HW1  427   3.185   5.241   5.212
   86WAT    HW2  428   3.310   5.156   5.206
   86WAT    LP1  429   3.290   5.268   5.129
   86WAT    LP2  430   3.310   5.288   5.240
   87WAT     OW  431   1.398   2.133   0.850
   87WAT    HW1  432   1.303   2.140   0.848
   87WAT    HW2  433   1.429   2.211   0.805
   87WAT    LP1  434   1.421   2.132   0.916
   87WAT    LP2  435   1.419   2.075   0.818
   88WAT     OW  436   4.871   2.658   6.605
   88WAT    HW1  437   4.835   2.642   6.692
   88WAT    HW2  438   4.835   2.743   6.580
   88WAT    LP1  439   4.941   2.659   6.607
   88WAT    LP2  440   4.850   2.608   6.560
   89WAT     OW  441   3.882   2.598   4.156
   89WAT    HW1  442   3.848   2.662   4.095
   89WAT    HW2  443   3.916   2.650   4.229
   89WAT    LP1  444   3.832   2.555   4.178
   89WAT    LP2  445   3.934   2.560   4.127
   90WAT     OW  446   1.628   3.213   4.313
   90WAT    HW1  447   1.689   3.156   4.361
   90WAT    HW2  448   1.651   3.301   4.339
   90WAT    LP1  449   1.637   3.204   4.244
   90WAT    LP2  450   1.562   3.198   4.330
   91WAT     OW  451   2.731   2.040   6.360
   91WAT    HW1  452   2.806   2.063   6.305
   91WAT    HW2  453   2.758   2.065   6.449
   91WAT    LP1  454   2.675   2.076   6.341
   91WAT    LP2  455   2.718   1.972   6.357
   92WAT     OW  456   6.128   3.218   0.016
   92WAT    HW1  457   6.138   3.281   0.088
   92WAT    HW2  458   6.149   3.267  -0.062
   92WAT    LP1  459   6.172   3.164   0.025
   92WAT    LP2  460   6.062   3.194   0.013
   93WAT     OW  461   4.800   1.927   1.274
   93WAT    HW1  462   4.847   2.006   1.247
   93WAT    HW2  463   4.758   1.896   1.194
   93WAT    LP1  464   4.844   1.879   1.299
   93WAT    LP2  465   4.752   1.942   1.323
   94WAT     OW  466   3.999   4.657   2.009
   94WAT    HW1  467   4.072   4.719   2.019
   94WAT    HW2  468   3.978   4.659   1.916
   94WAT    LP1  469   4.018   4.593   2.029
   94WAT    LP2  470   3.944   4.678   2.047
   95WAT     OW  471   1.819   3.540   3.951
   95WAT    HW1  472   1.838   3.463   3.897
   95WAT    HW2  473   1.874   3.609   3.914
   95WAT    LP1  474   1.752   3.557   3.948
   95WAT    LP2  475   1.837   3.528   4.018
   96WAT     OW  476   3.823   5.926   6.570
   96WAT    HW1  477   3.761   5.885   6.510
   96WAT    HW2  478   3.909   5.903   6.536
   96WAT    LP1  479   3.815   5.996   6.571
   96WAT    LP2  480   3.814   5.902   6.635
   97WAT     OW  481   1.762   4.279   4.382
   97WAT    HW1  482   1.836   4.218   4.377
   97WAT    HW2  483   1.738   4.296   4.291
   97WAT    LP1  484   1.709   4.250   4.417
   97WAT    LP2  485   1.782   4.338   4.414
   98WAT     OW  486   2.272   1.748   2.142
   98WAT    HW1  487   2.234   1.791   2.219
   98WAT    HW2  488   2.198   1.739   2.081
   98WAT    LP1  489   2.322   1.788   2.113
   98WAT    LP2  490   2.298   1.686   2.158
   99WAT     OW  491   5.220   4.104   5.624
   99WAT    HW1  492   5.213   4.009   5.636
   99WAT    HW2  493   5.168   4.122   5.545
   99WAT    LP1  494   5.195   4.138   5.679
   99WAT    LP2  495   5.287   4.122   5.614
  100WAT     OW  496   1.943   0.826   3.888
  100WAT    HW1  497   1.900   0.800   3.806
  100WAT    HW2  498   1.878   0.807   3.955
  100WAT    LP1  499   2.001   0.789   3.898
  100WAT    LP2  500   1.958   0.895   3.887
  101WAT     OW  501   6.617   5.257   6.263
  101WAT    HW1  502   6.634   5.195   6.333
  101WAT    HW2  503   6.602   5.203   6.185
  101WAT    LP1  504   6.561   5.296   6.277
  101WAT    LP2  505   6.673   5.299   6.253
  102WAT     OW  506   4.473   1.132   5.535
  102WAT    HW1  507   4.536   1.140   5.463
  102WAT    HW2  508   4.388   1.153   5.496
  102WAT    LP1  509   4.473   1.067   5.561
  102WAT    LP2  510   4.489   1.177   5.587
  103WAT     OW  511   0.633   5.026   2.080
  103WAT    HW1  512   0.574   5.007   2.008
  103WAT    HW2  513   0.576   5.036   2.156
  103WAT    LP1  514   0.678   4.973   2.090
  103WAT    LP2  515   0.669   5.085   2.068
  104WAT     OW  516   1.130   5.929   6.458
  104WAT    HW1  517   1.098   6.017   6.476
  104WAT    HW2  518   1.212   5.943   6.411
  104WAT    LP1  519   1.141   5.894   6.518
  104WAT    LP2  520   1.085   5.894   6.419
  105WAT     OW  521   0.521   4.948   3.321
  105WAT    HW1  522   0.464   4.892   3.269
  105WAT    HW2  523   0.491   5.037   3.302
  105WAT    LP1  524   0.515   4.934   3.389
  105WAT    LP2  525   0.588   4.940   3.301
  106WAT     OW  526   5.487   5.668   1.764
  106WAT    HW1  527   5.469   5.736   1.698
  106WAT    HW2  528   5.555   5.614   1.724
  106WAT    LP1  529   5.510   5.697   1.823
  106WAT    LP2  530   5.430   5.630   1.776
  107WAT     OW  531   3.058   3.917   5.136
  107WAT    HW1  532   3.116   3.923   5.060
  107WAT    HW2  533   3.117   3.917   5.211
  107WAT    LP1  534   3.014   3.972   5.138
  107WAT    LP2  535   3.020   3.858   5.134
  108WAT     OW  536   1.237   5.035   5.803
  108WAT    HW1  537   1.318   4.985   5.793
  108WAT    HW2  538   1.217   5.030   5.896
  108WAT    LP1  539   1.246   5.101   5.783
  108WAT    LP2  540   1.186   5.006   5.765
  109WAT     OW  541   1.564   0.349   2.222
  109WAT    HW1  542   1.489   0.289   2.215
  109WAT    HW2  543   1.619   0.310   2.291
  109WAT    LP1  544   1.599   0.352   2.162
  109WAT    LP2  545   1.543   0.413   2.241
  110WAT     OW  546   4.155   5.890   4.380
  110WAT    HW1  547   4.077   5.848   4.342
  110WAT    HW2  548   4.192   5.941   4.307
  110WAT    LP1  549   4.137   5.932   4.433
  110WAT    LP2  550   4.201   5.842   4.402
  111WAT     OW  551   0.044   4.336   5.694
  111WAT    HW1  552   0.028   4.245   5.719
  111WAT    HW2  553   0.108   4.367   5.759
  111WAT    LP1  554   0.071   4.340   5.630
  111WAT    LP2  555  -0.014   4.374   5.698
  112WAT     OW  556   2.761   5.268   3.569
  112WAT    HW1  557   2.681   5.216   3.574
  112WAT    HW2  558   2.764   5.299   3.478
  112WAT    LP1  559   2.758   5.323   3.613
  112WAT    LP2  560   2.817   5.229   3.584
  113WAT     OW  561   0.757   1.912   4.912
  113WAT    HW1  562   0.841   1.876   4.885
  113WAT    HW2  563   0.694   1.877   4.849
  113WAT    LP1  564   0.741   1.892   4.977
  113WAT    LP2  565   0.759   1.982   4.910
  114WAT     OW  566   5.289   1.256   6.487
  114WAT    HW1  567   5.300   1.161   6.495
  114WAT    HW2  568   5.378   1.290   6.474
  114WAT    LP1  569   5.249   1.271   6.431
  114WAT    LP2  570   5.260   1.283   6.544
  115WAT     OW  571   0.787   0.143   3.281
  115WAT    HW1  572   0.758   0.075   3.219
  115WAT    HW2  573   0.766   0.107   3.367
  115WAT    LP1  574   0.855   0.154   3.275
  115WAT    LP2  575   0.752   0.202   3.270
  116WAT     OW  576   0.288   3.585   6.236
  116WAT    HW1  577   0.241   3.558   6.156
  116WAT    HW2  578   0.228   3.563   6.307
  116WAT    LP1  579   0.348   3.549   6.242
  116WAT    LP2  580   0.302   3.653   6.235
  117WAT     OW  581   4.635   1.286   6.595
  117WAT    HW1  582   4.708   1.348   6.588
  117WAT    HW2  583   4.637   1.237   6.513
  117WAT    LP1  584   4.643   1.244   6.650
  117WAT    LP2  585   4.574   1.321   6.602
  118WAT     OW  586   5.465   3.458   5.363
  118WAT    HW1  587   5.403   3.444   5.434
  118WAT    HW2  588   5.449   3.548   5.333
  118WAT    LP1  589   5.531   3.452   5.385
  118WAT    LP2  590   5.454   3.413   5.311
  119WAT     OW  591   2.120   3.439   6.421
  119WAT    HW1  592   2.032   3.476   6.423
  119WAT    HW2  593   2.176   3.511   6.395
  119WAT    LP1  594   2.138   3.416   6.485
  119WAT    LP2  595   2.124   3.386   6.376
  120WAT     OW  596   2.720   2.333   5.950
  120WAT    HW1  597   2.700   2.391   6.024
  120WAT    HW2  598   2.812   2.309   5.963
  120WAT    LP1  599   2.679   2.276   5.952
  120WAT    LP2  600   2.711   2.366   5.889
  121WAT     OW  601   0.614   0.778   1.905
  121WAT    HW1  602   0.546   0.716   1.931
  121WAT    HW2  603   0.568   0.861   1.891
  121WAT    LP1  604   0.663   0.784   1.955
  121WAT    LP2  605   0.645   0.757   1.845
  122WAT     OW  606   4.411   3.828   3.797
  122WAT    HW1  607   4.359   3.786   3.729
  122WAT    HW2  608   4.406   3.768   3.871
  122WAT    LP1  609   4.477   3.837   3.776
  122WAT    LP2  610   4.384   3.891   3.814
  123WAT     OW  611   1.442   6.254   6.416
  123WAT    HW1  612   1.420   6.167   6.382
  123WAT    HW2  613   1.357   6.298   6.427
  123WAT    LP1  614   1.475   6.249   6.478
  123WAT    LP2  615   1.482   6.289   6.371
  124WAT     OW  616   0.883   1.846   6.570
  124WAT    HW1  617   0.930   1.918   6.528
  124WAT    HW2  618   0.795   1.850   6.533
  124WAT    LP1  619   0.914   1.785   6.555
  124WAT    LP2  620   0.882   1.855   6.640
  125WAT     OW  621   4.082   4.027   6.006
  125WAT    HW1  622   4.011   4.069   5.957
  125WAT    HW2  623   4.045   4.011   6.093
  125WAT    LP1  624   4.101   3.967   5.976
  125WAT    LP2  625   4.137   4.070   6.010
  126WAT     OW  626   6.031   4.478   1.708
  126WAT    HW1  627   6.095   4.407   1.695
  126WAT    HW2  628   5.992   4.459   1.794
  126WAT    LP1  629   6.063   4.540   1.709
  126WAT    LP2  630   5.983   4.477   1.658
  127WAT     OW  631   2.386   6.469   4.381
  127WAT    HW1  632   2.394   6.522   4.460
  127WAT    HW2  633   2.346   6.387   4.411
  127WAT    LP1  634   2.345   6.500   4.334
  127WAT    LP2  635   2.449   6.456   4.353
  128WAT     OW  636   5.012   3.175   3.222
  128WAT    HW1  637   5.011   3.131   3.137
  128WAT    HW2  638   5.037   3.265   3.201
  128WAT    LP1  639   4.949   3.174   3.252
  128WAT    LP2  640   5.060   3.146   3.264
  129WAT     OW  641   1.321   3.094   0.513
  129WAT    HW1  642   1.280   3.158   0.456
  129WAT    HW2  643   1.381   3.046   0.456
  129WAT    LP1  644   1.357   3.126   0.565
  129WAT    LP2  645   1.274   3.051   0.542
  130WAT     OW  646   5.933   2.794   1.177
  130WAT    HW1  647   5.913   2.725   1.114
  130WAT    HW2  648   5.903   2.759   1.261
  130WAT    LP1  649   6.002   2.806   1.179
  130WAT    LP2  650   5.899   2.853   1.161
  131WAT     OW  651   3.345   3.415   5.288
  131WAT    HW1  652   3.432   3.379   5.307
  131WAT    HW2  653   3.347   3.503   5.325
  131WAT    LP1  654   3.334   3.417   5.219
  131WAT    LP2  655   3.295   3.377   5.319
  132WAT     OW  656   6.052   3.835   6.447
  132WAT    HW1  657   6.110   3.773   6.402
  132WAT    HW2  658   5.975   3.840   6.391
  132WAT    LP1  659   6.035   3.811   6.511
  132WAT    LP2  660   6.082   3.898   6.453
  133WAT     OW  661   4.686   4.270   6.432
  133WAT    HW1  662   4.746   4.296   6.502
  133WAT    HW2  663   4.742   4.231   6.365
  133WAT    LP1  664   4.640   4.223   6.456
  133WAT    LP2  665   4.652   4.326   6.407
  134WAT     OW  666   1.734   4.188   5.636
  134WAT    HW1  667   1.819   4.231   5.645
  134WAT    HW2  668   1.725   4.171   5.542
  134WAT    LP1  669   1.733   4.128   5.672
  134WAT    LP2  670   1.683   4.230   5.659
  135WAT     OW  671   4.680   2.080   1.705
  135WAT    HW1  672   4.660   2.003   1.759
  135WAT    HW2  673   4.659   2.155   1.762
  135WAT    LP1  674   4.747   2.080   1.687
  135WAT    LP2  675   4.640   2.081   1.648
  136WAT     OW  676   4.707   4.034   0.734
  136WAT    HW1  677   4.760   4.041   0.814
  136WAT    HW2  678   4.703   3.939   0.717
  136WAT    LP1  679   4.642   4.059   0.745
  136WAT    LP2  680   4.737   4.067   0.681
  137WAT     OW  681   2.984   3.400   5.691
  137WAT    HW1  682   2.960   3.308   5.702
  137WAT    HW2  683   3.068   3.409   5.735
  137WAT    LP1  684   2.990   3.415   5.622
  137WAT    LP2  685   2.936   3.442   5.720
  138WAT     OW  686   0.360   0.363   2.421
  138WAT    HW1  687   0.395   0.298   2.481
  138WAT    HW2  688   0.339   0.315   2.341
  138WAT    LP1  689   0.302   0.393   2.448
  138WAT    LP2  690   0.407   0.413   2.408
  139WAT     OW  691   5.288   5.459   2.226
  139WAT    HW1  692   5.260   5.376   2.189
  139WAT    HW2  693   5.296   5.443   2.320
  139WAT    LP1  694   5.350   5.478   2.199
  139WAT    LP2  695   5.241   5.509   2.213
  140WAT     OW  696   0.508   1.002   3.702
  140WAT    HW1  697   0.506   0.911   3.732
  140WAT    HW2  698   0.602   1.021   3.693
  140WAT    LP1  699   0.475   1.009   3.641
  140WAT    LP2  700   0.479   1.044   3.750
  141WAT     OW  701   3.248   0.325   4.305
  141WAT    HW1  702   3.232   0.286   4.392
  141WAT    HW2  703   3.225   0.417   4.316
  141WAT    LP1  704   3.315   0.318   4.287
  141WAT    LP2  705   3.207   0.295   4.257
  142WAT     OW  706   0.448   5.791   3.979
  142WAT    HW1  707   0.357   5.792   4.009
  142WAT    HW2  708   0.482   5.706   4.009
  142WAT    LP1  709   0.451   5.795   3.909
  142WAT    LP2  710   0.485   5.843   4.008
  143WAT     OW  711   4.144   0.001   1.585
  143WAT    HW1  712   4.167   0.029   1.496
  143WAT    HW2  713   4.227   0.007   1.633
  143WAT    LP1  714   4.096   0.044   1.612
  143WAT    LP2  715   4.120  -0.064   1.585
  144WAT     OW  716   1.921   1.493   5.829
  144WAT    HW1  717   1.954   1.493   5.739
  144WAT    HW2  718   1.979   1.434   5.876
  144WAT    LP1  719   1.924   1.557   5.856
  144WAT    LP2  720   1.855   1.470   5.831
  145WAT     OW  721   3.351   6.247   4.308
  145WAT    HW1  722   3.259   6.247   4.280
  145WAT    HW2  723   3.378   6.339   4.302
  145WAT    LP1  724   3.356   6.224   4.374
  145WAT    LP2  725   3.390   6.207   4.266
  146WAT     OW  726   1.038   2.179   5.837
  146WAT    HW1  727   1.045   2.209   5.747
  146WAT    HW2  728   1.125   2.193   5.874
  146WAT    LP1  729   0.990   2.216   5.872
  146WAT    LP2  730   1.021   2.111   5.840
  147WAT     OW  731   6.671   2.186   3.675
  147WAT    HW1  732   6.629   2.192   3.761
  147WAT    HW2  733   6.711   2.272   3.662
  147WAT    LP1  734   6.720   2.136   3.674
  147WAT    LP2  735   6.624   2.174   3.625
  148WAT     OW  736   2.341   1.137   3.170
  148WAT    HW1  737   2.359   1.063   3.227
  148WAT    HW2  738   2.280   1.104   3.105
  148WAT    LP1  739   2.311   1.190   3.207
  148WAT    LP2  740   2.400   1.160   3.140
  149WAT     OW  741   6.405   5.108   4.467
  149WAT    HW1  742   6.385   5.022   4.429
  149WAT    HW2  743   6.500   5.117   4.456
  149WAT    LP1  744   6.371   5.159   4.433
  149WAT    LP2  745   6.388   5.109   4.535
  150WAT     OW  746   5.000   6.463   3.423
  150WAT    HW1  747   4.998   6.545   3.372
  150WAT    HW2  748   5.083   6.423   3.399
  150WAT    LP1  749   4.998   6.477   3.491
  150WAT    LP2  750   4.946   6.422   3.405
  151WAT     OW  751   6.574   4.651   2.458
  151WAT    HW1  752   6.540   4.589   2.394
  151WAT    HW2  753   6.510   4.649   2.530
  151WAT    LP1  754   6.637   4.631   2.481
  151WAT    LP2  755   6.578   4.716   2.431
  152WAT     OW  756   1.858   3.677   3.428
  152WAT    HW1  757   1.863   3.664   3.333
  152WAT    HW2  758   1.817   3.596   3.460
  152WAT    LP1  759   1.922   3.685   3.455
  152WAT    LP2  760   1.819   3.732   3.444
  153WAT     OW  761   2.759   3.053   0.200
  153WAT    HW1  762   2.789   2.979   0.254
  153WAT    HW2  763   2.791   3.032   0.112
  153WAT    LP1  764   2.690   3.058   0.201
  153WAT    LP2  765   2.787   3.113   0.223
  154WAT     OW  766   4.681   3.936   1.662
  154WAT    HW1  767   4.712   3.905   1.747
  154WAT    HW2  768   4.759   3.968   1.617
  154WAT    LP1  769   4.652   3.883   1.626
  154WAT    LP2  770   4.634   3.987   1.669
  155WAT     OW  771   2.889   6.284   5.359
  155WAT    HW1  772   2.925   6.233   5.287
  155WAT    HW2  773   2.956   6.350   5.379
  155WAT    LP1  774   2.829   6.315   5.340
  155WAT    LP2  775   2.877   6.244   5.415
  156WAT     OW  776   0.776   2.493   2.188
  156WAT    HW1  777   0.730   2.483   2.271
  156WAT    HW2  778   0.707   2.504   2.122
  156WAT    LP1  779   0.818   2.549   2.189
  156WAT    LP2  780   0.814   2.436   2.174
  157WAT     OW  781   4.134   3.100   2.769
  157WAT    HW1  782   4.042   3.123   2.761
  157WAT    HW2  783   4.136   3.004   2.762
  157WAT    LP1  784   4.171   3.129   2.717
  157WAT    LP2  785   4.160   3.121   2.830
  158WAT     OW  786   3.341   3.291   0.923
  158WAT    HW1  787   3.314   3.314   1.011
  158WAT    HW2  788   3.277   3.333   0.866
  158WAT    LP1  789   3.405   3.315   0.909
  158WAT    LP2  790   3.341   3.221   0.914
  159WAT     OW  791   4.120   1.866   1.292
  159WAT    HW1  792   4.085   1.885   1.205
  159WAT    HW2  793   4.201   1.819   1.276
  159WAT    LP1  794   4.132   1.925   1.327
  159WAT    LP2  795   4.075   1.826   1.329
  160WAT     OW  796   1.414   2.393   3.594
  160WAT    HW1  797   1.489   2.434   3.637
  160WAT    HW2  798   1.352   2.376   3.666
  160WAT    LP1  799   1.385   2.436   3.547
  160WAT    LP2  800   1.432   2.334   3.563
  161WAT     OW  801   6.643   0.343   3.008
  161WAT    HW1  802   6.631   0.299   2.924
  161WAT    HW2  803   6.641   0.437   2.987
  161WAT    LP1  804   6.592   0.327   3.052
  161WAT    LP2  805   6.705   0.326   3.036
  162WAT     OW  806   5.119   1.484   4.493
  162WAT    HW1  807   5.106   1.574   4.461
  162WAT    HW2  808   5.200   1.488   4.544
  162WAT    LP1  809   5.065   1.465   4.533
  162WAT    LP2  810   5.126   1.440   4.439
  163WAT     OW  811   5.363   4.721   2.231
  163WAT    HW1  812   5.444   4.728   2.180
  163WAT    HW2  813   5.358   4.628   2.255
  163WAT    LP1  814   5.366   4.761   2.288
  163WAT    LP2  815   5.308   4.739   2.192
  164WAT     OW  816   6.502   1.101   3.004
  164WAT    HW1  817   6.465   1.136   2.923
  164WAT    HW2  818   6.429   1.054   3.044
  164WAT    LP1  819   6.555   1.057   2.990
  164WAT    LP2  820   6.524   1.153   3.045
  165WAT     OW  821   3.131   3.888   3.698
  165WAT    HW1  822   3.127   3.893   3.794
  165WAT    HW2  823   3.213   3.843   3.680
  165WAT    LP1  824   3.077   3.851   3.673
  165WAT    LP2  825   3.130   3.952   3.670
  166WAT     OW  826   3.105   0.614   1.656
  166WAT    HW1  827   3.012   0.620   1.675
  166WAT    HW2  828   3.145   0.589   1.739
  166WAT    LP1  829   3.117   0.564   1.607
  166WAT    LP2  830   3.130   0.675   1.633
  167WAT     OW  831   0.299   2.480   1.146
  167WAT    HW1  832   0.207   2.458   1.131
  167WAT    HW2  833   0.299   2.574   1.162
  167WAT    LP1  834   0.324   2.445   1.202
  167WAT    LP2  835   0.337   2.464   1.090
  168WAT     OW  836   5.956   1.544   4.781
  168WAT    HW1  837   5.934   1.605   4.710
  168WAT    HW2  838   5.980   1.463   4.736
  168WAT    LP1  839   6.009   1.568   4.819
  168WAT    LP2  840   5.900   1.534   4.822
  169WAT     OW  841   1.398   5.099   2.535
  169WAT    HW1  842   1.420   5.168   2.598
  169WAT    HW2  843   1.433   5.019   2.574
  169WAT    LP1  844   1.329   5.094   2.527
  169WAT    LP2  845   1.428   5.112   2.473
  170WAT     OW  846   0.495   0.858   4.366
  170WAT    HW1  847   0.523   0.901   4.285
  170WAT    HW2  848   0.562   0.791   4.382
  170WAT    LP1  849   0.493   0.904   4.419
  170WAT    LP2  850   0.433   0.828   4.358
  171WAT     OW  851   2.628   2.233   1.052
  171WAT    HW1  852   2.630   2.183   0.970
  171WAT    HW2  853   2.537   2.226   1.082
  171WAT    LP1  854   2.671   2.205   1.099
  171WAT    LP2  855   2.645   2.300   1.041
  172WAT     OW  856   4.789   0.358   0.782
  172WAT    HW1  857   4.855   0.300   0.821
  172WAT    HW2  858   4.796   0.439   0.832
  172WAT    LP1  859   4.803   0.369   0.714
  172WAT    LP2  860   4.725   0.331   0.788
  173WAT     OW  861   0.828   5.255   6.328
  173WAT    HW1  862   0.813   5.266   6.234
  173WAT    HW2  863   0.793   5.335   6.367
  173WAT    LP1  864   0.795   5.199   6.352
  173WAT    LP2  865   0.897   5.250   6.341
  174WAT     OW  866   2.849   3.901   0.604
  174WAT    HW1  867   2.825   3.981   0.558
  174WAT    HW2  868   2.936   3.918   0.638
  174WAT    LP1  869   2.804   3.888   0.656
  174WAT    LP2  870   2.849   3.847   0.560
  175WAT     OW  871   2.580   2.388   2.879
  175WAT    HW1  872   2.542   2.378   2.791
  175WAT    HW2  873   2.600   2.299   2.907
  175WAT    LP1  874   2.638   2.427   2.876
  175WAT    LP2  875   2.533   2.418   2.922
  176WAT     OW  876   1.146   2.340   1.377
  176WAT    HW1  877   1.218   2.294   1.421
  176WAT    HW2  878   1.132   2.419   1.430
  176WAT    LP1  879   1.164   2.358   1.312
  176WAT    LP2  880   1.089   2.301   1.376
  177WAT     OW  881   1.343   1.631   5.103
  177WAT    HW1  882   1.317   1.670   5.187
  177WAT    HW2  883   1.404   1.562   5.127
  177WAT    LP1  884   1.287   1.606   5.070
  177WAT    LP2  885   1.374   1.679   5.063
  178WAT     OW  886   2.346   0.996   3.774
  178WAT    HW1  887   2.362   1.025   3.685
  178WAT    HW2  888   2.381   0.906   3.777
  178WAT    LP1  889   2.380   1.037   3.820
  178WAT    LP2  890   2.278   0.996   3.789
  179WAT     OW  891   0.791   4.029   4.951
  179WAT    HW1  892   0.787   4.124   4.939
  179WAT    HW2  893   0.714   3.996   4.906
  179WAT    LP1  894   0.850   4.004   4.922
  179WAT    LP2  895   0.790   4.013   5.019
  180WAT     OW  896   4.850   2.190   4.076
  180WAT    HW1  897   4.906   2.188   4.153
  180WAT    HW2  898   4.905   2.225   4.006
  180WAT    LP1  899   4.828   2.125   4.060
  180WAT    LP2  900   4.794   2.231   4.087
  181WAT     OW  901   1.558   2.612   1.433
  181WAT    HW1  902   1.647   2.636   1.407
  181WAT    HW2  903   1.528   2.685   1.486
  181WAT    LP1  904   1.518   2.604   1.376
  181WAT    LP2  905   1.559   2.552   1.470
  182WAT     OW  906   1.086   5.182   5.386
  182WAT    HW1  907   1.049   5.195   5.298
  182WAT    HW2  908   1.009   5.172   5.442
  182WAT    LP1  909   1.125   5.124   5.387
  182WAT    LP2  910   1.124   5.237   5.405
  183WAT     OW  911   2.910   2.619   3.873
  183WAT    HW1  912   2.854   2.682   3.828
  183WAT    HW2  913   2.879   2.619   3.963
  183WAT    LP1  914   2.903   2.555   3.844
  183WAT    LP2  915   2.977   2.639   3.869
  184WAT     OW  916   2.577   0.950   4.657
  184WAT    HW1  917   2.668   0.948   4.685
  184WAT    HW2  918   2.543   0.863   4.680
  184WAT    LP1  919   2.541   1.000   4.691
  184WAT    LP2  920   2.572   0.961   4.588
  185WAT     OW  921   6.701   2.648   4.759
  185WAT    HW1  922   6.699   2.600   4.842
  185WAT    HW2  923   6.669   2.585   4.694
  185WAT    LP1  924   6.660   2.704   4.762
  185WAT    LP2  925   6.767   2.668   4.744
  186WAT     OW  926   1.115   2.384   3.185
  186WAT    HW1  927   1.170   2.440   3.240
  186WAT    HW2  928   1.149   2.397   3.096
  186WAT    LP1  929   1.121   2.317   3.204
  186WAT    LP2  930   1.048   2.403   3.189
  187WAT     OW  931   0.609   6.034   1.240
  187WAT    HW1  932   0.536   6.091   1.264
  187WAT    HW2  933   0.596   6.016   1.147
  187WAT    LP1  934   0.671   6.066   1.250
  187WAT    LP2  935   0.608   5.975   1.277
  188WAT     OW  936   2.756   3.012   2.783
  188WAT    HW1  937   2.693   2.978   2.846
  188WAT    HW2  938   2.703   3.048   2.712
  188WAT    LP1  939   2.796   3.063   2.812
  188WAT    LP2  940   2.798   2.961   2.759
  189WAT     OW  941   0.756   5.670   2.811
  189WAT    HW1  942   0.788   5.608   2.877
  189WAT    HW2  943   0.691   5.723   2.858
  189WAT    LP1  944   0.808   5.710   2.787
  189WAT    LP2  945   0.726   5.636   2.758
  190WAT     OW  946   5.836   0.278   1.225
  190WAT    HW1  947   5.913   0.223   1.237
  190WAT    HW2  948   5.867   0.352   1.172
  190WAT    LP1  949   5.785   0.244   1.192
  190WAT    LP2  950   5.812   0.301   1.287
  191WAT     OW  951   0.672   6.544   1.283
  191WAT    HW1  952   0.630   6.490   1.350
  191WAT    HW2  953   0.737   6.487   1.244
  191WAT    LP1  954   0.625   6.565   1.235
  191WAT    LP2  955   0.702   6.600   1.312
  192WAT     OW  956   4.128   0.857   3.783
  192WAT    HW1  957   4.174   0.849   3.866
  192WAT    HW2  958   4.188   0.820   3.718
  192WAT    LP1  959   4.068   0.820   3.784
  192WAT    LP2  960   4.114   0.924   3.769
  193WAT     OW  961   1.302   1.429   0.700
  193WAT    HW1  962   1.341   1.346   0.726
  193WAT    HW2  963   1.250   1.456   0.775
  193WAT    LP1  964   1.351   1.477   0.685
  193WAT    LP2  965   1.261   1.420   0.643
  194WAT     OW  966   3.115   2.460   1.248
  194WAT    HW1  967   3.158   2.505   1.175
  194WAT    HW2  968   3.094   2.373   1.214
  194WAT    LP1  969   3.159   2.455   1.303
  194WAT    LP2  970   3.057   2.494   1.267
  195WAT     OW  971   4.836   6.426   3.097
  195WAT    HW1  972   4.884   6.352   3.133
  195WAT    HW2  973   4.903   6.485   3.065
  195WAT    LP1  974   4.794   6.406   3.045
  195WAT    LP2  975   4.798   6.457   3.147
  196WAT     OW  976   2.414   4.941   1.612
  196WAT    HW1  977   2.419   4.915   1.520
  196WAT    HW2  978   2.493   4.993   1.627
  196WAT    LP1  979   2.357   4.979   1.625
  196WAT    LP2  980   2.414   4.884   1.654
  197WAT     OW  981   4.638   0.515   4.975
  197WAT    HW1  982   4.678   0.525   5.061
  197WAT    HW2  983   4.683   0.439   4.937
  197WAT    LP1  984   4.570   0.503   4.981
  197WAT    LP2  985   4.649   0.572   4.936
  198WAT     OW  986   1.947   6.628   6.136
  198WAT    HW1  987   1.983   6.601   6.052
  198WAT    HW2  988   1.998   6.705   6.160
  198WAT    LP1  989   1.879   6.644   6.130
  198WAT    LP2  990   1.954   6.577   6.184
  199WAT     OW  991   0.685   3.944   5.808
  199WAT    HW1  992   0.620   3.991   5.859
  199WAT    HW2  993   0.637   3.870   5.770
  199WAT    LP1  994   0.711   3.985   5.757
  199WAT    LP2  995   0.737   3.921   5.849
  200WAT     OW  996   1.796   1.702   5.046
  200WAT    HW1  997   1.749   1.737   4.970
  200WAT    HW2  998   1.759   1.749   5.121
  200WAT    LP1  999   1.785   1.633   5.052
  200WAT    LP2 1000   1.864   1.715   5.040
  201WAT     OW 1001   4.095   3.073   6.076
  201WAT    HW1 1002   4.009   3.059   6.037
  201WAT    HW2 1003   4.157   3.045   6.008
  201WAT    LP1 1004   4.104   3.140   6.092
  201WAT    LP2 1005   4.102   3.034   6.133
  202WAT     OW 1006   5.699   1.284   3.644
  202WAT    HW1 1007   5.758   1.290   3.719
  202WAT    HW2 1008   5.648   1.205   3.659
  202WAT    LP1 1009   5.658   1.341   3.641
  202WAT    LP2 1010   5.736   1.279   3.584
  203WAT     OW 1011   5.208   0.179   3.328
  203WAT    HW1 1012   5.299   0.157   3.351
  203WAT    HW2 1013   5.175   0.226   3.405
  203WAT    LP1 1014   5.206   0.220   3.271
  203WAT    LP2 1015   5.171   0.121   3.317
  204WAT     OW 1016   0.256   1.713   0.117
  204WAT    HW1 1017   0.162   1.697   0.126
  204WAT    HW2 1018   0.263   1.808   0.105
  204WAT    LP1 1019   0.290   1.693   0.175
  204WAT    LP2 1020   0.282   1.679   0.062
  205WAT     OW 1021   5.310   6.355   3.762
  205WAT    HW1 1022   5.397   6.326   3.736
  205WAT    HW2 1023   5.250   6.308   3.704
  205WAT    LP1 1024   5.298   6.339   3.829
  205WAT    LP2 1025   5.303   6.424   3.754
  206WAT     OW 1026   4.094   4.207   1.518
  206WAT    HW1 1027   4.187   4.219   1.500
  206WAT    HW2 1028   4.088   4.121   1.558
  206WAT    LP1 1029   4.071   4.256   1.562
  206WAT    LP2 1030   4.057   4.209   1.459
  207WAT     OW 1031   1.800   4.634   4.799
  207WAT    HW1 1032   1.705   4.644   4.799
  207WAT    HW2 1033   1.814   4.539   4.796
  207WAT    LP1 1034   1.828   4.664   4.742
  207WAT    LP2 1035   1.828   4.661   4.857
  208WAT     OW 1036   5.077   4.057   4.422
  208WAT    HW1 1037   5.007   4.116   4.449
  208WAT    HW2 1038   5.032   3.985   4.378
  208WAT    LP1 1039   5.121   4.089   4.378
  208WAT    LP2 1040   5.113   4.033   4.478
  209WAT     OW 1041   2.418   3.635   2.626
  209WAT    HW1 1042   2.341   3.597   2.583
  209WAT    HW2 1043   2.464   3.681   2.556
  209WAT    LP1 1044   2.399   3.680   2.676
  209WAT    LP2 1045   2.458   3.585   2.653
  210WAT     OW 1046   0.052   2.359   3.407
  210WAT    HW1 1047   0.043   2.390   3.497
  210WAT    HW2 1048   0.123   2.411   3.370
  210WAT    LP1 1049   0.069   2.291   3.406
  210WAT    LP2 1050  -0.007   2.369   3.371
  211WAT     OW 1051   5.070   5.378   1.240
  211WAT    HW1 1052   5.076   5.361   1.146
  211WAT    HW2 1053   5.160   5.374   1.271
  211WAT    LP1 1054   5.042   5.441   1.252
  211WAT    LP2 1055   5.031   5.329   1.271
  212WAT     OW 1056   3.613   4.293   3.985
  212WAT    HW1 1057   3.534   4.287   4.039
  212WAT    HW2 1058   3.673   4.349   4.035
  212WAT    LP1 1059   3.641   4.230   3.975
  212WAT    LP2 1060   3.599   4.323   3.923
  213WAT     OW 1061   6.042   1.202   1.754
  213WAT    HW1 1062   5.993   1.271   1.708
  213WAT    HW2 1063   6.132   1.236   1.758
  213WAT    LP1 1064   6.017   1.193   1.818
  213WAT    LP2 1065   6.040   1.142   1.719
  214WAT     OW 1066   4.910   1.072   6.419
  214WAT    HW1 1067   4.954   1.142   6.372
  214WAT    HW2 1068   4.818   1.082   6.397
  214WAT    LP1 1069   4.934   1.009   6.398
  214WAT    LP2 1070   4.921   1.079   6.488
  215WAT     OW 1071   1.066   6.420   2.029
  215WAT    HW1 1072   1.041   6.425   2.121
  215WAT    HW2 1073   1.004   6.478   1.984
  215WAT    LP1 1074   1.132   6.442   2.019
  215WAT    LP2 1075   1.060   6.354   2.005
  216WAT     OW 1076   3.507   4.243   5.874
  216WAT    HW1 1077   3.595   4.274   5.897
  216WAT    HW2 1078   3.493   4.167   5.930
  216WAT    LP1 1079   3.459   4.293   5.887
  216WAT    LP2 1080   3.504   4.225   5.806
  217WAT     OW 1081   5.158   5.887   6.205
  217WAT    HW1 1082   5.141   5.799   6.238
  217WAT    HW2 1083   5.071   5.927   6.199
  217WAT    LP1 1084   5.198   5.924   6.249
  217WAT    LP2 1085   5.188   5.885   6.142
  218WAT     OW 1086   1.833   5.614   2.496
  218WAT    HW1 1087   1.777   5.577   2.564
  218WAT    HW2 1088   1.916   5.567   2.506
  218WAT    LP1 1089   1.806   5.603   2.432
  218WAT    LP2 1090   1.842   5.683   2.505
  219WAT     OW 1091   3.977   0.746   4.240
  219WAT    HW1 1092   3.932   0.763   4.157
  219WAT    HW2 1093   4.047   0.685   4.217
  219WAT    LP1 1094   4.002   0.805   4.267
  219WAT    LP2 1095   3.933   0.717   4.286
  220WAT     OW 1096   2.652   0.055   6.152
  220WAT    HW1 1097   2.660  -0.033   6.188
  220WAT    HW2 1098   2.709   0.108   6.207
  220WAT    LP1 1099   2.674   0.056   6.085
  220WAT    LP2 1100   2.586   0.077   6.155
  221WAT     OW 1101   0.828   2.421   4.999
  221WAT    HW1 1102   0.798   2.330   5.000
  221WAT    HW2 1103   0.754   2.470   4.963
  221WAT    LP1 1104   0.843   2.443   5.064
  221WAT    LP2 1105   0.885   2.429   4.959
  222WAT     OW 1106   4.683   3.047   5.686
  222WAT    HW1 1107   4.753   2.997   5.645
  222WAT    HW2 1108   4.706   3.048   5.779
  222WAT    LP1 1109   4.681   3.112   5.661
  222WAT    LP2 1110   4.621   3.016   5.676
  223WAT     OW 1111   6.013   5.754   1.382
  223WAT    HW1 1112   5.924   5.722   1.398
  223WAT    HW2 1113   6.003   5.819   1.313
  223WAT    LP1 1114   6.040   5.782   1.440
  223WAT    LP2 1115   6.054   5.701   1.361
  224WAT     OW 1116   4.465   4.901   3.296
  224WAT    HW1 1117   4.531   4.912   3.364
  224WAT    HW2 1118   4.512   4.862   3.223
  224WAT    LP1 1119   4.414   4.858   3.319
  224WAT    LP2 1120   4.437   4.962   3.278
  225WAT     OW 1121   6.110   2.100   1.273
  225WAT    HW1 1122   6.140   2.159   1.204
  225WAT    HW2 1123   6.134   2.013   1.242
  225WAT    LP1 1124   6.142   2.115   1.333
  225WAT    LP2 1125   6.041   2.106   1.282
  226WAT     OW 1126   6.742   4.456   0.207
  226WAT    HW1 1127   6.735   4.394   0.280
  226WAT    HW2 1128   6.692   4.533   0.235
  226WAT    LP1 1129   6.809   4.473   0.196
  226WAT    LP2 1130   6.714   4.429   0.149
  227WAT     OW 1131   5.294   0.157   0.207
  227WAT    HW1 1132   5.228   0.204   0.258
  227WAT    HW2 1133   5.348   0.226   0.169
  227WAT    LP1 1134   5.333   0.115   0.248
  227WAT    LP2 1135   5.264   0.119   0.157
  228WAT     OW 1136   0.544   4.592   2.088
  228WAT    HW1 1137   0.498   4.643   2.154
  228WAT    HW2 1138   0.630   4.575   2.126
  228WAT    LP1 1139   0.511   4.531   2.076
  228WAT    LP2 1140   0.550   4.628   2.028
  229WAT     OW 1141   3.392   4.536   5.161
  229WAT    HW1 1142   3.387   4.465   5.098
  229WAT    HW2 1143   3.478   4.527   5.201
  229WAT    LP1 1144   3.386   4.598   5.129
  229WAT    LP2 1145   3.341   4.530   5.210
  230WAT     OW 1146   4.956   4.144   1.878
  230WAT    HW1 1147   5.034   4.188   1.911
  230WAT    HW2 1148   4.925   4.199   1.806
  230WAT    LP1 1149   4.971   4.079   1.855
  230WAT    LP2 1150   4.907   4.139   1.928
  231WAT     OW 1151   0.748   3.448   3.608
  231WAT    HW1 1152   0.775   3.487   3.525
  231WAT    HW2 1153   0.680   3.385   3.584
  231WAT    LP1 1154   0.802   3.415   3.638
  231WAT    LP2 1155   0.723   3.496   3.651
  232WAT     OW 1156   6.367   3.046   1.322
  232WAT    HW1 1157   6.304   2.984   1.286
  232WAT    HW2 1158   6.449   3.025   1.278
  232WAT    LP1 1159   6.348   3.112   1.309
  232WAT    LP2 1160   6.373   3.037   1.392
  233WAT     OW 1161   4.886   5.757   6.621
  233WAT    HW1 1162   4.843   5.710   6.692
  233WAT    HW2 1163   4.862   5.709   6.542
  233WAT    LP1 1164   4.863   5.823   6.618
  233WAT    LP2 1165   4.956   5.758   6.630
  234WAT     OW 1166   0.789   5.940   6.121
  234WAT    HW1 1167   0.839   5.898   6.191
  234WAT    HW2 1168   0.700   5.906   6.131
  234WAT    LP1 1169   0.790   6.010   6.128
  234WAT    LP2 1170   0.815   5.923   6.058
  235WAT     OW 1171   6.434   2.436   1.104
  235WAT    HW1 1172   6.507   2.390   1.146
  235WAT    HW2 1173   6.475   2.505   1.052
  235WAT    LP1 1174   6.397   2.393   1.064
  235WAT    LP2 1175   6.392   2.464   1.153
  236WAT     OW 1176   0.554   3.962   6.198
  236WAT    HW1 1177   0.619   3.893   6.186
  236WAT    HW2 1178   0.534   3.993   6.110
  236WAT    LP1 1179   0.496   3.937   6.229
  236WAT    LP2 1180   0.580   4.014   6.238
  237WAT     OW 1181   0.971   5.629   5.864
  237WAT    HW1 1182   0.995   5.600   5.953
  237WAT    HW2 1183   1.054   5.631   5.816
  237WAT    LP1 1184   0.926   5.584   5.835
  237WAT    LP2 1185   0.942   5.693   5.866
  238WAT     OW 1186   3.208   1.056   1.546
  238WAT    HW1 1187   3.195   1.047   1.641
  238WAT    HW2 1188   3.184   0.970   1.511
  238WAT    LP1 1189   3.167   1.106   1.520
  238WAT    LP2 1190   3.275   1.070   1.532
  239WAT     OW 1191   0.187   2.476   1.670
  239WAT    HW1 1192   0.153   2.417   1.603
  239WAT    HW2 1193   0.160   2.563   1.643
  239WAT    LP1 1194   0.160   2.460   1.733
  239WAT    LP2 1195   0.257   2.471   1.674
  240WAT     OW 1196   3.384   0.715   1.020
  240WAT    HW1 1197   3.473   0.744   0.998
  240WAT    HW2 1198   3.330   0.793   1.006
  240WAT    LP1 1199   3.364   0.663   0.978
  240WAT    LP2 1200   3.381   0.694   1.087
  241WAT     OW 1201   2.505   3.040   1.113
  241WAT    HW1 1202   2.515   3.123   1.160
  241WAT    HW2 1203   2.583   3.034   1.058
  241WAT    LP1 1204   2.502   2.987   1.158
  241WAT    LP2 1205   2.447   3.041   1.074
  242WAT     OW 1206   2.413   1.386   0.831
  242WAT    HW1 1207   2.358   1.378   0.753
  242WAT    HW2 1208   2.387   1.313   0.887
  242WAT    LP1 1209   2.481   1.380   0.814
  242WAT    LP2 1210   2.403   1.447   0.863
  243WAT     OW 1211   4.706   3.938   4.920
  243WAT    HW1 1212   4.680   4.015   4.971
  243WAT    HW2 1213   4.801   3.939   4.923
  243WAT    LP1 1214   4.681   3.880   4.950
  243WAT    LP2 1215   4.682   3.942   4.855
  244WAT     OW 1216   2.106   1.038   1.068
  244WAT    HW1 1217   2.074   0.951   1.042
  244WAT    HW2 1218   2.116   1.032   1.163
  244WAT    LP1 1219   2.167   1.052   1.037
  244WAT    LP2 1220   2.059   1.087   1.051
  245WAT     OW 1221   5.552   2.804   0.005
  245WAT    HW1 1222   5.560   2.891   0.045
  245WAT    HW2 1223   5.620   2.752   0.048
  245WAT    LP1 1224   5.488   2.777   0.018
  245WAT    LP2 1225   5.562   2.807  -0.063
  246WAT     OW 1226   5.952   0.843   4.084
  246WAT    HW1 1227   5.902   0.921   4.059
  246WAT    HW2 1228   5.986   0.863   4.172
  246WAT    LP1 1229   5.911   0.786   4.086
  246WAT    LP2 1230   6.005   0.832   4.040
  247WAT     OW 1231   4.545   3.572   2.483
  247WAT    HW1 1232   4.570   3.480   2.490
  247WAT    HW2 1233   4.625   3.620   2.505
  247WAT    LP1 1234   4.524   3.587   2.418
  247WAT    LP2 1235   4.494   3.588   2.528
  248WAT     OW 1236   4.836   5.360   5.169
  248WAT    HW1 1237   4.910   5.304   5.192
  248WAT    HW2 1238   4.877   5.441   5.138
  248WAT    LP1 1239   4.797   5.331   5.119
  248WAT    LP2 1240   4.797   5.373   5.226
  249WAT     OW 1241   1.827   0.243   0.368
  249WAT    HW1 1242   1.746   0.275   0.329
  249WAT    HW2 1243   1.855   0.171   0.311
  249WAT    LP1 1244   1.876   0.293   0.369
  249WAT    LP2 1245   1.816   0.220   0.433
  250WAT     OW 1246   2.074   5.042   2.201
  250WAT    HW1 1247   2.019   4.974   2.164
  250WAT    HW2 1248   2.043   5.123   2.160
  250WAT    LP1 1249   2.066   5.046   2.271
  250WAT    LP2 1250   2.142   5.031   2.186
  251WAT     OW 1251   0.622   3.811   4.384
  251WAT    HW1 1252   0.697   3.833   4.438
  251WAT    HW2 1253   0.659   3.771   4.306
  251WAT    LP1 1254   0.580   3.766   4.417
  251WAT    LP2 1255   0.585   3.869   4.367
  252WAT     OW 1256   0.937   1.136   5.808
  252WAT    HW1 1257   0.866   1.188   5.769
  252WAT    HW2 1258   1.010   1.198   5.817
  252WAT    LP1 1259   0.918   1.111   5.870
  252WAT    LP2 1260   0.955   1.083   5.766
  253WAT     OW 1261   1.123   1.254   3.772
  253WAT    HW1 1262   1.088   1.332   3.815
  253WAT    HW2 1263   1.191   1.287   3.714
  253WAT    LP1 1264   1.149   1.210   3.820
  253WAT    LP2 1265   1.073   1.221   3.736
  254WAT     OW 1266   0.445   1.214   3.108
  254WAT    HW1 1267   0.538   1.196   3.113
  254WAT    HW2 1268   0.406   1.131   3.080
  254WAT    LP1 1269   0.419   1.233   3.171
  254WAT    LP2 1270   0.432   1.265   3.061
  255WAT     OW 1271   1.746   0.870   1.143
  255WAT    HW1 1272   1.773   0.933   1.209
  255WAT    HW2 1273   1.828   0.831   1.111
  255WAT    LP1 1274   1.705   0.821   1.170
  255WAT    LP2 1275   1.713   0.902   1.090
  256WAT     OW 1276   0.724   0.434   1.225
  256WAT    HW1 1277   0.802   0.477   1.261
  256WAT    HW2 1278   0.697   0.373   1.293
  256WAT    LP1 1279   0.673   0.480   1.212
  256WAT    LP2 1280   0.740   0.399   1.166
  257WAT     OW 1281   1.554   1.563   2.718
  257WAT    HW1 1282   1.552   1.468   2.705
  257WAT    HW2 1283   1.465   1.585   2.745
  257WAT    LP1 1284   1.601   1.580   2.767
  257WAT    LP2 1285   1.571   1.595   2.658
  258WAT     OW 1286   0.328   3.508   0.462
  258WAT    HW1 1287   0.280   3.513   0.545
  258WAT    HW2 1288   0.297   3.582   0.411
  258WAT    LP1 1289   0.397   3.513   0.474
  258WAT    LP2 1290   0.315   3.447   0.429
  259WAT     OW 1291   6.306   1.791   4.832
  259WAT    HW1 1292   6.335   1.711   4.788
  259WAT    HW2 1293   6.297   1.764   4.924
  259WAT    LP1 1294   6.353   1.842   4.826
  259WAT    LP2 1295   6.245   1.812   4.807
  260WAT     OW 1296   3.971   1.599   2.967
  260WAT    HW1 1297   4.014   1.675   2.929
  260WAT    HW2 1298   3.899   1.636   3.019
  260WAT    LP1 1299   3.946   1.557   2.917
  260WAT    LP2 1300   4.015   1.563   3.008
  261WAT     OW 1301   4.053   5.610   6.598
  261WAT    HW1 1302   4.066   5.702   6.573
  261WAT    HW2 1303   4.053   5.610   6.693
  261WAT    LP1 1304   3.991   5.587   6.573
  261WAT    LP2 1305   4.104   5.570   6.573
  262WAT     OW 1306   0.186   5.490   4.618
  262WAT    HW1 1307   0.101   5.461   4.586
  262WAT    HW2 1308   0.198   5.577   4.580
  262WAT    LP1 1309   0.186   5.493   4.688
  262WAT    LP2 1310   0.237   5.446   4.597
  263WAT     OW 1311   0.975   4.157   1.986
  263WAT    HW1 1312   0.914   4.113   2.046
  263WAT    HW2 1313   0.947   4.248   1.987
  263WAT    LP1 1314   1.041   4.151   2.009
  263WAT    LP2 1315   0.970   4.130   1.922
  264WAT     OW 1316   5.323   1.785   6.475
  264WAT    HW1 1317   5.309   1.872   6.437
  264WAT    HW2 1318   5.339   1.728   6.401
  264WAT    LP1 1319   5.379   1.786   6.518
  264WAT    LP2 1320   5.267   1.765   6.511
  265WAT     OW 1321   4.635   0.547   5.918
  265WAT    HW1 1322   4.657   0.621   5.973
  265WAT    HW2 1323   4.620   0.475   5.979
  265WAT    LP1 1324   4.577   0.560   5.881
  265WAT    LP2 1325   4.687   0.532   5.874
  266WAT     OW 1326   4.305   3.262   2.633
  266WAT    HW1 1327   4.239   3.209   2.679
  266WAT    HW2 1328   4.291   3.242   2.541
  266WAT    LP1 1329   4.295   3.330   2.645
  266WAT    LP2 1330   4.369   3.244   2.653
  267WAT     OW 1331   0.776   4.152   5.378
  267WAT    HW1 1332   0.683   4.129   5.370
  267WAT    HW2 1333   0.801   4.120   5.465
  267WAT    LP1 1334   0.814   4.121   5.328
  267WAT    LP2 1335   0.784   4.222   5.374
  268WAT     OW 1336   0.962   4.787   5.490
  268WAT    HW1 1337   0.968   4.855   5.558
  268WAT    HW2 1338   0.993   4.707   5.534
  268WAT    LP1 1339   0.896   4.780   5.468
  268WAT    LP2 1340   1.004   4.803   5.436
  269WAT     OW 1341   2.673   6.364   4.981
  269WAT    HW1 1342   2.665   6.369   5.076
  269WAT    HW2 1343   2.756   6.409   4.963
  269WAT    LP1 1344   2.675   6.298   4.959
  269WAT    LP2 1345   2.620   6.398   4.950
  270WAT     OW 1346   2.110   5.164   6.381
  270WAT    HW1 1347   2.136   5.186   6.291
  270WAT    HW2 1348   2.082   5.246   6.419
  270WAT    LP1 1349   2.058   5.117   6.380
  270WAT    LP2 1350   2.164   5.137   6.416
  271WAT     OW 1351   3.870   3.410   6.240
  271WAT    HW1 1352   3.874   3.475   6.310
  271WAT    HW2 1353   3.817   3.339   6.277
  271WAT    LP1 1354   3.839   3.437   6.184
  271WAT    LP2 1355   3.934   3.387   6.224
  272WAT     OW 1356   6.572   3.233   1.777
  272WAT    HW1 1357   6.544   3.180   1.702
  272WAT    HW2 1358   6.658   3.198   1.801
  272WAT    LP1 1359   6.577   3.301   1.759
  272WAT    LP2 1360   6.527   3.227   1.830
  273WAT     OW 1361   3.045   3.752   1.268
  273WAT    HW1 1362   2.970   3.764   1.327
  273WAT    HW2 1363   3.106   3.821   1.292
  273WAT    LP1 1364   3.073   3.688   1.278
  273WAT    LP2 1365   3.025   3.758   1.201
  274WAT     OW 1366   5.628   2.153   1.097
  274WAT    HW1 1367   5.537   2.176   1.117
  274WAT    HW2 1368   5.639   2.064   1.132
  274WAT    LP1 1369   5.639   2.154   1.028
  274WAT    LP2 1370   5.672   2.197   1.128
  275WAT     OW 1371   1.458   6.116   3.094
  275WAT    HW1 1372   1.509   6.166   3.029
  275WAT    HW2 1373   1.497   6.028   3.092
  275WAT    LP1 1374   1.464   6.144   3.157
  275WAT    LP2 1375   1.391   6.114   3.076
  276WAT     OW 1376   3.648   6.090   3.837
  276WAT    HW1 1377   3.571   6.040   3.865
  276WAT    HW2 1378   3.622   6.182   3.848
  276WAT    LP1 1379   3.703   6.074   3.877
  276WAT    LP2 1380   3.663   6.077   3.770
  277WAT     OW 1381   4.312   4.994   3.621
  277WAT    HW1 1382   4.283   4.914   3.576
  277WAT    HW2 1383   4.402   4.976   3.646
  277WAT    LP1 1384   4.308   5.049   3.578
  277WAT    LP2 1385   4.272   5.006   3.677
  278WAT     OW 1386   3.402   3.167   5.611
  278WAT    HW1 1387   3.464   3.122   5.553
  278WAT    HW2 1388   3.418   3.130   5.697
  278WAT    LP1 1389   3.414   3.236   5.611
  278WAT    LP2 1390   3.336   3.155   5.590
  279WAT     OW 1391   3.425   2.144   5.933
  279WAT    HW1 1392   3.425   2.238   5.950
  279WAT    HW2 1393   3.395   2.105   6.015
  279WAT    LP1 1394   3.382   2.128   5.880
  279WAT    LP2 1395   3.490   2.122   5.917
  280WAT     OW 1396   0.543   2.167   3.457
  280WAT    HW1 1397   0.603   2.223   3.408
  280WAT    HW2 1398   0.597   2.128   3.526
  280WAT    LP1 1399   0.491   2.205   3.484
  280WAT    LP2 1400   0.516   2.117   3.415
  281WAT     OW 1401   0.604   0.711   0.590
  281WAT    HW1 1402   0.681   0.706   0.534
  281WAT    HW2 1403   0.638   0.741   0.675
  281WAT    LP1 1404   0.558   0.756   0.565
  281WAT    LP2 1405   0.574   0.648   0.596
  282WAT     OW 1406   5.554   0.448   2.907
  282WAT    HW1 1407   5.532   0.498   2.986
  282WAT    HW2 1408   5.503   0.491   2.838
  282WAT    LP1 1409   5.622   0.452   2.894
  282WAT    LP2 1410   5.535   0.381   2.914
  283WAT     OW 1411   6.730   3.681   3.742
  283WAT    HW1 1412   6.749   3.724   3.825
  283WAT    HW2 1413   6.807   3.700   3.687
  283WAT    LP1 1414   6.723   3.612   3.751
  283WAT    LP2 1415   6.672   3.707   3.713
  284WAT     OW 1416   6.663   1.023   0.612
  284WAT    HW1 1417   6.709   1.035   0.695
  284WAT    HW2 1418   6.701   0.944   0.574
  284WAT    LP1 1419   6.594   1.015   0.623
  284WAT    LP2 1420   6.673   1.078   0.569
  285WAT     OW 1421   1.102   6.097   5.264
  285WAT    HW1 1422   1.079   6.030   5.200
  285WAT    HW2 1423   1.036   6.088   5.333
  285WAT    LP1 1424   1.166   6.086   5.290
  285WAT    LP2 1425   1.100   6.161   5.235
  286WAT     OW 1426   5.158   3.717   0.182
  286WAT    HW1 1427   5.125   3.770   0.254
  286WAT    HW2 1428   5.244   3.754   0.162
  286WAT    LP1 1429   5.163   3.650   0.201
  286WAT    LP2 1430   5.115   3.722   0.126
  287WAT     OW 1431   0.406   0.201   1.207
  287WAT    HW1 1432   0.419   0.294   1.192
  287WAT    HW2 1433   0.397   0.192   1.302
  287WAT    LP1 1434   0.349   0.178   1.174
  287WAT    LP2 1435   0.462   0.164   1.184
  288WAT     OW 1436   3.981   5.177   4.880
  288WAT    HW1 1437   3.947   5.211   4.797
  288WAT    HW2 1438   3.908   5.185   4.941
  288WAT    LP1 1439   4.000   5.110   4.873
  288WAT    LP2 1440   4.036   5.214   4.902
  289WAT     OW 1441   5.317   0.888   3.846
  289WAT    HW1 1442   5.285   0.969   3.806
  289WAT    HW2 1443   5.376   0.851   3.780
  289WAT    LP1 1444   5.352   0.902   3.905
  289WAT    LP2 1445   5.264   0.844   3.860
  290WAT     OW 1446   0.600   3.800   0.489
  290WAT    HW1 1447   0.676   3.841   0.447
  290WAT    HW2 1448   0.591   3.716   0.445
  290WAT    LP1 1449   0.611   3.792   0.557
  290WAT    LP2 1450   0.543   3.840   0.479
  291WAT     OW 1451   3.582   6.639   2.328
  291WAT    HW1 1452   3.522   6.594   2.387
  291WAT    HW2 1453   3.669   6.626   2.367
  291WAT    LP1 1454   3.579   6.612   2.264
  291WAT    LP2 1455   3.567   6.707   2.325
  292WAT     OW 1456   6.570   5.319   4.902
  292WAT    HW1 1457   6.541   5.235   4.937
  292WAT    HW2 1458   6.530   5.383   4.961
  292WAT    LP1 1459   6.639   5.324   4.903
  292WAT    LP2 1460   6.546   5.328   4.837
  293WAT     OW 1461   6.575   3.931   5.329
  293WAT    HW1 1462   6.586   4.025   5.317
  293WAT    HW2 1463   6.487   3.912   5.296
  293WAT    LP1 1464   6.623   3.896   5.292
  293WAT    LP2 1465   6.580   3.914   5.396
  294WAT     OW 1466   2.673   6.630   3.454
  294WAT    HW1 1467   2.645   6.598   3.540
  294WAT    HW2 1468   2.759   6.591   3.441
  294WAT    LP1 1469   2.628   6.609   3.405
  294WAT    LP2 1470   2.677   6.700   3.454
  295WAT     OW 1471   4.414   3.458   1.776
  295WAT    HW1 1472   4.503   3.464   1.812
  295WAT    HW2 1473   4.375   3.543   1.794
  295WAT    LP1 1474   4.416   3.445   1.707
  295WAT    LP2 1475   4.378   3.407   1.808
  296WAT     OW 1476   1.344   3.462   5.804
  296WAT    HW1 1477   1.318   3.494   5.717
  296WAT    HW2 1478   1.315   3.530   5.864
  296WAT    LP1 1479   1.313   3.401   5.818
  296WAT    LP2 1480   1.414   3.454   5.807
  297WAT     OW 1481   5.602   4.997   2.105
  297WAT    HW1 1482   5.595   4.902   2.098
  297WAT    HW2 1483   5.672   5.021   2.044
  297WAT    LP1 1484   5.541   5.027   2.086
  297WAT    LP2 1485   5.618   5.016   2.170
  298WAT     OW 1486   4.719   5.456   4.395
  298WAT    HW1 1487   4.784   5.416   4.337
  298WAT    HW2 1488   4.767   5.525   4.441
  298WAT    LP1 1489   4.667   5.483   4.357
  298WAT    LP2 1490   4.694   5.409   4.440
  299WAT     OW 1491   0.947   1.800   0.996
  299WAT    HW1 1492   1.007   1.874   0.997
  299WAT    HW2 1493   0.951   1.766   0.907
  299WAT    LP1 1494   0.966   1.751   1.043
  299WAT    LP2 1495   0.881   1.821   1.011
  300WAT     OW 1496   1.577   1.965   2.701
  300WAT    HW1 1497   1.651   1.931   2.751
  300WAT    HW2 1498   1.500   1.930   2.745
  300WAT    LP1 1499   1.577   2.035   2.703
  300WAT    LP2 1500   1.580   1.943   2.635
  301WAT     OW 1501   3.199   6.612   1.804
  301WAT    HW1 1502   3.223   6.701   1.778
  301WAT    HW2 1503   3.283   6.568   1.817
  301WAT    LP1 1504   3.163   6.613   1.864
  301WAT    LP2 1505   3.162   6.580   1.754
  302WAT     OW 1506   1.453   2.678   3.269
  302WAT    HW1 1507   1.495   2.641   3.192
  302WAT    HW2 1508   1.526   2.704   3.326
  302WAT    LP1 1509   1.415   2.734   3.251
  302WAT    LP2 1510   1.412   2.631   3.300
  303WAT     OW 1511   5.455   2.107   4.201
  303WAT    HW1 1512   5.428   2.115   4.293
  303WAT    HW2 1513   5.373   2.094   4.154
  303WAT    LP1 1514   5.486   2.166   4.180
  303WAT    LP2 1515   5.497   2.053   4.192
  304WAT     OW 1516   4.566   5.091   0.919
  304WAT    HW1 1517   4.474   5.071   0.934
  304WAT    HW2 1518   4.592   5.143   0.996
  304WAT    LP1 1519   4.604   5.032   0.916
  304WAT    LP2 1520   4.574   5.127   0.860
  305WAT     OW 1521   1.979   1.493   2.491
  305WAT    HW1 1522   2.062   1.468   2.449
  305WAT    HW2 1523   1.993   1.477   2.584
  305WAT    LP1 1524   1.965   1.560   2.479
  305WAT    LP2 1525   1.926   1.453   2.466
  306WAT     OW 1526   5.141   4.827   3.730
  306WAT    HW1 1527   5.126   4.810   3.822
  306WAT    HW2 1528   5.065   4.791   3.685
  306WAT    LP1 1529   5.146   4.896   3.718
  306WAT    LP2 1530   5.200   4.796   3.708
  307WAT     OW 1531   6.502   3.845   3.042
  307WAT    HW1 1532   6.526   3.936   3.060
  307WAT    HW2 1533   6.425   3.851   2.986
  307WAT    LP1 1534   6.554   3.812   3.010
  307WAT    LP2 1535   6.486   3.811   3.102
  308WAT     OW 1536   0.170   5.978   4.268
  308WAT    HW1 1537   0.249   5.990   4.321
  308WAT    HW2 1538   0.099   5.968   4.331
  308WAT    LP1 1539   0.160   6.034   4.227
  308WAT    LP2 1540   0.176   5.921   4.227
  309WAT     OW 1541   2.795   1.959   1.449
  309WAT    HW1 1542   2.783   1.959   1.544
  309WAT    HW2 1543   2.867   1.898   1.433
  309WAT    LP1 1544   2.737   1.937   1.417
  309WAT    LP2 1545   2.811   2.023   1.426
  310WAT     OW 1546   1.006   5.226   5.128
  310WAT    HW1 1547   1.071   5.294   5.110
  310WAT    HW2 1548   0.928   5.253   5.081
  310WAT    LP1 1549   1.029   5.164   5.104
  310WAT    LP2 1550   0.994   5.221   5.197
  311WAT     OW 1551   4.994   5.548   3.262
  311WAT    HW1 1552   5.012   5.493   3.338
  311WAT    HW2 1553   5.073   5.543   3.209
  311WAT    LP1 1554   4.939   5.523   3.226
  311WAT    LP2 1555   4.981   5.614   3.282
  312WAT     OW 1556   3.388   3.674   5.376
  312WAT    HW1 1557   3.431   3.671   5.462
  312WAT    HW2 1558   3.460   3.687   5.314
  312WAT    LP1 1559   3.354   3.615   5.363
  312WAT    LP2 1560   3.343   3.728   5.373
  313WAT     OW 1561   5.778   1.398   6.611
  313WAT    HW1 1562   5.824   1.358   6.537
  313WAT    HW2 1563   5.829   1.476   6.632
  313WAT    LP1 1564   5.713   1.415   6.594
  313WAT    LP2 1565   5.776   1.354   6.665
  314WAT     OW 1566   1.521   0.231   5.417
  314WAT    HW1 1567   1.586   0.244   5.487
  314WAT    HW2 1568   1.570   0.242   5.336
  314WAT    LP1 1569   1.495   0.166   5.421
  314WAT    LP2 1570   1.470   0.278   5.422
  315WAT     OW 1571   1.678   4.846   2.027
  315WAT    HW1 1572   1.691   4.912   1.960
  315WAT    HW2 1573   1.620   4.781   1.986
  315WAT    LP1 1574   1.739   4.817   2.045
  315WAT    LP2 1575   1.648   4.873   2.084
  316WAT     OW 1576   0.971   4.572   3.983
  316WAT    HW1 1577   1.018   4.490   3.968
  316WAT    HW2 1578   1.010   4.608   4.063
  316WAT    LP1 1579   0.980   4.616   3.930
  316WAT    LP2 1580   0.902   4.560   3.993
  317WAT     OW 1581   2.509   5.978   5.475
  317WAT    HW1 1582   2.500   6.048   5.410
  317WAT    HW2 1583   2.581   5.924   5.441
  317WAT    LP1 1584   2.525   6.004   5.537
  317WAT    LP2 1585   2.451   5.940   5.479
  318WAT     OW 1586   5.171   6.283   1.525
  318WAT    HW1 1587   5.231   6.353   1.551
  318WAT    HW2 1588   5.207   6.204   1.566
  318WAT    LP1 1589   5.107   6.296   1.549
  318WAT    LP2 1590   5.169   6.276   1.456
  319WAT     OW 1591   6.389   4.109   5.506
  319WAT    HW1 1592   6.444   4.154   5.443
  319WAT    HW2 1593   6.421   4.018   5.506
  319WAT    LP1 1594   6.396   4.137   5.570
  319WAT    LP2 1595   6.322   4.111   5.487
  320WAT     OW 1596   4.467   3.987   3.065
  320WAT    HW1 1597   4.385   4.036   3.061
  320WAT    HW2 1598   4.451   3.909   3.011
  320WAT    LP1 1599   4.520   4.024   3.040
  320WAT    LP2 1600   4.481   3.968   3.131
  321WAT     OW 1601   6.643   1.375   3.612
  321WAT    HW1 1602   6.601   1.294   3.642
  321WAT    HW2 1603   6.697   1.348   3.538
  321WAT    LP1 1604   6.595   1.422   3.593
  321WAT    LP2 1605   6.683   1.402   3.663
  322WAT     OW 1606   2.448   4.036   0.667
  322WAT    HW1 1607   2.532   4.075   0.690
  322WAT    HW2 1608   2.470   3.965   0.606
  322WAT    LP1 1609   2.417   4.010   0.724
  322WAT    LP2 1610   2.406   4.083   0.637
  323WAT     OW 1611   1.393   1.958   0.305
  323WAT    HW1 1612   1.325   1.893   0.292
  323WAT    HW2 1613   1.435   1.932   0.387
  323WAT    LP1 1614   1.439   1.957   0.253
  323WAT    LP2 1615   1.366   2.022   0.311
  324WAT     OW 1616   2.218   4.633   6.013
  324WAT    HW1 1617   2.177   4.694   5.953
  324WAT    HW2 1618   2.303   4.672   6.033
  324WAT    LP1 1619   2.180   4.626   6.071
  324WAT    LP2 1620   2.227   4.570   5.983
  325WAT     OW 1621   3.062   6.532   5.852
  325WAT    HW1 1622   3.155   6.520   5.833
  325WAT    HW2 1623   3.019   6.458   5.808
  325WAT    LP1 1624   3.051   6.530   5.921
  325WAT    LP2 1625   3.040   6.593   5.826
  326WAT     OW 1626   1.515   5.581   4.587
  326WAT    HW1 1627   1.425   5.612   4.577
  326WAT    HW2 1628   1.507   5.487   4.596
  326WAT    LP1 1629   1.553   5.598   4.531
  326WAT    LP2 1630   1.544   5.609   4.644
  327WAT     OW 1631   0.504   5.528   4.033
  327WAT    HW1 1632   0.473   5.480   4.109
  327WAT    HW2 1633   0.465   5.483   3.958
  327WAT    LP1 1634   0.484   5.595   4.035
  327WAT    LP2 1635   0.574   5.525   4.029
  328WAT     OW 1636   6.489   6.259   3.171
  328WAT    HW1 1637   6.400   6.247   3.206
  328WAT    HW2 1638   6.528   6.326   3.226
  328WAT    LP1 1639   6.525   6.199   3.176
  328WAT    LP2 1640   6.487   6.279   3.104
  329WAT     OW 1641   5.816   4.953   0.468
  329WAT    HW1 1642   5.736   4.948   0.415
  329WAT    HW2 1643   5.803   5.030   0.523
  329WAT    LP1 1644   5.823   4.895   0.507
  329WAT    LP2 1645   5.872   4.961   0.427
  330WAT     OW 1646   4.749   2.871   0.566
  330WAT    HW1 1647   4.733   2.849   0.474
  330WAT    HW2 1648   4.755   2.786   0.610
  330WAT    LP1 1649   4.808   2.907   0.573
  330WAT    LP2 1650   4.696   2.908   0.592
  331WAT     OW 1651   0.891   0.733   6.624
  331WAT    HW1 1652   0.802   0.739   6.657
  331WAT    HW2 1653   0.888   0.664   6.558
  331WAT    LP1 1654   0.911   0.794   6.595
  331WAT    LP2 1655   0.935   0.716   6.675
  332WAT     OW 1656   5.247   4.340   4.929
  332WAT    HW1 1657   5.192   4.305   4.858
  332WAT    HW2 1658   5.192   4.403   4.973
  332WAT    LP1 1659   5.266   4.288   4.972
  332WAT    LP2 1660   5.304   4.371   4.902
  333WAT     OW 1661   6.380   2.517   0.728
  333WAT    HW1 1662   6.352   2.590   0.672
  333WAT    HW2 1663   6.434   2.559   0.796
  333WAT    LP1 1664   6.324   2.486   0.757
  333WAT    LP2 1665   6.417   2.471   0.692
  334WAT     OW 1666   1.541   5.062   4.266
  334WAT    HW1 1667   1.492   5.142   4.247
  334WAT    HW2 1668   1.529   5.049   4.361
  334WAT    LP1 1669   1.515   5.008   4.230
  334WAT    LP2 1670   1.608   5.070   4.251
  335WAT     OW 1671   2.436   1.768   4.271
  335WAT    HW1 1672   2.345   1.791   4.290
  335WAT    HW2 1673   2.477   1.851   4.246
  335WAT    LP1 1674   2.467   1.741   4.327
  335WAT    LP2 1675   2.440   1.723   4.218
  336WAT     OW 1676   5.509   3.302   0.180
  336WAT    HW1 1677   5.536   3.388   0.148
  336WAT    HW2 1678   5.513   3.308   0.275
  336WAT    LP1 1679   5.444   3.287   0.159
  336WAT    LP2 1680   5.553   3.252   0.156
  337WAT     OW 1681   3.109   6.129   0.761
  337WAT    HW1 1682   3.092   6.098   0.850
  337WAT    HW2 1683   3.023   6.150   0.726
  337WAT    LP1 1684   3.150   6.186   0.762
  337WAT    LP2 1685   3.140   6.079   0.723
  338WAT     OW 1686   0.626   4.779   1.385
  338WAT    HW1 1687   0.560   4.719   1.352
  338WAT    HW2 1688   0.708   4.748   1.348
  338WAT    LP1 1689   0.612   4.845   1.363
  338WAT    LP2 1690   0.628   4.778   1.455
  339WAT     OW 1691   3.676   4.324   3.325
  339WAT    HW1 1692   3.684   4.302   3.418
  339WAT    HW2 1693   3.583   4.315   3.306
  339WAT    LP1 1694   3.697   4.390   3.314
  339WAT    LP2 1695   3.714   4.280   3.286
  340WAT     OW 1696   4.404   0.844   4.854
  340WAT    HW1 1697   4.354   0.839   4.773
  340WAT    HW2 1698   4.373   0.924   4.897
  340WAT    LP1 1699   4.392   0.788   4.894
  340WAT    LP2 1700   4.473   0.849   4.840
  341WAT     OW 1701   0.176   4.919   1.789
  341WAT    HW1 1702   0.249   4.918   1.852
  341WAT    HW2 1703   0.215   4.889   1.707
  341WAT    LP1 1704   0.125   4.875   1.810
  341WAT    LP2 1705   0.149   4.983   1.783
  342WAT     OW 1706   6.346   4.013   1.968
  342WAT    HW1 1707   6.348   4.108   1.962
  342WAT    HW2 1708   6.409   3.984   1.902
  342WAT    LP1 1709   6.365   3.992   2.032
  342WAT    LP2 1710   6.282   3.988   1.953
  343WAT     OW 1711   3.918   6.519   6.484
  343WAT    HW1 1712   3.889   6.429   6.472
  343WAT    HW2 1713   3.916   6.557   6.396
  343WAT    LP1 1714   3.874   6.554   6.527
  343WAT    LP2 1715   3.983   6.521   6.511
  344WAT     OW 1716   3.097   4.103   3.523
  344WAT    HW1 1717   3.090   4.052   3.604
  344WAT    HW2 1718   3.169   4.061   3.475
  344WAT    LP1 1719   3.038   4.099   3.486
  344WAT    LP2 1720   3.112   4.170   3.536
  345WAT     OW 1721   4.048   5.418   2.678
  345WAT    HW1 1722   4.093   5.405   2.594
  345WAT    HW2 1723   4.118   5.443   2.738
  345WAT    LP1 1724   4.000   5.468   2.672
  345WAT    LP2 1725   4.018   5.358   2.699
  346WAT     OW 1726   6.678   0.881   4.969
  346WAT    HW1 1727   6.738   0.816   4.930
  346WAT    HW2 1728   6.713   0.897   5.056
  346WAT    LP1 1729   6.678   0.940   4.931
  346WAT    LP2 1730   6.613   0.855   4.972
  347WAT     OW 1731   1.571   1.732   3.882
  347WAT    HW1 1732   1.640   1.727   3.949
  347WAT    HW2 1733   1.529   1.817   3.898
  347WAT    LP1 1734   1.599   1.730   3.818
  347WAT    LP2 1735   1.526   1.680   3.890
  348WAT     OW 1736   0.856   2.633   5.669
  348WAT    HW1 1737   0.935   2.658   5.620
  348WAT    HW2 1738   0.840   2.543   5.643
  348WAT    LP1 1739   0.867   2.638   5.738
  348WAT    LP2 1740   0.802   2.674   5.651
  349WAT     OW 1741   5.886   3.184   1.957
  349WAT    HW1 1742   5.833   3.211   1.883
  349WAT    HW2 1743   5.960   3.137   1.918
  349WAT    LP1 1744   5.908   3.239   1.994
  349WAT    LP2 1745   5.850   3.141   1.999
  350WAT     OW 1746   4.354   0.337   5.125
  350WAT    HW1 1747   4.361   0.408   5.188
  350WAT    HW2 1748   4.417   0.272   5.155
  350WAT    LP1 1749   4.289   0.310   5.125
  350WAT    LP2 1750   4.370   0.359   5.060
  351WAT     OW 1751   3.106   2.232   3.472
  351WAT    HW1 1752   3.183   2.213   3.418
  351WAT    HW2 1753   3.137   2.297   3.536
  351WAT    LP1 1754   3.054   2.258   3.434
  351WAT    LP2 1755   3.084   2.174   3.505
  352WAT     OW 1756   4.785   6.639   0.607
  352WAT    HW1 1757   4.849   6.610   0.672
  352WAT    HW2 1758   4.718   6.684   0.659
  352WAT    LP1 1759   4.814   6.683   0.561
  352WAT    LP2 1760   4.757   6.584   0.574
  353WAT     OW 1761   2.118   1.353   1.173
  353WAT    HW1 1762   2.047   1.403   1.133
  353WAT    HW2 1763   2.152   1.297   1.103
  353WAT    LP1 1764   2.168   1.396   1.197
  353WAT    LP2 1765   2.094   1.315   1.227
  354WAT     OW 1766   6.757   0.237   2.551
  354WAT    HW1 1767   6.823   0.306   2.542
  354WAT    HW2 1768   6.800   0.159   2.515
  354WAT    LP1 1769   6.740   0.227   2.618
  354WAT    LP2 1770   6.700   0.252   2.514
  355WAT     OW 1771   3.693   1.855   3.339
  355WAT    HW1 1772   3.747   1.813   3.405
  355WAT    HW2 1773   3.732   1.942   3.329
  355WAT    LP1 1774   3.696   1.820   3.278
  355WAT    LP2 1775   3.627   1.860   3.360
  356WAT     OW 1776   4.787   0.518   5.217
  356WAT    HW1 1777   4.875   0.490   5.192
  356WAT    HW2 1778   4.765   0.465   5.294
  356WAT    LP1 1779   4.786   0.586   5.233
  356WAT    LP2 1780   4.741   0.506   5.165
  357WAT     OW 1781   5.396   6.268   2.867
  357WAT    HW1 1782   5.417   6.292   2.777
  357WAT    HW2 1783   5.469   6.214   2.895
  357WAT    LP1 1784   5.390   6.325   2.907
  357WAT    LP2 1785   5.336   6.232   2.870
  358WAT     OW 1786   3.876   6.113   2.120
  358WAT    HW1 1787   3.946   6.057   2.153
  358WAT    HW2 1788   3.919   6.168   2.054
  358WAT    LP1 1789   3.826   6.074   2.090
  358WAT    LP2 1790   3.849   6.152   2.171
  359WAT     OW 1791   5.545   1.221   3.237
  359WAT    HW1 1792   5.623   1.243   3.288
  359WAT    HW2 1793   5.517   1.305   3.200
  359WAT    LP1 1794   5.560   1.176   3.186
  359WAT    LP2 1795   5.495   1.195   3.278
  360WAT     OW 1796   4.206   3.757   5.472
  360WAT    HW1 1797   4.251   3.839   5.489
  360WAT    HW2 1798   4.153   3.742   5.550
  360WAT    LP1 1799   4.165   3.762   5.415
  360WAT    LP2 1800   4.251   3.704   5.463
  361WAT     OW 1801   3.871   4.152   5.874
  361WAT    HW1 1802   3.862   4.231   5.927
  361WAT    HW2 1803   3.861   4.182   5.784
  361WAT    LP1 1804   3.933   4.122   5.884
  361WAT    LP2 1805   3.820   4.106   5.890
  362WAT     OW 1806   0.371   0.753   0.290
  362WAT    HW1 1807   0.355   0.799   0.373
  362WAT    HW2 1808   0.464   0.766   0.272
  362WAT    LP1 1809   0.356   0.685   0.297
  362WAT    LP2 1810   0.331   0.780   0.239
  363WAT     OW 1811   3.249   6.174   0.026
  363WAT    HW1 1812   3.292   6.092   0.003
  363WAT    HW2 1813   3.321   6.236   0.036
  363WAT    LP1 1814   3.206   6.194  -0.025
  363WAT    LP2 1815   3.213   6.167   0.086
  364WAT     OW 1816   4.928   2.145   1.172
  364WAT    HW1 1817   4.865   2.215   1.188
  364WAT    HW2 1818   5.010   2.179   1.208
  364WAT    LP1 1819   4.909   2.086   1.204
  364WAT    LP2 1820   4.935   2.133   1.103
  365WAT     OW 1821   0.295   6.618   3.115
  365WAT    HW1 1822   0.331   6.627   3.203
  365WAT    HW2 1823   0.363   6.654   3.058
  365WAT    LP1 1824   0.283   6.550   3.100
  365WAT    LP2 1825   0.235   6.654   3.108
  366WAT     OW 1826   2.998   2.254   4.056
  366WAT    HW1 1827   2.924   2.193   4.063
  366WAT    HW2 1828   2.992   2.308   4.135
  366WAT    LP1 1829   3.059   2.219   4.054
  366WAT    LP2 1830   2.992   2.294   3.999
  367WAT     OW 1831   5.057   3.866   0.382
  367WAT    HW1 1832   4.985   3.923   0.357
  367WAT    HW2 1833   5.025   3.821   0.461
  367WAT    LP1 1834   5.071   3.820   0.332
  367WAT    LP2 1835   5.114   3.903   0.397
  368WAT     OW 1836   1.402   5.061   0.953
  368WAT    HW1 1837   1.387   5.155   0.950
  368WAT    HW2 1838   1.361   5.027   0.874
  368WAT    LP1 1839   1.471   5.047   0.953
  368WAT    LP2 1840   1.373   5.033   1.010
  369WAT     OW 1841   3.411   6.526   4.325
  369WAT    HW1 1842   3.329   6.573   4.341
  369WAT    HW2 1843   3.455   6.577   4.257
  369WAT    LP1 1844   3.449   6.523   4.383
  369WAT    LP2 1845   3.397   6.461   4.302
  370WAT     OW 1846   6.693   2.779   5.256
  370WAT    HW1 1847   6.689   2.844   5.186
  370WAT    HW2 1848   6.751   2.711   5.222
  370WAT    LP1 1849   6.720   2.807   5.314
  370WAT    LP2 1850   6.630   2.753   5.269
  371WAT     OW 1851   2.143   5.462   0.305
  371WAT    HW1 1852   2.057   5.450   0.266
  371WAT    HW2 1853   2.127   5.522   0.379
  371WAT    LP1 1854   2.169   5.401   0.328
  371WAT    LP2 1855   2.188   5.491   0.260
  372WAT     OW 1856   1.482   0.935   0.294
  372WAT    HW1 1857   1.490   0.852   0.342
  372WAT    HW2 1858   1.572   0.970   0.293
  372WAT    LP1 1859   1.459   0.925   0.229
  372WAT    LP2 1860   1.439   0.979   0.328
  373WAT     OW 1861   6.194   6.123   1.987
  373WAT    HW1 1862   6.212   6.217   1.986
  373WAT    HW2 1863   6.151   6.106   1.903
  373WAT    LP1 1864   6.253   6.087   1.992
  373WAT    LP2 1865   6.152   6.107   2.040
  374WAT     OW 1866   0.779   1.624   4.718
  374WAT    HW1 1867   0.707   1.686   4.704
  374WAT    HW2 1868   0.769   1.560   4.647
  374WAT    LP1 1869   0.841   1.656   4.714
  374WAT    LP2 1870   0.773   1.592   4.780
  375WAT     OW 1871   6.610   4.754   5.713
  375WAT    HW1 1872   6.682   4.784   5.769
  375WAT    HW2 1873   6.613   4.659   5.717
  375WAT    LP1 1874   6.549   4.778   5.737
  375WAT    LP2 1875   6.619   4.776   5.647
  376WAT     OW 1876   0.842   1.586   6.275
  376WAT    HW1 1877   0.871   1.638   6.200
  376WAT    HW2 1878   0.747   1.593   6.274
  376WAT    LP1 1879   0.862   1.519   6.269
  376WAT    LP2 1880   0.868   1.612   6.335
  377WAT     OW 1881   4.866   4.333   6.633
  377WAT    HW1 1882   4.880   4.427   6.633
  377WAT    HW2 1883   4.954   4.295   6.631
  377WAT    LP1 1884   4.832   4.313   6.691
  377WAT    LP2 1885   4.830   4.313   6.577
  378WAT     OW 1886   4.015   0.985   4.375
  378WAT    HW1 1887   4.106   1.009   4.358
  378WAT    HW2 1888   4.002   0.905   4.324
  378WAT    LP1 1889   4.006   0.972   4.444
  378WAT    LP2 1890   3.971   1.035   4.354
  379WAT     OW 1891   3.415   5.978   3.931
  379WAT    HW1 1892   3.400   5.886   3.908
  379WAT    HW2 1893   3.340   6.024   3.896
  379WAT    LP1 1894   3.419   5.985   4.001
  379WAT    LP2 1895   3.475   6.001   3.902
  380WAT     OW 1896   3.063   6.244   1.918
  380WAT    HW1 1897   3.061   6.258   2.013
  380WAT    HW2 1898   3.002   6.309   1.883
  380WAT    LP1 1899   3.128   6.255   1.893
  380WAT    LP2 1900   3.042   6.179   1.902
  381WAT     OW 1901   0.252   6.326   0.833
  381WAT    HW1 1902   0.303   6.407   0.842
  381WAT    HW2 1903   0.184   6.348   0.769
  381WAT    LP1 1904   0.293   6.275   0.809
  381WAT    LP2 1905   0.224   6.308   0.894
  382WAT     OW 1906   5.096   1.353   0.013
  382WAT    HW1 1907   5.164   1.334  -0.051
  382WAT    HW2 1908   5.144   1.368   0.095
  382WAT    LP1 1909   5.060   1.410  -0.005
  382WAT    LP2 1910   5.052   1.299   0.020
  383WAT     OW 1911   4.329   6.414   1.019
  383WAT    HW1 1912   4.339   6.495   1.068
  383WAT    HW2 1913   4.409   6.407   0.967
  383WAT    LP1 1914   4.322   6.359   1.062
  383WAT    LP2 1915   4.273   6.418   0.977
  384WAT     OW 1916   3.350   3.384   5.009
  384WAT    HW1 1917   3.350   3.383   5.104
  384WAT    HW2 1918   3.308   3.302   4.984
  384WAT    LP1 1919   3.312   3.439   4.985
  384WAT    LP2 1920   3.415   3.388   4.983
  385WAT     OW 1921   1.808   3.941   0.776
  385WAT    HW1 1922   1.892   3.979   0.801
  385WAT    HW2 1923   1.759   3.934   0.858
  385WAT    LP1 1924   1.774   3.982   0.730
  385WAT    LP2 1925   1.817   3.878   0.747
  386WAT     OW 1926   1.105   0.029   0.181
  386WAT    HW1 1927   1.126   0.043   0.274
  386WAT    HW2 1928   1.013   0.002   0.181
  386WAT    LP1 1929   1.114   0.088   0.145
  386WAT    LP2 1930   1.145  -0.021   0.154
  387WAT     OW 1931   3.239   1.311   1.830
  387WAT    HW1 1932   3.313   1.315   1.770
  387WAT    HW2 1933   3.203   1.223   1.817
  387WAT    LP1 1934   3.260   1.319   1.896
  387WAT    LP2 1935   3.191   1.359   1.814
  388WAT     OW 1936   1.926   2.583   4.549
  388WAT    HW1 1937   1.983   2.599   4.625
  388WAT    HW2 1938   1.869   2.660   4.545
  388WAT    LP1 1939   1.963   2.577   4.491
  388WAT    LP2 1940   1.887   2.525   4.559
  389WAT     OW 1941   0.931   1.058   3.845
  389WAT    HW1 1942   0.990   1.124   3.810
  389WAT    HW2 1943   0.884   1.025   3.769
  389WAT    LP1 1944   0.967   1.007   3.877
  389WAT    LP2 1945   0.887   1.087   3.891
  390WAT     OW 1946   2.228   4.562   1.076
  390WAT    HW1 1947   2.258   4.546   1.165
  390WAT    HW2 1948   2.134   4.547   1.079
  390WAT    LP1 1949   2.242   4.628   1.056
  390WAT    LP2 1950   2.259   4.518   1.031
  391WAT     OW 1951   6.298   5.645   0.836
  391WAT    HW1 1952   6.233   5.616   0.771
  391WAT    HW2 1953   6.361   5.573   0.840
  391WAT    LP1 1954   6.329   5.704   0.815
  391WAT    LP2 1955   6.268   5.655   0.898
  392WAT     OW 1956   5.023   2.200   4.291
  392WAT    HW1 1957   5.062   2.286   4.275
  392WAT    HW2 1958   4.989   2.205   4.380
  392WAT    LP1 1959   4.971   2.188   4.245
  392WAT    LP2 1960   5.071   2.150   4.285
  393WAT     OW 1961   4.238   6.195   1.153
  393WAT    HW1 1962   4.272   6.271   1.108
  393WAT    HW2 1963   4.233   6.221   1.245
  393WAT    LP1 1964   4.174   6.178   1.129
  393WAT    LP2 1965   4.281   6.140   1.146
  394WAT     OW 1966   1.169   2.513   4.379
  394WAT    HW1 1967   1.159   2.435   4.325
  394WAT    HW2 1968   1.255   2.548   4.356
  394WAT    LP1 1969   1.119   2.560   4.363
  394WAT    LP2 1970   1.166   2.497   4.447
  395WAT     OW 1971   0.694   4.067   2.478
  395WAT    HW1 1972   0.722   3.980   2.506
  395WAT    HW2 1973   0.601   4.070   2.500
  395WAT    LP1 1974   0.729   4.117   2.513
  395WAT    LP2 1975   0.704   4.076   2.410
  396WAT     OW 1976   6.478   6.255   0.512
  396WAT    HW1 1977   6.520   6.313   0.574
  396WAT    HW2 1978   6.389   6.290   0.501
  396WAT    LP1 1979   6.512   6.254   0.450
  396WAT    LP2 1980   6.475   6.189   0.537
  397WAT     OW 1981   1.978   4.291   1.603
  397WAT    HW1 1982   1.974   4.201   1.569
  397WAT    HW2 1983   2.071   4.313   1.601
  397WAT    LP1 1984   1.941   4.334   1.562
  397WAT    LP2 1985   1.953   4.294   1.668
  398WAT     OW 1986   0.844   4.583   4.353
  398WAT    HW1 1987   0.928   4.605   4.313
  398WAT    HW2 1988   0.805   4.667   4.377
  398WAT    LP1 1989   0.804   4.548   4.308
  398WAT    LP2 1990   0.854   4.543   4.410
  399WAT     OW 1991   4.304   4.715   3.847
  399WAT    HW1 1992   4.322   4.753   3.933
  399WAT    HW2 1993   4.213   4.738   3.829
  399WAT    LP1 1994   4.347   4.742   3.799
  399WAT    LP2 1995   4.312   4.645   3.849
  400WAT     OW 1996   4.404   1.894   6.280
  400WAT    HW1 1997   4.315   1.866   6.256
  400WAT    HW2 1998   4.391   1.963   6.344
  400WAT    LP1 1999   4.440   1.840   6.307
  400WAT    LP2 2000   4.438   1.918   6.223
  401WAT     OW 2001   3.923   3.777   1.138
  401WAT    HW1 2002   4.015   3.803   1.145
  401WAT    HW2 2003   3.884   3.808   1.219
  401WAT    LP1 2004   3.893   3.809   1.083
  401WAT    LP2 2005   3.917   3.708   1.131
  402WAT     OW 2006   3.316   0.452   4.901
  402WAT    HW1 2007   3.404   0.472   4.867
  402WAT    HW2 2008   3.305   0.512   4.975
  402WAT    LP1 2009   3.268   0.464   4.852
  402WAT    LP2 2010   3.312   0.386   4.922
  403WAT     OW 2011   3.450   2.534   4.832
  403WAT    HW1 2012   3.484   2.468   4.773
  403WAT    HW2 2013   3.390   2.487   4.890
  403WAT    LP1 2014   3.501   2.564   4.869
  403WAT    LP2 2015   3.416   2.584   4.796
  404WAT     OW 2016   3.476   6.521   3.460
  404WAT    HW1 2017   3.550   6.486   3.511
  404WAT    HW2 2018   3.432   6.443   3.425
  404WAT    LP1 2019   3.433   6.557   3.501
  404WAT    LP2 2020   3.499   6.561   3.408
  405WAT     OW 2021   0.068   5.904   4.716
  405WAT    HW1 2022   0.057   5.987   4.763
  405WAT    HW2 2023   0.038   5.922   4.628
  405WAT    LP1 2024   0.136   5.885   4.716
  405WAT    LP2 2025   0.030   5.854   4.746
  406WAT     OW 2026   4.756   2.068   0.547
  406WAT    HW1 2027   4.769   2.105   0.635
  406WAT    HW2 2028   4.796   1.981   0.551
  406WAT    LP1 2029   4.688   2.063   0.532
  406WAT    LP2 2030   4.787   2.107   0.499
  407WAT     OW 2031   4.074   2.950   4.183
  407WAT    HW1 2032   4.067   2.873   4.240
  407WAT    HW2 2033   4.060   2.916   4.095
  407WAT    LP1 2034   4.025   2.997   4.200
  407WAT    LP2 2035   4.138   2.979   4.189
  408WAT     OW 2036   6.562   2.876   4.831
  408WAT    HW1 2037   6.487   2.835   4.874
  408WAT    HW2 2038   6.610   2.803   4.792
  408WAT    LP1 2039   6.540   2.920   4.781
  408WAT    LP2 2040   6.601   2.910   4.877
  409WAT     OW 2041   1.783   2.349   4.536
  409WAT    HW1 2042   1.728   2.372   4.460
  409WAT    HW2 2043   1.841   2.424   4.547
  409WAT    LP1 2044   1.744   2.339   4.593
  409WAT    LP2 2045   1.820   2.291   4.523
  410WAT     OW 2046   2.707   5.994   0.584
  410WAT    HW1 2047   2.749   5.908   0.593
  410WAT    HW2 2048   2.683   5.999   0.492
  410WAT    LP1 2049   2.651   5.998   0.625
  410WAT    LP2 2050   2.752   6.045   0.601
  411WAT     OW 2051   1.978   2.984   3.425
  411WAT    HW1 2052   1.961   2.911   3.485
  411WAT    HW2 2053   2.050   2.953   3.370
  411WAT    LP1 2054   1.921   2.997   3.386
  411WAT    LP2 2055   1.996   3.041   3.460
  412WAT     OW 2056   0.113   3.972   3.157
  412WAT    HW1 2057   0.134   4.032   3.085
  412WAT    HW2 2058   0.045   4.018   3.206
  412WAT    LP1 2059   0.089   3.912   3.132
  412WAT    LP2 2060   0.169   3.961   3.197
  413WAT     OW 2061   1.167   4.324   1.269
  413WAT    HW1 2062   1.083   4.368   1.275
  413WAT    HW2 2063   1.231   4.391   1.292
  413WAT    LP1 2064   1.171   4.270   1.313
  413WAT    LP2 2065   1.178   4.301   1.203
  414WAT     OW 2066   3.070   4.550   4.889
  414WAT    HW1 2067   2.983   4.551   4.850
  414WAT    HW2 2068   3.126   4.592   4.824
  414WAT    LP1 2069   3.070   4.587   4.949
  414WAT    LP2 2070   3.091   4.485   4.902
  415WAT     OW 2071   2.771   2.749   5.195
  415WAT    HW1 2072   2.853   2.761   5.148
  415WAT    HW2 2073   2.704   2.782   5.134
  415WAT    LP1 2074   2.760   2.682   5.209
  415WAT    LP2 2075   2.770   2.787   5.254
  416WAT     OW 2076   6.563   4.014   2.646
  416WAT    HW1 2077   6.650   4.016   2.685
  416WAT    HW2 2078   6.534   4.105   2.647
  416WAT    LP1 2079   6.566   3.990   2.580
  416WAT    LP2 2080   6.520   3.973   2.683
  417WAT     OW 2081   1.127   0.294   2.870
  417WAT    HW1 2082   1.195   0.349   2.910
  417WAT    HW2 2083   1.078   0.259   2.945
  417WAT    LP1 2084   1.085   0.332   2.829
  417WAT    LP2 2085   1.155   0.242   2.833
  418WAT     OW 2086   1.701   6.499   5.452
  418WAT    HW1 2087   1.650   6.471   5.376
  418WAT    HW2 2088   1.787   6.458   5.439
  418WAT    LP1 2089   1.707   6.569   5.452
  418WAT    LP2 2090   1.672   6.478   5.512
  419WAT     OW 2091   1.790   5.976   6.222
  419WAT    HW1 2092   1.751   5.892   6.246
  419WAT    HW2 2093   1.854   5.955   6.154
  419WAT    LP1 2094   1.740   6.019   6.197
  419WAT    LP2 2095   1.821   6.006   6.277
  420WAT     OW 2096   5.392   2.676   4.279
  420WAT    HW1 2097   5.373   2.611   4.211
  420WAT    HW2 2098   5.378   2.760   4.235
  420WAT    LP1 2099   5.349   2.669   4.333
  420WAT    LP2 2100   5.459   2.671   4.300
  421WAT     OW 2101   2.242   2.961   1.875
  421WAT    HW1 2102   2.225   2.905   1.799
  421WAT    HW2 2103   2.333   2.944   1.898
  421WAT    LP1 2104   2.233   3.028   1.859
  421WAT    LP2 2105   2.199   2.944   1.928
  422WAT     OW 2106   3.507   6.245   6.103
  422WAT    HW1 2107   3.590   6.278   6.070
  422WAT    HW2 2108   3.462   6.322   6.137
  422WAT    LP1 2109   3.470   6.216   6.051
  422WAT    LP2 2110   3.517   6.198   6.154
  423WAT     OW 2111   0.306   1.016   1.091
  423WAT    HW1 2112   0.365   0.990   1.020
  423WAT    HW2 2113   0.278   1.104   1.068
  423WAT    LP1 2114   0.251   0.972   1.094
  423WAT    LP2 2115   0.340   1.015   1.152
  424WAT     OW 2116   4.388   0.572   5.805
  424WAT    HW1 2117   4.480   0.566   5.829
  424WAT    HW2 2118   4.370   0.666   5.805
  424WAT    LP1 2119   4.377   0.545   5.741
  424WAT    LP2 2120   4.348   0.539   5.852
  425WAT     OW 2121   3.563   1.016   3.206
  425WAT    HW1 2122   3.551   1.111   3.214
  425WAT    HW2 2123   3.537   0.981   3.291
  425WAT    LP1 2124   3.523   0.990   3.155
  425WAT    LP2 2125   3.631   1.001   3.193
  426WAT     OW 2126   3.841   5.236   1.162
  426WAT    HW1 2127   3.752   5.269   1.177
  426WAT    HW2 2128   3.891   5.313   1.136
  426WAT    LP1 2129   3.867   5.209   1.221
  426WAT    LP2 2130   3.841   5.188   1.112
  427WAT     OW 2131   0.509   2.043   3.886
  427WAT    HW1 2132   0.559   2.059   3.806
  427WAT    HW2 2133   0.432   2.100   3.878
  427WAT    LP1 2134   0.489   1.976   3.890
  427WAT    LP2 2135   0.546   2.060   3.943
  428WAT     OW 2136   5.032   5.908   1.757
  428WAT    HW1 2137   5.019   5.845   1.687
  428WAT    HW2 2138   4.944   5.932   1.786
  428WAT    LP1 2139   5.069   5.879   1.810
  428WAT    LP2 2140   5.067   5.965   1.734
  429WAT     OW 2141   0.233   0.230   6.481
  429WAT    HW1 2142   0.183   0.185   6.413
  429WAT    HW2 2143   0.312   0.178   6.492
  429WAT    LP1 2144   0.249   0.295   6.460
  429WAT    LP2 2145   0.196   0.234   6.540
  430WAT     OW 2146   2.746   5.360   0.282
  430WAT    HW1 2147   2.660   5.375   0.243
  430WAT    HW2 2148   2.728   5.309   0.360
  430WAT    LP1 2149   2.787   5.325   0.238
  430WAT    LP2 2150   2.776   5.421   0.298
  431WAT     OW 2151   4.075   0.240   3.691
  431WAT    HW1 2152   4.102   0.208   3.605
  431WAT    HW2 2153   4.022   0.318   3.672
  431WAT    LP1 2154   4.037   0.192   3.724
  431WAT    LP2 2155   4.131   0.256   3.730
  432WAT     OW 2156   3.825   4.256   5.625
  432WAT    HW1 2157   3.785   4.343   5.620
  432WAT    HW2 2158   3.770   4.201   5.569
  432WAT    LP1 2159   3.891   4.258   5.600
  432WAT    LP2 2160   3.826   4.232   5.690
  433WAT     OW 2161   1.455   6.616   2.163
  433WAT    HW1 2162   1.525   6.648   2.106
  433WAT    HW2 2163   1.414   6.546   2.113
  433WAT    LP1 2164   1.480   6.592   2.224
  433WAT    LP2 2165   1.408   6.668   2.176
  434WAT     OW 2166   1.128   4.163   0.077
  434WAT    HW1 2167   1.126   4.121  -0.009
  434WAT    HW2 2168   1.146   4.255   0.058
  434WAT    LP1 2169   1.067   4.156   0.109
  434WAT    LP2 2170   1.179   4.135   0.116
  435WAT     OW 2171   1.950   4.418   2.270
  435WAT    HW1 2172   1.972   4.500   2.313
  435WAT    HW2 2173   1.957   4.437   2.177
  435WAT    LP1 2174   1.994   4.367   2.289
  435WAT    LP2 2175   1.884   4.399   2.287
  436WAT     OW 2176   6.146   6.422   4.276
  436WAT    HW1 2177   6.166   6.352   4.339
  436WAT    HW2 2178   6.052   6.417   4.264
  436WAT    LP1 2179   6.165   6.484   4.302
  436WAT    LP2 2180   6.180   6.411   4.216
  437WAT     OW 2181   5.603   0.200   2.717
  437WAT    HW1 2182   5.560   0.246   2.646
  437WAT    HW2 2183   5.567   0.111   2.714
  437WAT    LP1 2184   5.672   0.199   2.708
  437WAT    LP2 2185   5.589   0.230   2.779
  438WAT     OW 2186   5.876   0.437   0.622
  438WAT    HW1 2187   5.863   0.520   0.668
  438WAT    HW2 2188   5.911   0.378   0.689
  438WAT    LP1 2189   5.816   0.413   0.597
  438WAT    LP2 2190   5.922   0.445   0.570
  439WAT     OW 2191   1.426   0.514   0.212
  439WAT    HW1 2192   1.406   0.538   0.121
  439WAT    HW2 2193   1.493   0.445   0.205
  439WAT    LP1 2194   1.451   0.569   0.247
  439WAT    LP2 2195   1.369   0.490   0.244
  440WAT     OW 2196   2.531   0.400   3.323
  440WAT    HW1 2197   2.588   0.446   3.262
  440WAT    HW2 2198   2.445   0.400   3.281
  440WAT    LP1 2199   2.553   0.334   3.333
  440WAT    LP2 2200   2.528   0.433   3.384
  441WAT     OW 2201   4.624   0.991   2.615
  441WAT    HW1 2202   4.530   0.996   2.631
  441WAT    HW2 2203   4.640   0.899   2.596
  441WAT    LP1 2204   4.642   1.031   2.560
  441WAT    LP2 2205   4.659   1.012   2.672
  442WAT     OW 2206   0.107   0.257   3.812
  442WAT    HW1 2207   0.019   0.287   3.791
  442WAT    HW2 2208   0.147   0.331   3.858
  442WAT    LP1 2209   0.105   0.200   3.853
  442WAT    LP2 2210   0.143   0.242   3.754
  443WAT     OW 2211   5.839   1.152   3.156
  443WAT    HW1 2212   5.806   1.218   3.096
  443WAT    HW2 2213   5.839   1.194   3.242
  443WAT    LP1 2214   5.797   1.096   3.156
  443WAT    LP2 2215   5.904   1.132   3.138
  444WAT     OW 2216   1.693   1.257   5.567
  444WAT    HW1 2217   1.687   1.286   5.658
  444WAT    HW2 2218   1.637   1.319   5.518
  444WAT    LP1 2219   1.759   1.261   5.544
  444WAT    LP2 2220   1.669   1.192   5.559
  445WAT     OW 2221   1.821   5.920   4.518
  445WAT    HW1 2222   1.896   5.918   4.459
  445WAT    HW2 2223   1.772   5.840   4.498
  445WAT    LP1 2224   1.842   5.919   4.585
  445WAT    LP2 2225   1.782   5.976   4.506
  446WAT     OW 2226   1.332   4.709   3.188
  446WAT    HW1 2227   1.270   4.782   3.190
  446WAT    HW2 2228   1.282   4.636   3.150
  446WAT    LP1 2229   1.387   4.725   3.147
  446WAT    LP2 2230   1.354   4.694   3.252
  447WAT     OW 2231   5.668   3.596   4.855
  447WAT    HW1 2232   5.686   3.674   4.908
  447WAT    HW2 2233   5.727   3.529   4.890
  447WAT    LP1 2234   5.601   3.576   4.862
  447WAT    LP2 2235   5.681   3.608   4.787
  448WAT     OW 2236   1.696   4.563   6.193
  448WAT    HW1 2237   1.601   4.576   6.188
  448WAT    HW2 2238   1.732   4.625   6.130
  448WAT    LP1 2239   1.719   4.577   6.258
  448WAT    LP2 2240   1.712   4.497   6.176
  449WAT     OW 2241   3.378   3.520   1.484
  449WAT    HW1 2242   3.377   3.586   1.554
  449WAT    HW2 2243   3.289   3.520   1.449
  449WAT    LP1 2244   3.425   3.537   1.435
  449WAT    LP2 2245   3.394   3.457   1.510
  450WAT     OW 2246   1.243   2.377   6.344
  450WAT    HW1 2247   1.171   2.353   6.285
  450WAT    HW2 2248   1.230   2.324   6.422
  450WAT    LP1 2249   1.305   2.363   6.314
  450WAT    LP2 2250   1.240   2.445   6.359
  451WAT     OW 2251   4.666   3.205   4.351
  451WAT    HW1 2252   4.627   3.243   4.429
  451WAT    HW2 2253   4.757   3.187   4.376
  451WAT    LP1 2254   4.633   3.147   4.332
  451WAT    LP2 2255   4.664   3.251   4.298
  452WAT     OW 2256   5.720   3.478   6.345
  452WAT    HW1 2257   5.783   3.511   6.409
  452WAT    HW2 2258   5.767   3.482   6.261
  452WAT    LP1 2259   5.701   3.412   6.360
  452WAT    LP2 2260   5.663   3.519   6.343
  453WAT     OW 2261   5.987   1.297   4.657
  453WAT    HW1 2262   6.036   1.222   4.691
  453WAT    HW2 2263   6.020   1.308   4.568
  453WAT    LP1 2264   5.919   1.283   4.656
  453WAT    LP2 2265   5.999   1.354   4.695
  454WAT     OW 2266   4.643   2.677   3.503
  454WAT    HW1 2267   4.693   2.745   3.458
  454WAT    HW2 2268   4.652   2.698   3.596
  454WAT    LP1 2269   4.576   2.679   3.484
  454WAT    LP2 2270   4.669   2.613   3.489
  455WAT     OW 2271   0.744   3.159   5.389
  455WAT    HW1 2272   0.776   3.230   5.445
  455WAT    HW2 2273   0.823   3.121   5.351
  455WAT    LP1 2274   0.710   3.111   5.427
  455WAT    LP2 2275   0.702   3.184   5.339
  456WAT     OW 2276   0.663   2.647   5.335
  456WAT    HW1 2277   0.734   2.585   5.352
  456WAT    HW2 2278   0.701   2.712   5.276
  456WAT    LP1 2279   0.609   2.614   5.304
  456WAT    LP2 2280   0.641   2.677   5.394
  457WAT     OW 2281   0.820   3.623   0.240
  457WAT    HW1 2282   0.794   3.603   0.150
  457WAT    HW2 2283   0.744   3.602   0.293
  457WAT    LP1 2284   0.875   3.583   0.259
  457WAT    LP2 2285   0.838   3.690   0.246
  458WAT     OW 2286   2.248   1.379   3.262
  458WAT    HW1 2287   2.173   1.354   3.315
  458WAT    HW2 2288   2.286   1.296   3.232
  458WAT    LP1 2289   2.228   1.418   3.207
  458WAT    LP2 2290   2.295   1.415   3.300
  459WAT     OW 2291   6.605   3.344   5.755
  459WAT    HW1 2292   6.577   3.331   5.665
  459WAT    HW2 2293   6.670   3.275   5.771
  459WAT    LP1 2294   6.634   3.407   5.763
  459WAT    LP2 2295   6.551   3.338   5.800
  460WAT     OW 2296   6.087   1.243   6.071
  460WAT    HW1 2297   6.129   1.195   6.000
  460WAT    HW2 2298   6.021   1.183   6.106
  460WAT    LP1 2299   6.134   1.259   6.121
  460WAT    LP2 2300   6.057   1.302   6.048
  461WAT     OW 2301   1.608   0.469   1.045
  461WAT    HW1 2302   1.586   0.405   1.113
  461WAT    HW2 2303   1.587   0.554   1.083
  461WAT    LP1 2304   1.676   0.465   1.028
  461WAT    LP2 2305   1.569   0.457   0.987
  462WAT     OW 2306   5.290   0.125   1.830
  462WAT    HW1 2307   5.366   0.164   1.874
  462WAT    HW2 2308   5.317   0.118   1.738
  462WAT    LP1 2309   5.276   0.062   1.857
  462WAT    LP2 2310   5.234   0.166   1.836
  463WAT     OW 2311   4.206   3.200   0.473
  463WAT    HW1 2312   4.264   3.232   0.542
  463WAT    HW2 2313   4.127   3.170   0.519
  463WAT    LP1 2314   4.190   3.251   0.428
  463WAT    LP2 2315   4.235   3.147   0.438
  464WAT     OW 2316   5.372   0.195   6.240
  464WAT    HW1 2317   5.386   0.241   6.322
  464WAT    HW2 2318   5.283   0.160   6.248
  464WAT    LP1 2319   5.377   0.239   6.186
  464WAT    LP2 2320   5.418   0.143   6.232
  465WAT     OW 2321   1.058   3.748   6.117
  465WAT    HW1 2322   1.010   3.816   6.070
  465WAT    HW2 2323   0.997   3.675   6.123
  465WAT    LP1 2324   1.115   3.730   6.081
  465WAT    LP2 2325   1.077   3.771   6.181
  466WAT     OW 2326   4.004   4.923   6.648
  466WAT    HW1 2327   4.053   4.894   6.724
  466WAT    HW2 2328   4.045   5.005   6.622
  466WAT    LP1 2329   4.008   4.876   6.596
  466WAT    LP2 2330   3.936   4.933   6.663
  467WAT     OW 2331   2.931   6.604   0.229
  467WAT    HW1 2332   2.887   6.688   0.243
  467WAT    HW2 2333   2.955   6.575   0.316
  467WAT    LP1 2334   2.887   6.559   0.198
  467WAT    LP2 2335   2.988   6.612   0.189
  468WAT     OW 2336   6.052   5.587   5.442
  468WAT    HW1 2337   6.068   5.563   5.533
  468WAT    HW2 2338   5.958   5.574   5.430
  468WAT    LP1 2339   6.070   5.653   5.430
  468WAT    LP2 2340   6.088   5.545   5.399
  469WAT     OW 2341   0.399   1.542   1.990
  469WAT    HW1 2342   0.404   1.494   2.072
  469WAT    HW2 2343   0.396   1.634   2.016
  469WAT    LP1 2344   0.456   1.529   1.951
  469WAT    LP2 2345   0.342   1.524   1.954
  470WAT     OW 2346   0.904   2.169   3.810
  470WAT    HW1 2347   0.975   2.176   3.747
  470WAT    HW2 2348   0.935   2.105   3.874
  470WAT    LP1 2349   0.892   2.231   3.841
  470WAT    LP2 2350   0.845   2.147   3.779
  471WAT     OW 2351   4.348   5.730   4.482
  471WAT    HW1 2352   4.279   5.780   4.439
  471WAT    HW2 2353   4.314   5.711   4.569
  471WAT    LP1 2354   4.361   5.671   4.447
  471WAT    LP2 2355   4.407   5.768   4.486
  472WAT     OW 2356   6.359   4.427   4.422
  472WAT    HW1 2357   6.324   4.431   4.511
  472WAT    HW2 2358   6.339   4.338   4.392
  472WAT    LP1 2359   6.327   4.474   4.380
  472WAT    LP2 2360   6.428   4.438   4.422
  473WAT     OW 2361   5.004   0.011   3.285
  473WAT    HW1 2362   5.083   0.062   3.302
  473WAT    HW2 2363   4.932   0.071   3.305
  473WAT    LP1 2364   5.001  -0.008   3.218
  473WAT    LP2 2365   5.001  -0.045   3.326
  474WAT     OW 2366   0.499   1.613   5.320
  474WAT    HW1 2367   0.489   1.605   5.225
  474WAT    HW2 2368   0.504   1.708   5.336
  474WAT    LP1 2369   0.443   1.586   5.353
  474WAT    LP2 2370   0.557   1.582   5.342
  475WAT     OW 2371   5.509   0.346   2.504
  475WAT    HW1 2372   5.545   0.301   2.428
  475WAT    HW2 2373   5.546   0.434   2.500
  475WAT    LP1 2374   5.439   0.348   2.501
  475WAT    LP2 2375   5.528   0.313   2.563
  476WAT     OW 2376   0.322   3.731   0.068
  476WAT    HW1 2377   0.412   3.747   0.038
  476WAT    HW2 2378   0.268   3.784   0.009
  476WAT    LP1 2379   0.306   3.663   0.062
  476WAT    LP2 2380   0.314   3.751   0.134
  477WAT     OW 2381   1.563   5.387   6.623
  477WAT    HW1 2382   1.561   5.301   6.581
  477WAT    HW2 2383   1.476   5.396   6.664
  477WAT    LP1 2384   1.613   5.390   6.671
  477WAT    LP2 2385   1.573   5.437   6.576
  478WAT     OW 2386   5.370   0.090   2.288
  478WAT    HW1 2387   5.456   0.130   2.281
  478WAT    HW2 2388   5.309   0.162   2.273
  478WAT    LP1 2389   5.362   0.040   2.240
  478WAT    LP2 2390   5.360   0.063   2.352
  479WAT     OW 2391   2.380   2.846   3.478
  479WAT    HW1 2392   2.394   2.920   3.537
  479WAT    HW2 2393   2.319   2.789   3.525
  479WAT    LP1 2394   2.352   2.867   3.417
  479WAT    LP2 2395   2.440   2.813   3.465
  480WAT     OW 2396   2.675   4.279   2.583
  480WAT    HW1 2397   2.585   4.311   2.574
  480WAT    HW2 2398   2.677   4.199   2.532
  480WAT    LP1 2399   2.720   4.326   2.557
  480WAT    LP2 2400   2.690   4.267   2.650
  481WAT     OW 2401   2.039   3.345   0.533
  481WAT    HW1 2402   1.965   3.360   0.474
  481WAT    HW2 2403   2.068   3.433   0.557
  481WAT    LP1 2404   2.020   3.309   0.589
  481WAT    LP2 2405   2.090   3.311   0.499
  482WAT     OW 2406   5.203   0.992   4.226
  482WAT    HW1 2407   5.214   0.928   4.296
  482WAT    HW2 2408   5.172   1.071   4.271
  482WAT    LP1 2409   5.264   1.004   4.194
  482WAT    LP2 2410   5.156   0.970   4.179
  483WAT     OW 2411   1.347   3.966   3.764
  483WAT    HW1 2412   1.377   3.949   3.675
  483WAT    HW2 2413   1.428   3.969   3.816
  483WAT    LP1 2414   1.313   4.027   3.768
  483WAT    LP2 2415   1.305   3.915   3.786
  484WAT     OW 2416   4.270   2.855   6.501
  484WAT    HW1 2417   4.218   2.843   6.580
  484WAT    HW2 2418   4.210   2.894   6.438
  484WAT    LP1 2419   4.325   2.897   6.513
  484WAT    LP2 2420   4.293   2.793   6.477
  485WAT     OW 2421   6.657   4.973   3.064
  485WAT    HW1 2422   6.751   4.985   3.078
  485WAT    HW2 2423   6.647   4.880   3.047
  485WAT    LP1 2424   6.621   4.993   3.120
  485WAT    LP2 2425   6.636   5.011   3.008
  486WAT     OW 2426   3.559   5.657   4.001
  486WAT    HW1 2427   3.499   5.613   4.061
  486WAT    HW2 2428   3.506   5.680   3.925
  486WAT    LP1 2429   3.586   5.715   4.031
  486WAT    LP2 2430   3.612   5.614   3.983
  487WAT     OW 2431   1.676   2.703   0.040
  487WAT    HW1 2432   1.582   2.687   0.040
  487WAT    HW2 2433   1.710   2.643  -0.027
  487WAT    LP1 2434   1.690   2.769   0.023
  487WAT    LP2 2435   1.704   2.688   0.102
  488WAT     OW 2436   0.414   2.190   0.888
  488WAT    HW1 2437   0.474   2.170   0.816
  488WAT    HW2 2438   0.404   2.285   0.884
  488WAT    LP1 2439   0.353   2.158   0.878
  488WAT    LP2 2440   0.442   2.171   0.949
  489WAT     OW 2441   2.487   6.092   0.718
  489WAT    HW1 2442   2.565   6.071   0.667
  489WAT    HW2 2443   2.469   6.012   0.769
  489WAT    LP1 2444   2.498   6.146   0.761
  489WAT    LP2 2445   2.433   6.107   0.676
  490WAT     OW 2446   4.746   1.560   6.346
  490WAT    HW1 2447   4.776   1.515   6.425
  490WAT    HW2 2448   4.795   1.642   6.346
  490WAT    LP1 2449   4.761   1.522   6.289
  490WAT    LP2 2450   4.677   1.572   6.349
  491WAT     OW 2451   0.958   6.659   0.767
  491WAT    HW1 2452   0.968   6.751   0.746
  491WAT    HW2 2453   0.871   6.653   0.807
  491WAT    LP1 2454   0.961   6.620   0.709
  491WAT    LP2 2455   1.008   6.637   0.812
  492WAT     OW 2456   1.305   3.590   0.068
  492WAT    HW1 2457   1.341   3.592   0.157
  492WAT    HW2 2458   1.239   3.521   0.071
  492WAT    LP1 2459   1.276   3.651   0.052
  492WAT    LP2 2460   1.354   3.574   0.021
  493WAT     OW 2461   5.809   4.817   6.115
  493WAT    HW1 2462   5.764   4.733   6.102
  493WAT    HW2 2463   5.886   4.812   6.060
  493WAT    LP1 2464   5.768   4.870   6.096
  493WAT    LP2 2465   5.827   4.825   6.182
  494WAT     OW 2466   1.389   1.311   1.568
  494WAT    HW1 2467   1.328   1.349   1.505
  494WAT    HW2 2468   1.476   1.336   1.536
  494WAT    LP1 2469   1.378   1.337   1.632
  494WAT    LP2 2470   1.382   1.241   1.570
  495WAT     OW 2471   0.683   3.154   0.601
  495WAT    HW1 2472   0.759   3.097   0.617
  495WAT    HW2 2473   0.639   3.159   0.686
  495WAT    LP1 2474   0.704   3.218   0.581
  495WAT    LP2 2475   0.641   3.126   0.553
  496WAT     OW 2476   4.984   6.140   3.915
  496WAT    HW1 2477   5.071   6.168   3.941
  496WAT    HW2 2478   4.992   6.046   3.900
  496WAT    LP1 2479   4.937   6.153   3.965
  496WAT    LP2 2480   4.964   6.172   3.856
  497WAT     OW 2481   4.254   1.999   5.692
  497WAT    HW1 2482   4.184   1.934   5.682
  497WAT    HW2 2483   4.212   2.074   5.735
  497WAT    LP1 2484   4.306   1.974   5.732
  497WAT    LP2 2485   4.280   2.018   5.630
  498WAT     OW 2486   1.323   1.826   1.046
  498WAT    HW1 2487   1.256   1.888   1.017
  498WAT    HW2 2488   1.349   1.858   1.132
  498WAT    LP1 2489   1.298   1.761   1.050
  498WAT    LP2 2490   1.378   1.827   1.002
  499WAT     OW 2491   4.290   3.190   4.491
  499WAT    HW1 2492   4.367   3.241   4.515
  499WAT    HW2 2493   4.240   3.246   4.432
  499WAT    LP1 2494   4.309   3.130   4.459
  499WAT    LP2 2495   4.252   3.174   4.548
  500WAT     OW 2496   0.684   1.636   3.505
  500WAT    HW1 2497   0.712   1.599   3.422
  500WAT    HW2 2498   0.595   1.668   3.488
  500WAT    LP1 2499   0.682   1.587   3.555
  500WAT    LP2 2500   0.726   1.688   3.525
  501WAT     OW 2501   5.836   5.965   3.985
  501WAT    HW1 2502   5.837   6.040   4.044
  501WAT    HW2 2503   5.847   5.889   4.043
  501WAT    LP1 2504   5.775   5.961   3.951
  501WAT    LP2 2505   5.889   5.968   3.939
  502WAT     OW 2506   5.502   6.389   0.843
  502WAT    HW1 2507   5.592   6.371   0.872
  502WAT    HW2 2508   5.457   6.305   0.850
  502WAT    LP1 2509   5.472   6.437   0.885
  502WAT    LP2 2510   5.502   6.412   0.777
  503WAT     OW 2511   2.390   4.339   5.986
  503WAT    HW1 2512   2.438   4.257   5.974
  503WAT    HW2 2513   2.401   4.359   6.079
  503WAT    LP1 2514   2.416   4.389   5.946
  503WAT    LP2 2515   2.322   4.330   5.971
  504WAT     OW 2516   6.204   0.525   5.027
  504WAT    HW1 2517   6.153   0.485   4.957
  504WAT    HW2 2518   6.179   0.618   5.025
  504WAT    LP1 2519   6.188   0.497   5.089
  504WAT    LP2 2520   6.272   0.518   5.015
  505WAT     OW 2521   0.038   0.012   3.061
  505WAT    HW1 2522   0.124  -0.017   3.088
  505WAT    HW2 2523   0.046   0.027   2.967
  505WAT    LP1 2524  -0.011  -0.036   3.074
  505WAT    LP2 2525   0.020   0.072   3.094
  506WAT     OW 2526   5.275   0.635   2.988
  506WAT    HW1 2527   5.354   0.616   3.039
  506WAT    HW2 2528   5.291   0.721   2.950
  506WAT    LP1 2529   5.267   0.587   2.937
  506WAT    LP2 2530   5.219   0.635   3.029
  507WAT     OW 2531   0.133   6.317   0.392
  507WAT    HW1 2532   0.052   6.293   0.348
  507WAT    HW2 2533   0.185   6.236   0.392
  507WAT    LP1 2534   0.166   6.368   0.358
  507WAT    LP2 2535   0.120   6.338   0.458
  508WAT     OW 2536   3.210   5.785   3.574
  508WAT    HW1 2537   3.189   5.872   3.539
  508WAT    HW2 2538   3.260   5.742   3.504
  508WAT    LP1 2539   3.249   5.791   3.632
  508WAT    LP2 2540   3.152   5.750   3.588
  509WAT     OW 2541   6.641   2.239   0.725
  509WAT    HW1 2542   6.670   2.315   0.776
  509WAT    HW2 2543   6.589   2.275   0.654
  509WAT    LP1 2544   6.697   2.204   0.700
  509WAT    LP2 2545   6.603   2.196   0.765
  510WAT     OW 2546   1.413   2.864   6.320
  510WAT    HW1 2547   1.483   2.798   6.324
  510WAT    HW2 2548   1.338   2.817   6.282
  510WAT    LP1 2549   1.398   2.887   6.384
  510WAT    LP2 2550   1.432   2.918   6.280
  511WAT     OW 2551   1.558   3.397   0.005
  511WAT    HW1 2552   1.495   3.420  -0.062
  511WAT    HW2 2553   1.609   3.325  -0.032
  511WAT    LP1 2554   1.600   3.451   0.021
  511WAT    LP2 2555   1.525   3.376   0.064
  512WAT     OW 2556   5.225   0.483   1.663
  512WAT    HW1 2557   5.153   0.419   1.655
  512WAT    HW2 2558   5.220   0.534   1.582
  512WAT    LP1 2559   5.215   0.524   1.719
  512WAT    LP2 2560   5.286   0.450   1.669
  513WAT     OW 2561   5.031   5.016   6.177
  513WAT    HW1 2562   5.019   4.983   6.266
  513WAT    HW2 2563   4.943   5.035   6.146
  513WAT    LP1 2564   5.070   5.074   6.178
  513WAT    LP2 2565   5.062   4.968   6.137
  514WAT     OW 2566   3.764   3.340   5.548
  514WAT    HW1 2567   3.855   3.362   5.526
  514WAT    HW2 2568   3.726   3.423   5.577
  514WAT    LP1 2569   3.730   3.315   5.492
  514WAT    LP2 2570   3.762   3.293   5.600
  515WAT     OW 2571   1.014   1.765   3.779
  515WAT    HW1 2572   0.943   1.792   3.722
  515WAT    HW2 2573   1.021   1.835   3.845
  515WAT    LP1 2574   1.000   1.704   3.810
  515WAT    LP2 2575   1.074   1.760   3.743
  516WAT     OW 2576   2.653   6.025   0.325
  516WAT    HW1 2577   2.733   6.012   0.274
  516WAT    HW2 2578   2.587   5.972   0.280
  516WAT    LP1 2579   2.661   6.004   0.391
  516WAT    LP2 2580   2.634   6.093   0.325
  517WAT     OW 2581   3.191   2.566   3.432
  517WAT    HW1 2582   3.213   2.508   3.506
  517WAT    HW2 2583   3.159   2.646   3.474
  517WAT    LP1 2584   3.247   2.579   3.393
  517WAT    LP2 2585   3.141   2.537   3.393
  518WAT     OW 2586   1.034   5.565   2.318
  518WAT    HW1 2587   0.970   5.544   2.387
  518WAT    HW2 2588   1.029   5.492   2.257
  518WAT    LP1 2589   1.016   5.625   2.287
  518WAT    LP2 2590   1.098   5.571   2.345
  519WAT     OW 2591   4.623   3.284   3.194
  519WAT    HW1 2592   4.562   3.347   3.232
  519WAT    HW2 2593   4.570   3.206   3.175
  519WAT    LP1 2594   4.652   3.309   3.136
  519WAT    LP2 2595   4.674   3.268   3.240
  520WAT     OW 2596   2.072   5.199   3.803
  520WAT    HW1 2597   2.158   5.212   3.842
  520WAT    HW2 2598   2.025   5.280   3.820
  520WAT    LP1 2599   2.077   5.187   3.734
  520WAT    LP2 2600   2.039   5.145   3.833
  521WAT     OW 2601   2.930   0.379   0.420
  521WAT    HW1 2602   2.933   0.364   0.514
  521WAT    HW2 2603   2.867   0.450   0.409
  521WAT    LP1 2604   2.993   0.398   0.396
  521WAT    LP2 2605   2.909   0.321   0.387
  522WAT     OW 2606   1.971   4.034   1.514
  522WAT    HW1 2607   1.941   3.954   1.558
  522WAT    HW2 2608   2.065   4.020   1.501
  522WAT    LP1 2609   1.939   4.042   1.452
  522WAT    LP2 2610   1.959   4.090   1.554
  523WAT     OW 2611   2.799   5.336   3.286
  523WAT    HW1 2612   2.803   5.259   3.231
  523WAT    HW2 2613   2.755   5.402   3.233
  523WAT    LP1 2614   2.763   5.323   3.345
  523WAT    LP2 2615   2.864   5.357   3.303
  524WAT     OW 2616   6.433   0.940   2.637
  524WAT    HW1 2617   6.430   1.023   2.685
  524WAT    HW2 2618   6.349   0.899   2.654
  524WAT    LP1 2619   6.442   0.951   2.568
  524WAT    LP2 2620   6.486   0.900   2.660
  525WAT     OW 2621   2.215   0.276   0.488
  525WAT    HW1 2622   2.305   0.247   0.501
  525WAT    HW2 2623   2.194   0.249   0.398
  525WAT    LP1 2624   2.172   0.244   0.533
  525WAT    LP2 2625   2.209   0.345   0.495
  526WAT     OW 2626   0.678   1.342   2.239
  526WAT    HW1 2627   0.725   1.271   2.282
  526WAT    HW2 2628   0.699   1.333   2.146
  526WAT    LP1 2629   0.609   1.337   2.249
  526WAT    LP2 2630   0.700   1.404   2.263
  527WAT     OW 2631   1.333   5.225   4.996
  527WAT    HW1 2632   1.288   5.299   5.037
  527WAT    HW2 2633   1.298   5.221   4.907
  527WAT    LP1 2634   1.403   5.237   4.995
  527WAT    LP2 2635   1.320   5.166   5.031
  528WAT     OW 2636   2.290   4.257   0.634
  528WAT    HW1 2637   2.289   4.292   0.723
  528WAT    HW2 2638   2.342   4.177   0.641
  528WAT    LP1 2639   2.225   4.244   0.612
  528WAT    LP2 2640   2.321   4.302   0.590
  529WAT     OW 2641   2.272   5.758   1.259
  529WAT    HW1 2642   2.300   5.818   1.328
  529WAT    HW2 2643   2.185   5.788   1.235
  529WAT    LP1 2644   2.316   5.761   1.204
  529WAT    LP2 2645   2.270   5.692   1.283
  530WAT     OW 2646   1.965   1.216   0.904
  530WAT    HW1 2647   2.011   1.151   0.957
  530WAT    HW2 2648   1.899   1.166   0.855
  530WAT    LP1 2649   1.934   1.264   0.944
  530WAT    LP2 2650   2.009   1.248   0.860
  531WAT     OW 2651   2.972   0.731   6.344
  531WAT    HW1 2652   3.036   0.669   6.378
  531WAT    HW2 2653   2.901   0.731   6.408
  531WAT    LP1 2654   3.000   0.795   6.339
  531WAT    LP2 2655   2.949   0.711   6.281
  532WAT     OW 2656   2.938   6.611   6.085
  532WAT    HW1 2657   2.858   6.562   6.066
  532WAT    HW2 2658   2.993   6.598   6.008
  532WAT    LP1 2659   2.924   6.679   6.094
  532WAT    LP2 2660   2.969   6.586   6.143
  533WAT     OW 2661   2.379   1.156   0.287
  533WAT    HW1 2662   2.353   1.101   0.214
  533WAT    HW2 2663   2.471   1.178   0.270
  533WAT    LP1 2664   2.340   1.214   0.290
  533WAT    LP2 2665   2.373   1.122   0.348
  534WAT     OW 2666   2.274   5.086   5.448
  534WAT    HW1 2667   2.265   5.013   5.387
  534WAT    HW2 2668   2.346   5.138   5.412
  534WAT    LP1 2669   2.215   5.123   5.451
  534WAT    LP2 2670   2.290   5.063   5.512
  535WAT     OW 2671   6.291   3.301   1.382
  535WAT    HW1 2672   6.313   3.210   1.361
  535WAT    HW2 2673   6.253   3.296   1.470
  535WAT    LP1 2674   6.348   3.341   1.382
  535WAT    LP2 2675   6.244   3.326   1.336
  536WAT     OW 2676   5.889   2.833   3.344
  536WAT    HW1 2677   5.919   2.832   3.434
  536WAT    HW2 2678   5.926   2.755   3.304
  536WAT    LP1 2679   5.819   2.831   3.341
  536WAT    LP2 2680   5.912   2.891   3.311
  537WAT     OW 2681   2.799   4.100   1.852
  537WAT    HW1 2682   2.718   4.090   1.902
  537WAT    HW2 2683   2.869   4.093   1.917
  537WAT    LP1 2684   2.805   4.050   1.804
  537WAT    LP2 2685   2.801   4.163   1.820
  538WAT     OW 2686   2.137   3.214   6.267
  538WAT    HW1 2687   2.160   3.143   6.327
  538WAT    HW2 2688   2.135   3.292   6.322
  538WAT    LP1 2689   2.186   3.220   6.217
  538WAT    LP2 2690   2.075   3.202   6.237
  539WAT     OW 2691   2.030   5.282   2.069
  539WAT    HW1 2692   1.949   5.333   2.068
  539WAT    HW2 2693   2.090   5.333   2.123
  539WAT    LP1 2694   2.018   5.219   2.097
  539WAT    LP2 2695   2.054   5.274   2.004
  540WAT     OW 2696   1.955   2.019   4.095
  540WAT    HW1 2697   1.957   2.114   4.084
  540WAT    HW2 2698   1.948   1.984   4.006
  540WAT    LP1 2699   2.014   1.997   4.126
  540WAT    LP2 2700   1.900   2.000   4.134
  541WAT     OW 2701   0.697   1.485   4.936
  541WAT    HW1 2702   0.673   1.405   4.890
  541WAT    HW2 2703   0.741   1.539   4.870
  541WAT    LP1 2704   0.640   1.518   4.960
  541WAT    LP2 2705   0.739   1.471   4.990
  542WAT     OW 2706   0.056   0.712   2.617
  542WAT    HW1 2707  -0.036   0.698   2.636
  542WAT    HW2 2708   0.075   0.798   2.655
  542WAT    LP1 2709   0.096   0.663   2.646
  542WAT    LP2 2710   0.067   0.713   2.548
  543WAT     OW 2711   3.537   0.691   0.328
  543WAT    HW1 2712   3.444   0.692   0.352
  543WAT    HW2 2713   3.575   0.765   0.375
  543WAT    LP1 2714   3.567   0.631   0.347
  543WAT    LP2 2715   3.544   0.700   0.259
  544WAT     OW 2716   2.952   2.537   0.608
  544WAT    HW1 2717   2.895   2.584   0.546
  544WAT    HW2 2718   2.934   2.444   0.590
  544WAT    LP1 2719   3.019   2.552   0.597
  544WAT    LP2 2720   2.935   2.553   0.674
  545WAT     OW 2721   0.233   2.964   0.158
  545WAT    HW1 2722   0.320   2.951   0.121
  545WAT    HW2 2723   0.244   2.953   0.252
  545WAT    LP1 2724   0.209   3.028   0.143
  545WAT    LP2 2725   0.188   2.916   0.133
  546WAT     OW 2726   4.428   2.095   2.816
  546WAT    HW1 2727   4.363   2.160   2.790
  546WAT    HW2 2728   4.381   2.038   2.879
  546WAT    LP1 2729   4.449   2.058   2.761
  546WAT    LP2 2730   4.483   2.125   2.847
  547WAT     OW 2731   1.163   6.246   5.720
  547WAT    HW1 2732   1.138   6.330   5.681
  547WAT    HW2 2733   1.081   6.201   5.736
  547WAT    LP1 2734   1.203   6.210   5.676
  547WAT    LP2 2735   1.198   6.256   5.780
  548WAT     OW 2736   3.610   5.470   5.041
  548WAT    HW1 2737   3.645   5.535   5.102
  548WAT    HW2 2738   3.638   5.501   4.954
  548WAT    LP1 2739   3.636   5.407   5.054
  548WAT    LP2 2740   3.540   5.468   5.045
  549WAT     OW 2741   4.949   3.355   0.239
  549WAT    HW1 2742   4.950   3.295   0.313
  549WAT    HW2 2743   5.040   3.384   0.230
  549WAT    LP1 2744   4.928   3.323   0.181
  549WAT    LP2 2745   4.907   3.409   0.252
  550WAT     OW 2746   4.179   1.847   4.815
  550WAT    HW1 2747   4.270   1.824   4.838
  550WAT    HW2 2748   4.135   1.763   4.805
  550WAT    LP1 2749   4.150   1.885   4.867
  550WAT    LP2 2750   4.177   1.884   4.756
  551WAT     OW 2751   3.860   3.634   2.433
  551WAT    HW1 2752   3.955   3.618   2.431
  551WAT    HW2 2753   3.835   3.620   2.525
  551WAT    LP1 2754   3.846   3.700   2.413
  551WAT    LP2 2755   3.827   3.589   2.391
  552WAT     OW 2756   6.363   3.701   5.049
  552WAT    HW1 2757   6.429   3.731   4.986
  552WAT    HW2 2758   6.379   3.607   5.058
  552WAT    LP1 2759   6.371   3.733   5.110
  552WAT    LP2 2760   6.299   3.712   5.024
  553WAT     OW 2761   1.810   4.739   3.570
  553WAT    HW1 2762   1.755   4.727   3.647
  553WAT    HW2 2763   1.812   4.833   3.556
  553WAT    LP1 2764   1.875   4.714   3.581
  553WAT    LP2 2765   1.782   4.706   3.515
  554WAT     OW 2766   5.248   1.225   5.845
  554WAT    HW1 2767   5.185   1.211   5.915
  554WAT    HW2 2768   5.197   1.268   5.776
  554WAT    LP1 2769   5.300   1.266   5.866
  554WAT    LP2 2770   5.273   1.164   5.822
  555WAT     OW 2771   4.590   5.919   3.509
  555WAT    HW1 2772   4.614   5.836   3.468
  555WAT    HW2 2773   4.495   5.915   3.520
  555WAT    LP1 2774   4.621   5.926   3.571
  555WAT    LP2 2775   4.608   5.973   3.468
  556WAT     OW 2776   4.789   5.234   2.160
  556WAT    HW1 2777   4.865   5.210   2.214
  556WAT    HW2 2778   4.724   5.167   2.181
  556WAT    LP1 2779   4.766   5.297   2.177
  556WAT    LP2 2780   4.806   5.232   2.092
  557WAT     OW 2781   4.033   6.492   0.668
  557WAT    HW1 2782   4.054   6.430   0.737
  557WAT    HW2 2783   4.076   6.458   0.590
  557WAT    LP1 2784   3.963   6.495   0.659
  557WAT    LP2 2785   4.057   6.556   0.684
  558WAT     OW 2786   0.366   4.722   3.876
  558WAT    HW1 2787   0.374   4.817   3.868
  558WAT    HW2 2788   0.423   4.687   3.808
  558WAT    LP1 2789   0.387   4.701   3.940
  558WAT    LP2 2790   0.300   4.701   3.866
  559WAT     OW 2791   0.425   5.191   3.217
  559WAT    HW1 2792   0.440   5.195   3.122
  559WAT    HW2 2793   0.331   5.208   3.227
  559WAT    LP1 2794   0.441   5.128   3.242
  559WAT    LP2 2795   0.462   5.240   3.250
  560WAT     OW 2796   2.896   5.128   1.247
  560WAT    HW1 2797   2.821   5.095   1.199
  560WAT    HW2 2798   2.971   5.078   1.213
  560WAT    LP1 2799   2.905   5.197   1.234
  560WAT    LP2 2800   2.889   5.118   1.316
  561WAT     OW 2801   2.242   0.925   4.486
  561WAT    HW1 2802   2.194   0.943   4.405
  561WAT    HW2 2803   2.333   0.914   4.458
  561WAT    LP1 2804   2.237   0.978   4.531
  561WAT    LP2 2805   2.219   0.866   4.516
  562WAT     OW 2806   1.760   2.282   5.781
  562WAT    HW1 2807   1.703   2.225   5.730
  562WAT    HW2 2808   1.833   2.226   5.807
  562WAT    LP1 2809   1.783   2.336   5.742
  562WAT    LP2 2810   1.727   2.307   5.838
  563WAT     OW 2811   4.557   5.295   3.282
  563WAT    HW1 2812   4.505   5.356   3.229
  563WAT    HW2 2813   4.495   5.259   3.345
  563WAT    LP1 2814   4.584   5.245   3.242
  563WAT    LP2 2815   4.609   5.329   3.314
  564WAT     OW 2816   1.711   1.613   2.274
  564WAT    HW1 2817   1.706   1.524   2.307
  564WAT    HW2 2818   1.715   1.668   2.352
  564WAT    LP1 2819   1.769   1.622   2.235
  564WAT    LP2 2820   1.654   1.628   2.235
  565WAT     OW 2821   3.299   3.921   4.983
  565WAT    HW1 2822   3.328   3.830   4.980
  565WAT    HW2 2823   3.355   3.962   5.049
  565WAT    LP1 2824   3.308   3.952   4.921
  565WAT    LP2 2825   3.232   3.925   5.002
  566WAT     OW 2826   3.231   5.842   0.301
  566WAT    HW1 2827   3.143   5.811   0.278
  566WAT    HW2 2828   3.218   5.892   0.382
  566WAT    LP1 2829   3.274   5.789   0.311
  566WAT    LP2 2830   3.256   5.884   0.251
  567WAT     OW 2831   5.033   5.039   0.305
  567WAT    HW1 2832   5.071   5.036   0.393
  567WAT    HW2 2833   5.097   4.993   0.251
  567WAT    LP1 2834   4.971   5.007   0.303
  567WAT    LP2 2835   5.026   5.105   0.284
  568WAT     OW 2836   2.337   0.537   2.592
  568WAT    HW1 2837   2.263   0.513   2.535
  568WAT    HW2 2838   2.395   0.586   2.535
  568WAT    LP1 2839   2.315   0.576   2.645
  568WAT    LP2 2840   2.368   0.479   2.616
  569WAT     OW 2841   4.432   2.035   1.173
  569WAT    HW1 2842   4.400   1.950   1.144
  569WAT    HW2 2843   4.464   2.020   1.262
  569WAT    LP1 2844   4.483   2.058   1.132
  569WAT    LP2 2845   4.379   2.082   1.174
  570WAT     OW 2846   0.700   5.838   5.635
  570WAT    HW1 2847   0.749   5.854   5.716
  570WAT    HW2 2848   0.699   5.923   5.590
  570WAT    LP1 2849   0.733   5.790   5.596
  570WAT    LP2 2850   0.635   5.817   5.649
  571WAT     OW 2851   3.569   0.134   3.731
  571WAT    HW1 2852   3.563   0.171   3.819
  571WAT    HW2 2853   3.636   0.066   3.737
  571WAT    LP1 2854   3.508   0.105   3.712
  571WAT    LP2 2855   3.587   0.183   3.685
  572WAT     OW 2856   5.433   4.266   5.114
  572WAT    HW1 2857   5.421   4.343   5.169
  572WAT    HW2 2858   5.384   4.286   5.034
  572WAT    LP1 2859   5.500   4.256   5.099
  572WAT    LP2 2860   5.407   4.209   5.145
  573WAT     OW 2861   0.495   6.372   4.976
  573WAT    HW1 2862   0.576   6.371   4.926
  573WAT    HW2 2863   0.426   6.369   4.910
  573WAT    LP1 2864   0.491   6.316   5.018
  573WAT    LP2 2865   0.490   6.430   5.014
  574WAT     OW 2866   1.552   1.393   3.460
  574WAT    HW1 2867   1.545   1.343   3.379
  574WAT    HW2 2868   1.644   1.387   3.484
  574WAT    LP1 2869   1.533   1.460   3.450
  574WAT    LP2 2870   1.512   1.365   3.510
  575WAT     OW 2871   5.015   4.508   5.921
  575WAT    HW1 2872   5.043   4.569   5.852
  575WAT    HW2 2873   4.945   4.554   5.967
  575WAT    LP1 2874   4.991   4.448   5.893
  575WAT    LP2 2875   5.068   4.494   5.964
  576WAT     OW 2876   1.312   5.988   0.632
  576WAT    HW1 2877   1.350   5.941   0.707
  576WAT    HW2 2878   1.313   6.080   0.659
  576WAT    LP1 2879   1.351   5.978   0.575
  576WAT    LP2 2880   1.247   5.966   0.620
  577WAT     OW 2881   0.499   5.678   4.498
  577WAT    HW1 2882   0.520   5.713   4.584
  577WAT    HW2 2883   0.416   5.719   4.475
  577WAT    LP1 2884   0.548   5.694   4.451
  577WAT    LP2 2885   0.492   5.608   4.501
  578WAT     OW 2886   6.248   1.133   2.401
  578WAT    HW1 2887   6.279   1.106   2.487
  578WAT    HW2 2888   6.189   1.206   2.419
  578WAT    LP1 2889   6.302   1.154   2.361
  578WAT    LP2 2890   6.214   1.081   2.369
  579WAT     OW 2891   5.634   5.963   0.678
  579WAT    HW1 2892   5.636   5.950   0.773
  579WAT    HW2 2893   5.626   5.875   0.642
  579WAT    LP1 2894   5.579   6.002   0.660
  579WAT    LP2 2895   5.693   5.994   0.656
  580WAT     OW 2896   6.190   0.150   3.379
  580WAT    HW1 2897   6.225   0.068   3.414
  580WAT    HW2 2898   6.194   0.139   3.284
  580WAT    LP1 2899   6.124   0.159   3.400
  580WAT    LP2 2900   6.229   0.204   3.399
  581WAT     OW 2901   5.234   1.861   5.652
  581WAT    HW1 2902   5.266   1.771   5.660
  581WAT    HW2 2903   5.314   1.913   5.641
  581WAT    LP1 2904   5.193   1.868   5.596
  581WAT    LP2 2905   5.200   1.881   5.710
  582WAT     OW 2906   3.338   5.461   5.014
  582WAT    HW1 2907   3.308   5.377   5.051
  582WAT    HW2 2908   3.434   5.456   5.020
  582WAT    LP1 2909   3.318   5.468   4.948
  582WAT    LP2 2910   3.314   5.514   5.052
  583WAT     OW 2911   3.590   1.031   1.262
  583WAT    HW1 2912   3.547   1.043   1.347
  583WAT    HW2 2913   3.538   1.081   1.200
  583WAT    LP1 2914   3.656   1.055   1.265
  583WAT    LP2 2915   3.591   0.963   1.245
  584WAT     OW 2916   0.865   0.141   1.866
  584WAT    HW1 2917   0.885   0.179   1.952
  584WAT    HW2 2918   0.887   0.211   1.804
  584WAT    LP1 2919   0.904   0.084   1.854
  584WAT    LP2 2920   0.797   0.124   1.861
  585WAT     OW 2921   2.066   1.735   1.965
  585WAT    HW1 2922   2.083   1.717   1.873
  585WAT    HW2 2923   1.991   1.680   1.988
  585WAT    LP1 2924   2.122   1.718   2.004
  585WAT    LP2 2925   2.050   1.803   1.974
  586WAT     OW 2926   2.054   1.801   6.173
  586WAT    HW1 2927   2.072   1.765   6.259
  586WAT    HW2 2928   2.049   1.896   6.187
  586WAT    LP1 2929   2.106   1.786   6.129
  586WAT    LP2 2930   1.994   1.777   6.147
  587WAT     OW 2931   2.261   2.310   3.360
  587WAT    HW1 2932   2.188   2.372   3.366
  587WAT    HW2 2933   2.258   2.279   3.269
  587WAT    LP1 2934   2.322   2.341   3.374
  587WAT    LP2 2935   2.251   2.256   3.404
  588WAT     OW 2936   0.638   1.447   6.016
  588WAT    HW1 2937   0.632   1.498   6.097
  588WAT    HW2 2938   0.662   1.359   6.045
  588WAT    LP1 2939   0.576   1.445   5.984
  588WAT    LP2 2940   0.686   1.473   5.973
  589WAT     OW 2941   0.500   0.637   5.476
  589WAT    HW1 2942   0.528   0.702   5.541
  589WAT    HW2 2943   0.433   0.586   5.522
  589WAT    LP1 2944   0.473   0.669   5.420
  589WAT    LP2 2945   0.553   0.597   5.457
  590WAT     OW 2946   1.471   1.224   2.981
  590WAT    HW1 2947   1.487   1.214   3.075
  590WAT    HW2 2948   1.429   1.142   2.955
  590WAT    LP1 2949   1.429   1.278   2.969
  590WAT    LP2 2950   1.531   1.233   2.946
  591WAT     OW 2951   0.728   4.803   5.338
  591WAT    HW1 2952   0.807   4.789   5.389
  591WAT    HW2 2953   0.694   4.888   5.369
  591WAT    LP1 2954   0.742   4.806   5.270
  591WAT    LP2 2955   0.681   4.753   5.351
  592WAT     OW 2956   1.683   0.019   0.518
  592WAT    HW1 2957   1.739   0.096   0.514
  592WAT    HW2 2958   1.731  -0.042   0.574
  592WAT    LP1 2959   1.621   0.035   0.546
  592WAT    LP2 2960   1.674  -0.008   0.454
  593WAT     OW 2961   1.318   4.267   1.779
  593WAT    HW1 2962   1.324   4.322   1.701
  593WAT    HW2 2963   1.242   4.211   1.763
  593WAT    LP1 2964   1.376   4.229   1.787
  593WAT    LP2 2965   1.308   4.306   1.836
  594WAT     OW 2966   4.274   3.173   6.352
  594WAT    HW1 2967   4.238   3.244   6.299
  594WAT    HW2 2968   4.198   3.118   6.372
  594WAT    LP1 2969   4.322   3.136   6.317
  594WAT    LP2 2970   4.302   3.198   6.411
  595WAT     OW 2971   3.200   4.219   2.214
  595WAT    HW1 2972   3.243   4.290   2.261
  595WAT    HW2 2973   3.224   4.140   2.261
  595WAT    LP1 2974   3.130   4.228   2.214
  595WAT    LP2 2975   3.222   4.216   2.148
  596WAT     OW 2976   2.780   1.058   2.758
  596WAT    HW1 2977   2.797   1.061   2.852
  596WAT    HW2 2978   2.827   1.133   2.723
  596WAT    LP1 2979   2.804   0.998   2.730
  596WAT    LP2 2980   2.711   1.063   2.745
  597WAT     OW 2981   4.028   1.896   4.379
  597WAT    HW1 2982   4.060   1.965   4.320
  597WAT    HW2 2983   4.064   1.919   4.465
  597WAT    LP1 2984   3.958   1.896   4.381
  597WAT    LP2 2985   4.051   1.834   4.358
  598WAT     OW 2986   3.566   5.182   2.720
  598WAT    HW1 2987   3.524   5.143   2.643
  598WAT    HW2 2988   3.651   5.138   2.725
  598WAT    LP1 2989   3.574   5.251   2.712
  598WAT    LP2 2990   3.529   5.169   2.778
  599WAT     OW 2991   2.037   1.645   3.999
  599WAT    HW1 2992   2.022   1.605   3.913
  599WAT    HW2 2993   2.064   1.572   4.055
  599WAT    LP1 2994   2.087   1.693   3.995
  599WAT    LP2 2995   1.978   1.674   4.024
  600WAT     OW 2996   6.147   0.789   3.874
  600WAT    HW1 2997   6.094   0.738   3.812
  600WAT    HW2 2998   6.092   0.798   3.951
  600WAT    LP1 2999   6.206   0.754   3.890
  600WAT    LP2 3000   6.164   0.851   3.847
  601WAT     OW 3001   0.681   5.544   0.694
  601WAT    HW1 3002   0.757   5.508   0.739
  601WAT    HW2 3003   0.714   5.571   0.608
  601WAT    LP1 3004   0.631   5.496   0.687
  601WAT    LP2 3005   0.655   5.599   0.729
  602WAT     OW 3006   2.634   5.122   1.640
  602WAT    HW1 3007   2.595   5.207   1.620
  602WAT    HW2 3008   2.714   5.119   1.587
  602WAT    LP1 3009   2.650   5.117   1.708
  602WAT    LP2 3010   2.591   5.070   1.622
  603WAT     OW 3011   1.427   0.601   5.779
  603WAT    HW1 3012   1.375   0.625   5.702
  603WAT    HW2 3013   1.513   0.578   5.744
  603WAT    LP1 3014   1.432   0.655   5.824
  603WAT    LP2 3015   1.398   0.546   5.812
  604WAT     OW 3016   0.392   6.594   2.717
  604WAT    HW1 3017   0.441   6.512   2.711
  604WAT    HW2 3018   0.301   6.569   2.701
  604WAT    LP1 3019   0.399   6.622   2.781
  604WAT    LP2 3020   0.414   6.639   2.669
  605WAT     OW 3021   5.626   2.010   1.489
  605WAT    HW1 3022   5.635   1.955   1.566
  605WAT    HW2 3023   5.710   2.056   1.482
  605WAT    LP1 3024   5.614   1.971   1.432
  605WAT    LP2 3025   5.573   2.056   1.497
  606WAT     OW 3026   5.027   4.527   1.540
  606WAT    HW1 3027   4.977   4.608   1.525
  606WAT    HW2 3028   5.068   4.509   1.456
  606WAT    LP1 3029   5.075   4.537   1.590
  606WAT    LP2 3030   4.984   4.475   1.559
  607WAT     OW 3031   4.283   4.342   1.192
  607WAT    HW1 3032   4.365   4.375   1.155
  607WAT    HW2 3033   4.307   4.311   1.279
  607WAT    LP1 3034   4.236   4.394   1.197
  607WAT    LP2 3035   4.257   4.291   1.153
  608WAT     OW 3036   2.197   3.549   4.845
  608WAT    HW1 3037   2.151   3.549   4.762
  608WAT    HW2 3038   2.289   3.562   4.822
  608WAT    LP1 3039   2.174   3.602   4.886
  608WAT    LP2 3040   2.188   3.489   4.879
  609WAT     OW 3041   1.187   3.586   3.462
  609WAT    HW1 3042   1.170   3.506   3.412
  609WAT    HW2 3043   1.127   3.650   3.425
  609WAT    LP1 3044   1.173   3.576   3.530
  609WAT    LP2 3045   1.253   3.607   3.454
  610WAT     OW 3046   0.090   4.114   1.747
  610WAT    HW1 3047   0.166   4.086   1.697
  610WAT    HW2 3048   0.021   4.126   1.682
  610WAT    LP1 3049   0.071   4.066   1.794
  610WAT    LP2 3050   0.103   4.175   1.780
  611WAT     OW 3051   5.394   3.484   4.492
  611WAT    HW1 3052   5.423   3.395   4.474
  611WAT    HW2 3053   5.399   3.528   4.407
  611WAT    LP1 3054   5.329   3.485   4.516
  611WAT    LP2 3055   5.437   3.515   4.538
  612WAT     OW 3056   4.695   1.528   2.036
  612WAT    HW1 3057   4.756   1.600   2.048
  612WAT    HW2 3058   4.749   1.456   2.004
  612WAT    LP1 3059   4.664   1.511   2.097
  612WAT    LP2 3060   4.645   1.545   1.989
  613WAT     OW 3061   1.572   1.476   5.444
  613WAT    HW1 3062   1.632   1.549   5.455
  613WAT    HW2 3063   1.557   1.471   5.350
  613WAT    LP1 3064   1.601   1.416   5.467
  613WAT    LP2 3065   1.512   1.488   5.478
  614WAT     OW 3066   0.195   3.649   1.065
  614WAT    HW1 3067   0.277   3.698   1.069
  614WAT    HW2 3068   0.211   3.582   0.998
  614WAT    LP1 3069   0.180   3.619   1.126
  614WAT    LP2 3070   0.142   3.691   1.045
  615WAT     OW 3071   6.107   1.903   6.192
  615WAT    HW1 3072   6.064   1.961   6.254
  615WAT    HW2 3073   6.064   1.920   6.108
  615WAT    LP1 3074   6.175   1.917   6.188
  615WAT    LP2 3075   6.099   1.836   6.211
  616WAT     OW 3076   1.976   5.849   3.649
  616WAT    HW1 3077   1.991   5.886   3.736
  616WAT    HW2 3078   2.000   5.756   3.658
  616WAT    LP1 3079   1.909   5.855   3.631
  616WAT    LP2 3080   2.016   5.880   3.601
  617WAT     OW 3081   4.776   2.746   5.389
  617WAT    HW1 3082   4.845   2.692   5.352
  617WAT    HW2 3083   4.778   2.826   5.338
  617WAT    LP1 3084   4.714   2.714   5.383
  617WAT    LP2 3085   4.788   2.759   5.457
  618WAT     OW 3086   1.565   1.109   3.856
  618WAT    HW1 3087   1.581   1.066   3.940
  618WAT    HW2 3088   1.473   1.090   3.837
  618WAT    LP1 3089   1.576   1.178   3.861
  618WAT    LP2 3090   1.606   1.082   3.806
  619WAT     OW 3091   6.143   0.690   0.862
  619WAT    HW1 3092   6.149   0.745   0.940
  619WAT    HW2 3093   6.196   0.735   0.796
  619WAT    LP1 3094   6.170   0.626   0.874
  619WAT    LP2 3095   6.077   0.684   0.840
  620WAT     OW 3096   0.819   2.204   6.345
  620WAT    HW1 3097   0.787   2.263   6.414
  620WAT    HW2 3098   0.739   2.164   6.309
  620WAT    LP1 3099   0.853   2.239   6.296
  620WAT    LP2 3100   0.860   2.154   6.373
  621WAT     OW 3101   4.368   0.481   4.890
  621WAT    HW1 3102   4.453   0.522   4.907
  621WAT    HW2 3103   4.359   0.416   4.960
  621WAT    LP1 3104   4.316   0.527   4.892
  621WAT    LP2 3105   4.368   0.449   4.827
  622WAT     OW 3106   2.680   0.400   1.710
  622WAT    HW1 3107   2.673   0.316   1.665
  622WAT    HW2 3108   2.590   0.431   1.717
  622WAT    LP1 3109   2.709   0.392   1.773
  622WAT    LP2 3110   2.719   0.445   1.672
  623WAT     OW 3111   2.104   5.295   5.473
  623WAT    HW1 3112   2.160   5.218   5.468
  623WAT    HW2 3113   2.122   5.333   5.559
  623WAT    LP1 3114   2.119   5.340   5.422
  623WAT    LP2 3115   2.036   5.277   5.468
  624WAT     OW 3116   6.077   0.800   0.493
  624WAT    HW1 3117   6.029   0.883   0.493
  624WAT    HW2 3118   6.143   0.811   0.561
  624WAT    LP1 3119   6.034   0.747   0.509
  624WAT    LP2 3120   6.106   0.788   0.431
  625WAT     OW 3121   2.038   4.454   0.373
  625WAT    HW1 3122   2.101   4.512   0.415
  625WAT    HW2 3123   1.962   4.510   0.356
  625WAT    LP1 3124   2.063   4.428   0.314
  625WAT    LP2 3125   2.020   4.402   0.416
  626WAT     OW 3126   4.655   0.744   6.110
  626WAT    HW1 3127   4.696   0.736   6.196
  626WAT    HW2 3128   4.561   0.746   6.128
  626WAT    LP1 3129   4.675   0.803   6.078
  626WAT    LP2 3130   4.671   0.689   6.070
  627WAT     OW 3131   0.427   4.019   0.524
  627WAT    HW1 3132   0.474   3.940   0.496
  627WAT    HW2 3133   0.491   4.067   0.576
  627WAT    LP1 3134   0.408   4.057   0.468
  627WAT    LP2 3135   0.371   4.003   0.562
  628WAT     OW 3136   4.986   1.473   6.056
  628WAT    HW1 3137   5.024   1.512   6.134
  628WAT    HW2 3138   5.010   1.533   5.985
  628WAT    LP1 3139   5.013   1.409   6.045
  628WAT    LP2 3140   4.917   1.468   6.062
  629WAT     OW 3141   0.060   5.345   1.929
  629WAT    HW1 3142   0.033   5.398   1.853
  629WAT    HW2 3143   0.058   5.406   2.002
  629WAT    LP1 3144   0.015   5.292   1.939
  629WAT    LP2 3145   0.124   5.319   1.919
  630WAT     OW 3146   2.741   6.546   2.050
  630WAT    HW1 3147   2.737   6.523   2.142
  630WAT    HW2 3148   2.834   6.549   2.029
  630WAT    LP1 3149   2.709   6.498   2.011
  630WAT    LP2 3150   2.711   6.609   2.038
  631WAT     OW 3151   4.602   1.416   2.268
  631WAT    HW1 3152   4.641   1.453   2.189
  631WAT    HW2 3153   4.667   1.431   2.337
  631WAT    LP1 3154   4.542   1.448   2.284
  631WAT    LP2 3155   4.591   1.347   2.261
  632WAT     OW 3156   1.415   2.036   6.281
  632WAT    HW1 3157   1.427   2.102   6.349
  632WAT    HW2 3158   1.430   1.953   6.326
  632WAT    LP1 3159   1.350   2.039   6.255
  632WAT    LP2 3160   1.461   2.045   6.229
  633WAT     OW 3161   4.993   3.814   5.869
  633WAT    HW1 3162   4.945   3.878   5.817
  633WAT    HW2 3163   4.935   3.795   5.943
  633WAT    LP1 3164   5.005   3.756   5.831
  633WAT    LP2 3165   5.054   3.841   5.891
  634WAT     OW 3166   1.703   1.730   3.379
  634WAT    HW1 3167   1.629   1.710   3.321
  634WAT    HW2 3168   1.675   1.696   3.465
  634WAT    LP1 3169   1.761   1.697   3.358
  634WAT    LP2 3170   1.714   1.799   3.382
  635WAT     OW 3171   4.850   6.281   4.986
  635WAT    HW1 3172   4.787   6.271   5.057
  635WAT    HW2 3173   4.926   6.323   5.026
  635WAT    LP1 3174   4.868   6.219   4.959
  635WAT    LP2 3175   4.824   6.321   4.935
  636WAT     OW 3176   4.662   1.056   1.001
  636WAT    HW1 3177   4.618   0.971   1.006
  636WAT    HW2 3178   4.732   1.051   1.067
  636WAT    LP1 3179   4.690   1.066   0.937
  636WAT    LP2 3180   4.618   1.108   1.015
  637WAT     OW 3181   6.717   2.989   0.431
  637WAT    HW1 3182   6.715   2.900   0.467
  637WAT    HW2 3183   6.675   2.981   0.346
  637WAT    LP1 3184   6.681   3.033   0.472
  637WAT    LP2 3185   6.783   3.012   0.425
  638WAT     OW 3186   3.509   3.075   1.336
  638WAT    HW1 3187   3.531   3.159   1.378
  638WAT    HW2 3188   3.500   3.097   1.243
  638WAT    LP1 3189   3.559   3.028   1.346
  638WAT    LP2 3190   3.448   3.050   1.361
  639WAT     OW 3191   6.718   4.094   3.309
  639WAT    HW1 3192   6.731   4.187   3.330
  639WAT    HW2 3193   6.689   4.056   3.392
  639WAT    LP1 3194   6.669   4.087   3.260
  639WAT    LP2 3195   6.777   4.065   3.288
  640WAT     OW 3196   6.425   2.198   4.598
  640WAT    HW1 3197   6.331   2.215   4.606
  640WAT    HW2 3198   6.443   2.132   4.665
  640WAT    LP1 3199   6.441   2.174   4.534
  640WAT    LP2 3200   6.462   2.257   4.611
  641WAT     OW 3201   2.433   4.445   4.646
  641WAT    HW1 3202   2.480   4.506   4.703
  641WAT    HW2 3203   2.474   4.360   4.662
  641WAT    LP1 3204   2.365   4.443   4.662
  641WAT    LP2 3205   2.441   4.464   4.579
  642WAT     OW 3206   2.174   2.086   5.661
  642WAT    HW1 3207   2.224   2.161   5.693
  642WAT    HW2 3208   2.183   2.090   5.565
  642WAT    LP1 3209   2.201   2.026   5.685
  642WAT    LP2 3210   2.107   2.092   5.680
  643WAT     OW 3211   6.669   0.017   0.627
  643WAT    HW1 3212   6.659   0.092   0.686
  643WAT    HW2 3213   6.764   0.008   0.617
  643WAT    LP1 3214   6.642  -0.040   0.656
  643WAT    LP2 3215   6.638   0.030   0.566
  644WAT     OW 3216   1.858   1.875   3.088
  644WAT    HW1 3217   1.824   1.807   3.146
  644WAT    HW2 3218   1.953   1.868   3.096
  644WAT    LP1 3219   1.838   1.862   3.022
  644WAT    LP2 3220   1.836   1.938   3.108
  645WAT     OW 3221   1.330   5.326   0.911
  645WAT    HW1 3222   1.379   5.375   0.978
  645WAT    HW2 3223   1.350   5.371   0.829
  645WAT    LP1 3224   1.350   5.259   0.909
  645WAT    LP2 3225   1.261   5.329   0.924
  646WAT     OW 3226   5.980   0.359   5.396
  646WAT    HW1 3227   5.982   0.436   5.453
  646WAT    HW2 3228   6.061   0.366   5.345
  646WAT    LP1 3229   5.979   0.300   5.433
  646WAT    LP2 3230   5.924   0.361   5.354
  647WAT     OW 3231   0.034   6.678   3.854
  647WAT    HW1 3232  -0.005   6.664   3.768
  647WAT    HW2 3233   0.060   6.770   3.854
  647WAT    LP1 3234  -0.013   6.666   3.905
  647WAT    LP2 3235   0.089   6.636   3.864
  648WAT     OW 3236   2.286   6.031   6.327
  648WAT    HW1 3237   2.352   6.045   6.259
  648WAT    HW2 3238   2.270   6.118   6.363
  648WAT    LP1 3239   2.227   6.004   6.299
  648WAT    LP2 3240   2.310   5.987   6.376
  649WAT     OW 3241   0.912   3.339   6.303
  649WAT    HW1 3242   0.989   3.296   6.266
  649WAT    HW2 3243   0.888   3.406   6.240
  649WAT    LP1 3244   0.860   3.293   6.312
  649WAT    LP2 3245   0.928   3.368   6.365
  650WAT     OW 3246   0.314   2.892   1.589
  650WAT    HW1 3247   0.383   2.846   1.637
  650WAT    HW2 3248   0.287   2.963   1.648
  650WAT    LP1 3249   0.338   2.918   1.529
  650WAT    LP2 3250   0.260   2.850   1.576
  651WAT     OW 3251   2.016   0.157   4.076
  651WAT    HW1 3252   1.940   0.213   4.060
  651WAT    HW2 3253   1.986   0.093   4.140
  651WAT    LP1 3254   2.036   0.125   4.017
  651WAT    LP2 3255   2.069   0.195   4.101
  652WAT     OW 3256   3.728   0.731   4.946
  652WAT    HW1 3257   3.771   0.699   5.025
  652WAT    HW2 3258   3.693   0.816   4.971
  652WAT    LP1 3259   3.774   0.736   4.894
  652WAT    LP2 3260   3.676   0.687   4.928
  653WAT     OW 3261   1.650   3.275   2.037
  653WAT    HW1 3262   1.698   3.211   1.985
  653WAT    HW2 3263   1.565   3.234   2.053
  653WAT    LP1 3264   1.683   3.287   2.098
  653WAT    LP2 3265   1.642   3.335   2.002
  654WAT     OW 3266   1.289   0.792   3.141
  654WAT    HW1 3267   1.285   0.715   3.198
  654WAT    HW2 3268   1.283   0.757   3.052
  654WAT    LP1 3269   1.236   0.836   3.154
  654WAT    LP2 3270   1.350   0.825   3.150
  655WAT     OW 3271   5.369   5.862   3.518
  655WAT    HW1 3272   5.329   5.887   3.601
  655WAT    HW2 3273   5.365   5.767   3.516
  655WAT    LP1 3274   5.334   5.890   3.464
  655WAT    LP2 3275   5.436   5.884   3.515
  656WAT     OW 3276   1.828   3.931   0.168
  656WAT    HW1 3277   1.894   3.932   0.236
  656WAT    HW2 3278   1.878   3.930   0.086
  656WAT    LP1 3279   1.788   3.873   0.172
  656WAT    LP2 3280   1.787   3.987   0.171
  657WAT     OW 3281   3.859   4.941   3.961
  657WAT    HW1 3282   3.793   4.897   4.016
  657WAT    HW2 3283   3.808   4.985   3.893
  657WAT    LP1 3284   3.895   4.987   3.999
  657WAT    LP2 3285   3.903   4.894   3.933
  658WAT     OW 3286   2.747   4.693   1.149
  658WAT    HW1 3287   2.816   4.627   1.148
  658WAT    HW2 3288   2.694   4.675   1.071
  658WAT    LP1 3289   2.708   4.688   1.207
  658WAT    LP2 3290   2.774   4.758   1.145
  659WAT     OW 3291   5.581   3.621   2.004
  659WAT    HW1 3292   5.537   3.701   2.035
  659WAT    HW2 3293   5.605   3.575   2.085
  659WAT    LP1 3294   5.538   3.583   1.965
  659WAT    LP2 3295   5.638   3.638   1.967
  660WAT     OW 3296   4.028   4.187   6.456
  660WAT    HW1 3297   4.111   4.205   6.500
  660WAT    HW2 3298   3.963   4.185   6.527
  660WAT    LP1 3299   4.013   4.237   6.410
  660WAT    LP2 3300   4.030   4.125   6.424
  661WAT     OW 3301   1.565   0.013   0.961
  661WAT    HW1 3302   1.614   0.032   1.041
  661WAT    HW2 3303   1.582   0.087   0.903
  661WAT    LP1 3304   1.587  -0.046   0.932
  661WAT    LP2 3305   1.496   0.008   0.975
  662WAT     OW 3306   0.772   4.322   1.112
  662WAT    HW1 3307   0.704   4.356   1.055
  662WAT    HW2 3308   0.725   4.268   1.176
  662WAT    LP1 3309   0.817   4.283   1.076
  662WAT    LP2 3310   0.807   4.374   1.144
  663WAT     OW 3311   4.221   0.706   6.365
  663WAT    HW1 3312   4.192   0.636   6.423
  663WAT    HW2 3313   4.266   0.768   6.422
  663WAT    LP1 3314   4.265   0.681   6.317
  663WAT    LP2 3315   4.167   0.736   6.333
  664WAT     OW 3316   4.184   4.537   1.649
  664WAT    HW1 3317   4.124   4.579   1.587
  664WAT    HW2 3318   4.134   4.464   1.685
  664WAT    LP1 3319   4.241   4.514   1.616
  664WAT    LP2 3320   4.202   4.582   1.700
  665WAT     OW 3321   6.049   4.660   6.380
  665WAT    HW1 3322   5.977   4.723   6.388
  665WAT    HW2 3323   6.008   4.575   6.397
  665WAT    LP1 3324   6.077   4.662   6.316
  665WAT    LP2 3325   6.099   4.673   6.428
  666WAT     OW 3326   0.606   0.423   4.241
  666WAT    HW1 3327   0.688   0.374   4.236
  666WAT    HW2 3328   0.539   0.356   4.258
  666WAT    LP1 3329   0.608   0.470   4.292
  666WAT    LP2 3330   0.593   0.455   4.180
  667WAT     OW 3331   0.796   0.850   4.161
  667WAT    HW1 3332   0.729   0.784   4.144
  667WAT    HW2 3333   0.795   0.861   4.256
  667WAT    LP1 3334   0.859   0.828   4.140
  667WAT    LP2 3335   0.780   0.910   4.129
  668WAT     OW 3336   1.899   5.601   5.511
  668WAT    HW1 3337   1.876   5.547   5.586
  668WAT    HW2 3338   1.818   5.610   5.461
  668WAT    LP1 3339   1.923   5.664   5.531
  668WAT    LP2 3340   1.948   5.570   5.472
  669WAT     OW 3341   0.356   6.073   0.814
  669WAT    HW1 3342   0.318   6.161   0.820
  669WAT    HW2 3343   0.281   6.016   0.793
  669WAT    LP1 3344   0.404   6.070   0.763
  669WAT    LP2 3345   0.385   6.054   0.875
  670WAT     OW 3346   5.918   1.723   1.933
  670WAT    HW1 3347   5.922   1.810   1.973
  670WAT    HW2 3348   5.977   1.670   1.986
  670WAT    LP1 3349   5.852   1.698   1.936
  670WAT    LP2 3350   5.939   1.725   1.866
  671WAT     OW 3351   6.780   6.246   4.103
  671WAT    HW1 3352   6.745   6.327   4.066
  671WAT    HW2 3353   6.706   6.186   4.103
  671WAT    LP1 3354   6.832   6.221   4.063
  671WAT    LP2 3355   6.804   6.256   4.168
  672WAT     OW 3356   1.465   2.923   0.339
  672WAT    HW1 3357   1.512   2.847   0.373
  672WAT    HW2 3358   1.513   2.947   0.259
  672WAT    LP1 3359   1.399   2.906   0.323
  672WAT    LP2 3360   1.466   2.976   0.385
  673WAT     OW 3361   4.652   5.670   3.412
  673WAT    HW1 3362   4.739   5.642   3.384
  673WAT    HW2 3363   4.632   5.615   3.488
  673WAT    LP1 3364   4.652   5.738   3.430
  673WAT    LP2 3365   4.605   5.660   3.361
  674WAT     OW 3366   3.411   5.199   3.369
  674WAT    HW1 3367   3.488   5.161   3.327
  674WAT    HW2 3368   3.396   5.144   3.446
  674WAT    LP1 3369   3.423   5.265   3.388
  674WAT    LP2 3370   3.356   5.197   3.326
  675WAT     OW 3371   3.052   2.633   0.175
  675WAT    HW1 3372   2.984   2.671   0.119
  675WAT    HW2 3373   3.133   2.642   0.124
  675WAT    LP1 3374   3.057   2.667   0.235
  675WAT    LP2 3375   3.039   2.565   0.187
  676WAT     OW 3376   3.729   2.225   5.871
  676WAT    HW1 3377   3.740   2.281   5.794
  676WAT    HW2 3378   3.660   2.269   5.922
  676WAT    LP1 3379   3.709   2.161   5.853
  676WAT    LP2 3380   3.788   2.222   5.908
  677WAT     OW 3381   4.691   4.769   2.136
  677WAT    HW1 3382   4.670   4.763   2.229
  677WAT    HW2 3383   4.629   4.710   2.093
  677WAT    LP1 3384   4.683   4.835   2.113
  677WAT    LP2 3385   4.757   4.749   2.124
  678WAT     OW 3386   0.792   3.134   4.591
  678WAT    HW1 3387   0.715   3.166   4.544
  678WAT    HW2 3388   0.781   3.039   4.594
  678WAT    LP1 3389   0.851   3.152   4.557
  678WAT    LP2 3390   0.794   3.161   4.656
  679WAT     OW 3391   5.493   2.492   2.425
  679WAT    HW1 3392   5.493   2.539   2.342
  679WAT    HW2 3393   5.574   2.439   2.423
  679WAT    LP1 3394   5.494   2.536   2.479
  679WAT    LP2 3395   5.437   2.450   2.430
  680WAT     OW 3396   0.471   3.725   2.313
  680WAT    HW1 3397   0.445   3.691   2.227
  680WAT    HW2 3398   0.523   3.803   2.293
  680WAT    LP1 3399   0.414   3.743   2.350
  680WAT    LP2 3400   0.508   3.678   2.348
  681WAT     OW 3401   2.670   6.194   5.939
  681WAT    HW1 3402   2.616   6.174   5.863
  681WAT    HW2 3403   2.754   6.152   5.922
  681WAT    LP1 3404   2.678   6.264   5.946
  681WAT    LP2 3405   2.641   6.169   5.998
  682WAT     OW 3406   1.272   2.167   2.451
  682WAT    HW1 3407   1.240   2.080   2.473
  682WAT    HW2 3408   1.366   2.156   2.441
  682WAT    LP1 3409   1.243   2.190   2.392
  682WAT    LP2 3410   1.258   2.212   2.503
  683WAT     OW 3411   3.907   3.610   3.393
  683WAT    HW1 3412   3.951   3.530   3.422
  683WAT    HW2 3413   3.967   3.649   3.329
  683WAT    LP1 3414   3.845   3.595   3.364
  683WAT    LP2 3415   3.897   3.653   3.447
  684WAT     OW 3416   4.661   3.499   1.884
  684WAT    HW1 3417   4.668   3.556   1.961
  684WAT    HW2 3418   4.726   3.534   1.823
  684WAT    LP1 3419   4.676   3.433   1.901
  684WAT    LP2 3420   4.597   3.502   1.856
  685WAT     OW 3421   0.710   1.203   6.118
  685WAT    HW1 3422   0.712   1.213   6.213
  685WAT    HW2 3423   0.790   1.155   6.097
  685WAT    LP1 3424   0.653   1.167   6.098
  685WAT    LP2 3425   0.710   1.266   6.086
  686WAT     OW 3426   3.401   5.699   6.456
  686WAT    HW1 3427   3.331   5.718   6.393
  686WAT    HW2 3428   3.355   5.674   6.536
  686WAT    LP1 3429   3.442   5.647   6.434
  686WAT    LP2 3430   3.440   5.756   6.467
  687WAT     OW 3431   3.104   0.650   2.316
  687WAT    HW1 3432   3.020   0.692   2.336
  687WAT    HW2 3433   3.149   0.645   2.400
  687WAT    LP1 3434   3.094   0.586   2.289
  687WAT    LP2 3435   3.141   0.689   2.270
  688WAT     OW 3436   2.118   4.950   3.016
  688WAT    HW1 3437   2.150   5.020   2.959
  688WAT    HW2 3438   2.184   4.944   3.085
  688WAT    LP1 3439   2.055   4.965   3.042
  688WAT    LP2 3440   2.115   4.889   2.980
  689WAT     OW 3441   6.284   6.406   5.243
  689WAT    HW1 3442   6.189   6.404   5.256
  689WAT    HW2 3443   6.320   6.396   5.332
  689WAT    LP1 3444   6.304   6.352   5.203
  689WAT    LP2 3445   6.304   6.466   5.215
  690WAT     OW 3446   4.626   4.375   2.732
  690WAT    HW1 3447   4.651   4.432   2.659
  690WAT    HW2 3448   4.693   4.391   2.798
  690WAT    LP1 3449   4.563   4.391   2.756
  690WAT    LP2 3450   4.627   4.308   2.711
  691WAT     OW 3451   2.878   5.124   2.839
  691WAT    HW1 3452   2.972   5.130   2.825
  691WAT    HW2 3453   2.841   5.192   2.782
  691WAT    LP1 3454   2.854   5.061   2.820
  691WAT    LP2 3455   2.861   5.136   2.905
  692WAT     OW 3456   0.689   6.301   0.892
  692WAT    HW1 3457   0.767   6.274   0.844
  692WAT    HW2 3458   0.655   6.220   0.930
  692WAT    LP1 3459   0.706   6.346   0.943
  692WAT    LP2 3460   0.642   6.330   0.849
  693WAT     OW 3461   4.929   5.455   0.519
  693WAT    HW1 3462   4.852   5.503   0.488
  693WAT    HW2 3463   4.928   5.374   0.468
  693WAT    LP1 3464   4.987   5.492   0.506
  693WAT    LP2 3465   4.924   5.442   0.587
  694WAT     OW 3466   1.660   2.222   4.937
  694WAT    HW1 3467   1.590   2.172   4.979
  694WAT    HW2 3468   1.627   2.239   4.848
  694WAT    LP1 3469   1.671   2.282   4.971
  694WAT    LP2 3470   1.719   2.185   4.935
  695WAT     OW 3471   3.868   6.538   1.369
  695WAT    HW1 3472   3.870   6.592   1.290
  695WAT    HW2 3473   3.810   6.465   1.346
  695WAT    LP1 3474   3.932   6.515   1.385
  695WAT    LP2 3475   3.842   6.574   1.423
  696WAT     OW 3476   4.276   1.068   4.364
  696WAT    HW1 3477   4.266   1.140   4.425
  696WAT    HW2 3478   4.355   1.022   4.393
  696WAT    LP1 3479   4.221   1.025   4.367
  696WAT    LP2 3480   4.284   1.091   4.298
  697WAT     OW 3481   3.980   3.995   6.260
  697WAT    HW1 3482   4.004   4.056   6.330
  697WAT    HW2 3483   3.998   3.909   6.295
  697WAT    LP1 3484   3.912   4.002   6.244
  697WAT    LP2 3485   4.018   4.007   6.202
  698WAT     OW 3486   1.593   0.239   1.837
  698WAT    HW1 3487   1.636   0.322   1.859
  698WAT    HW2 3488   1.616   0.223   1.746
  698WAT    LP1 3489   1.618   0.187   1.878
  698WAT    LP2 3490   1.524   0.243   1.845
  699WAT     OW 3491   3.771   2.531   3.696
  699WAT    HW1 3492   3.850   2.479   3.682
  699WAT    HW2 3493   3.718   2.479   3.757
  699WAT    LP1 3494   3.787   2.593   3.724
  699WAT    LP2 3495   3.736   2.541   3.636
  700WAT     OW 3496   0.986   4.959   5.704
  700WAT    HW1 3497   1.075   4.981   5.733
  700WAT    HW2 3498   0.945   4.921   5.782
  700WAT    LP1 3499   0.951   5.017   5.684
  700WAT    LP2 3500   0.987   4.913   5.652
  701WAT     OW 3501   0.352   1.413   4.360
  701WAT    HW1 3502   0.383   1.323   4.366
  701WAT    HW2 3503   0.431   1.466   4.359
  701WAT    LP1 3504   0.315   1.423   4.301
  701WAT    LP2 3505   0.312   1.429   4.416
  702WAT     OW 3506   5.559   0.537   5.261
  702WAT    HW1 3507   5.651   0.527   5.237
  702WAT    HW2 3508   5.540   0.630   5.246
  702WAT    LP1 3509   5.518   0.497   5.221
  702WAT    LP2 3510   5.549   0.521   5.328
  703WAT     OW 3511   3.115   1.179   2.544
  703WAT    HW1 3512   3.205   1.210   2.550
  703WAT    HW2 3513   3.121   1.086   2.565
  703WAT    LP1 3514   3.074   1.212   2.590
  703WAT    LP2 3515   3.090   1.188   2.479
  704WAT     OW 3516   0.567   3.824   2.702
  704WAT    HW1 3517   0.637   3.814   2.637
  704WAT    HW2 3518   0.506   3.886   2.661
  704WAT    LP1 3519   0.536   3.763   2.714
  704WAT    LP2 3520   0.592   3.850   2.762
  705WAT     OW 3521   6.753   3.013   2.534
  705WAT    HW1 3522   6.681   3.059   2.577
  705WAT    HW2 3523   6.740   3.032   2.441
  705WAT    LP1 3524   6.814   3.038   2.556
  705WAT    LP2 3525   6.749   2.945   2.546
  706WAT     OW 3526   2.636   5.817   4.057
  706WAT    HW1 3527   2.662   5.865   3.978
  706WAT    HW2 3528   2.549   5.852   4.078
  706WAT    LP1 3529   2.632   5.748   4.043
  706WAT    LP2 3530   2.681   5.829   4.109
  707WAT     OW 3531   0.816   2.801   5.163
  707WAT    HW1 3532   0.859   2.883   5.185
  707WAT    HW2 3533   0.778   2.816   5.076
  707WAT    LP1 3534   0.863   2.748   5.161
  707WAT    LP2 3535   0.766   2.785   5.209
  708WAT     OW 3536   3.358   2.982   1.554
  708WAT    HW1 3537   3.266   3.006   1.544
  708WAT    HW2 3538   3.398   3.003   1.470
  708WAT    LP1 3539   3.388   3.018   1.606
  708WAT    LP2 3540   3.364   2.913   1.568
  709WAT     OW 3541   0.559   6.353   1.463
  709WAT    HW1 3542   0.507   6.300   1.402
  709WAT    HW2 3543   0.646   6.313   1.461
  709WAT    LP1 3544   0.562   6.420   1.442
  709WAT    LP2 3545   0.532   6.350   1.527
  710WAT     OW 3546   1.779   4.206   0.554
  710WAT    HW1 3547   1.741   4.208   0.466
  710WAT    HW2 3548   1.872   4.192   0.540
  710WAT    LP1 3549   1.767   4.267   0.587
  710WAT    LP2 3550   1.751   4.153   0.592
  711WAT     OW 3551   3.162   0.213   4.948
  711WAT    HW1 3552   3.185   0.147   4.883
  711WAT    HW2 3553   3.223   0.285   4.932
  711WAT    LP1 3554   3.096   0.234   4.940
  711WAT    LP2 3555   3.170   0.187   5.013
  712WAT     OW 3556   0.068   1.013   4.624
  712WAT    HW1 3557   0.125   0.961   4.681
  712WAT    HW2 3558   0.056   0.960   4.546
  712WAT    LP1 3559   0.007   1.026   4.656
  712WAT    LP2 3560   0.099   1.074   4.608
  713WAT     OW 3561   0.834   2.112   2.888
  713WAT    HW1 3562   0.840   2.155   2.973
  713WAT    HW2 3563   0.904   2.151   2.835
  713WAT    LP1 3564   0.844   2.043   2.894
  713WAT    LP2 3565   0.771   2.124   2.859
  714WAT     OW 3566   5.404   1.201   1.156
  714WAT    HW1 3567   5.330   1.210   1.096
  714WAT    HW2 3568   5.480   1.197   1.099
  714WAT    LP1 3569   5.407   1.257   1.199
  714WAT    LP2 3570   5.398   1.143   1.194
  715WAT     OW 3571   2.652   3.564   5.147
  715WAT    HW1 3572   2.637   3.559   5.242
  715WAT    HW2 3573   2.737   3.607   5.139
  715WAT    LP1 3574   2.653   3.500   5.119
  715WAT    LP2 3575   2.602   3.602   5.116
  716WAT     OW 3576   4.128   2.008   4.607
  716WAT    HW1 3577   4.151   1.949   4.678
  716WAT    HW2 3578   4.198   2.074   4.606
  716WAT    LP1 3579   4.125   1.974   4.546
  716WAT    LP2 3580   4.066   2.038   4.619
  717WAT     OW 3581   6.125   5.335   3.093
  717WAT    HW1 3582   6.164   5.415   3.129
  717WAT    HW2 3583   6.104   5.282   3.169
  717WAT    LP1 3584   6.067   5.351   3.057
  717WAT    LP2 3585   6.170   5.302   3.051
  718WAT     OW 3586   4.418   1.644   5.459
  718WAT    HW1 3587   4.458   1.730   5.474
  718WAT    HW2 3588   4.326   1.664   5.443
  718WAT    LP1 3589   4.446   1.613   5.403
  718WAT    LP2 3590   4.425   1.603   5.515
  719WAT     OW 3591   0.051   6.334   2.852
  719WAT    HW1 3592   0.105   6.355   2.929
  719WAT    HW2 3593   0.061   6.239   2.841
  719WAT    LP1 3594  -0.016   6.351   2.864
  719WAT    LP2 3595   0.074   6.368   2.796
  720WAT     OW 3596   1.467   6.675   6.232
  720WAT    HW1 3597   1.524   6.605   6.263
  720WAT    HW2 3598   1.507   6.755   6.267
  720WAT    LP1 3599   1.466   6.677   6.162
  720WAT    LP2 3600   1.402   6.667   6.256
  721WAT     OW 3601   5.745   4.433   3.710
  721WAT    HW1 3602   5.817   4.449   3.649
  721WAT    HW2 3603   5.667   4.429   3.656
  721WAT    LP1 3604   5.755   4.373   3.744
  721WAT    LP2 3605   5.740   4.486   3.756
  722WAT     OW 3606   2.122   3.643   4.295
  722WAT    HW1 3607   2.174   3.649   4.215
  722WAT    HW2 3608   2.045   3.593   4.269
  722WAT    LP1 3609   2.158   3.610   4.345
  722WAT    LP2 3610   2.104   3.707   4.317
  723WAT     OW 3611   5.733   0.242   0.494
  723WAT    HW1 3612   5.803   0.212   0.435
  723WAT    HW2 3613   5.773   0.315   0.543
  723WAT    LP1 3614   5.678   0.264   0.458
  723WAT    LP2 3615   5.714   0.191   0.538
  724WAT     OW 3616   2.453   2.005   3.120
  724WAT    HW1 3617   2.420   1.917   3.102
  724WAT    HW2 3618   2.491   1.999   3.208
  724WAT    LP1 3619   2.502   2.024   3.073
  724WAT    LP2 3620   2.401   2.052   3.119
  725WAT     OW 3621   0.917   4.641   1.847
  725WAT    HW1 3622   0.876   4.701   1.910
  725WAT    HW2 3623   0.982   4.694   1.802
  725WAT    LP1 3624   0.947   4.587   1.881
  725WAT    LP2 3625   0.869   4.616   1.802
  726WAT     OW 3626   6.173   5.144   0.706
  726WAT    HW1 3627   6.158   5.050   0.717
  726WAT    HW2 3628   6.250   5.150   0.650
  726WAT    LP1 3629   6.118   5.175   0.675
  726WAT    LP2 3630   6.185   5.174   0.768
  727WAT     OW 3631   4.536   4.359   3.263
  727WAT    HW1 3632   4.565   4.443   3.227
  727WAT    HW2 3633   4.601   4.338   3.330
  727WAT    LP1 3634   4.472   4.366   3.291
  727WAT    LP2 3635   4.534   4.310   3.213
  728WAT     OW 3636   2.403   5.941   4.137
  728WAT    HW1 3637   2.416   6.022   4.188
  728WAT    HW2 3638   2.353   5.969   4.061
  728WAT    LP1 3639   2.465   5.914   4.118
  728WAT    LP2 3640   2.367   5.894   4.175
  729WAT     OW 3641   1.727   4.179   5.365
  729WAT    HW1 3642   1.742   4.098   5.316
  729WAT    HW2 3643   1.799   4.237   5.339
  729WAT    LP1 3644   1.665   4.207   5.348
  729WAT    LP2 3645   1.728   4.167   5.434
  730WAT     OW 3646   4.259   0.301   0.599
  730WAT    HW1 3647   4.317   0.224   0.600
  730WAT    HW2 3648   4.182   0.273   0.649
  730WAT    LP1 3649   4.289   0.355   0.630
  730WAT    LP2 3650   4.241   0.318   0.534
  731WAT     OW 3651   4.875   1.825   0.571
  731WAT    HW1 3652   4.936   1.812   0.644
  731WAT    HW2 3653   4.816   1.750   0.575
  731WAT    LP1 3654   4.840   1.885   0.579
  731WAT    LP2 3655   4.910   1.826   0.510
  732WAT     OW 3656   3.269   6.144   2.298
  732WAT    HW1 3657   3.346   6.202   2.300
  732WAT    HW2 3658   3.272   6.097   2.381
  732WAT    LP1 3659   3.210   6.182   2.293
  732WAT    LP2 3660   3.274   6.100   2.244
  733WAT     OW 3661   4.391   2.083   5.472
  733WAT    HW1 3662   4.445   2.008   5.449
  733WAT    HW2 3663   4.341   2.054   5.549
  733WAT    LP1 3664   4.431   2.139   5.488
  733WAT    LP2 3665   4.348   2.100   5.420
  734WAT     OW 3666   3.115   1.209   5.791
  734WAT    HW1 3667   3.079   1.163   5.867
  734WAT    HW2 3668   3.038   1.246   5.748
  734WAT    LP1 3669   3.159   1.259   5.811
  734WAT    LP2 3670   3.148   1.164   5.749
  735WAT     OW 3671   4.571   3.871   4.678
  735WAT    HW1 3672   4.537   3.952   4.641
  735WAT    HW2 3673   4.612   3.896   4.760
  735WAT    LP1 3674   4.520   3.825   4.689
  735WAT    LP2 3675   4.619   3.843   4.634
  736WAT     OW 3676   1.193   2.398   2.910
  736WAT    HW1 3677   1.193   2.473   2.851
  736WAT    HW2 3678   1.140   2.332   2.865
  736WAT    LP1 3679   1.258   2.374   2.921
  736WAT    LP2 3680   1.164   2.415   2.972
  737WAT     OW 3681   3.020   1.868   6.303
  737WAT    HW1 3682   2.983   1.801   6.245
  737WAT    HW2 3683   2.998   1.951   6.261
  737WAT    LP1 3684   2.990   1.864   6.366
  737WAT    LP2 3685   3.089   1.860   6.309
  738WAT     OW 3686   0.964   0.928   4.803
  738WAT    HW1 3687   1.021   0.926   4.880
  738WAT    HW2 3688   0.921   1.014   4.807
  738WAT    LP1 3689   1.001   0.922   4.744
  738WAT    LP2 3690   0.916   0.877   4.806
  739WAT     OW 3691   5.996   2.113   2.483
  739WAT    HW1 3692   6.069   2.085   2.539
  739WAT    HW2 3693   5.927   2.137   2.545
  739WAT    LP1 3694   6.015   2.168   2.444
  739WAT    LP2 3695   5.975   2.061   2.442
  740WAT     OW 3696   4.917   5.655   3.963
  740WAT    HW1 3697   4.907   5.577   3.908
  740WAT    HW2 3698   4.832   5.664   4.007
  740WAT    LP1 3699   4.968   5.646   4.010
  740WAT    LP2 3700   4.931   5.711   3.924
  741WAT     OW 3701   5.281   5.061   2.996
  741WAT    HW1 3702   5.237   5.146   3.001
  741WAT    HW2 3703   5.346   5.071   2.927
  741WAT    LP1 3704   5.312   5.046   3.057
  741WAT    LP2 3705   5.235   5.010   2.980
  742WAT     OW 3706   1.185   6.154   1.635
  742WAT    HW1 3707   1.130   6.177   1.561
  742WAT    HW2 3708   1.129   6.169   1.712
  742WAT    LP1 3709   1.204   6.086   1.631
  742WAT    LP2 3710   1.242   6.194   1.638
  743WAT     OW 3711   2.783   1.982   1.726
  743WAT    HW1 3712   2.813   1.906   1.776
  743WAT    HW2 3713   2.701   2.007   1.767
  743WAT    LP1 3714   2.830   2.034   1.730
  743WAT    LP2 3715   2.773   1.965   1.659
  744WAT     OW 3716   5.837   5.345   0.110
  744WAT    HW1 3717   5.744   5.334   0.133
  744WAT    HW2 3718   5.877   5.380   0.189
  744WAT    LP1 3719   5.865   5.283   0.092
  744WAT    LP2 3720   5.844   5.390   0.057
  745WAT     OW 3721   2.989   6.671   4.212
  745WAT    HW1 3722   2.909   6.678   4.264
  745WAT    HW2 3723   3.060   6.666   4.277
  745WAT    LP1 3724   2.988   6.613   4.172
  745WAT    LP2 3725   2.997   6.727   4.171
  746WAT     OW 3726   0.295   3.696   5.565
  746WAT    HW1 3727   0.326   3.621   5.514
  746WAT    HW2 3728   0.203   3.676   5.582
  746WAT    LP1 3729   0.330   3.702   5.624
  746WAT    LP2 3730   0.301   3.755   5.527
  747WAT     OW 3731   4.428   3.949   6.254
  747WAT    HW1 3732   4.520   3.947   6.227
  747WAT    HW2 3733   4.403   3.857   6.260
  747WAT    LP1 3734   4.421   3.981   6.316
  747WAT    LP2 3735   4.389   3.982   6.206
  748WAT     OW 3736   0.522   6.165   0.272
  748WAT    HW1 3737   0.537   6.239   0.331
  748WAT    HW2 3738   0.596   6.106   0.288
  748WAT    LP1 3739   0.461   6.134   0.286
  748WAT    LP2 3740   0.522   6.187   0.205
  749WAT     OW 3741   6.155   4.098   2.916
  749WAT    HW1 3742   6.196   4.014   2.896
  749WAT    HW2 3743   6.199   4.129   2.995
  749WAT    LP1 3744   6.164   4.143   2.863
  749WAT    LP2 3745   6.086   4.090   2.928
  750WAT     OW 3746   3.963   2.136   5.985
  750WAT    HW1 3747   3.877   2.164   5.953
  750WAT    HW2 3748   4.024   2.166   5.918
  750WAT    LP1 3749   3.978   2.166   6.047
  750WAT    LP2 3750   3.965   2.067   5.992
  751WAT     OW 3751   4.255   4.650   6.154
  751WAT    HW1 3752   4.286   4.562   6.131
  751WAT    HW2 3753   4.187   4.635   6.220
  751WAT    LP1 3754   4.307   4.688   6.181
  751WAT    LP2 3755   4.228   4.682   6.098
  752WAT     OW 3756   4.014   1.398   5.028
  752WAT    HW1 3757   3.965   1.320   5.002
  752WAT    HW2 3758   4.085   1.404   4.965
  752WAT    LP1 3759   3.973   1.455   5.025
  752WAT    LP2 3760   4.039   1.391   5.093
  753WAT     OW 3761   3.084   1.067   4.365
  753WAT    HW1 3762   3.126   1.039   4.284
  753WAT    HW2 3763   3.036   1.146   4.342
  753WAT    LP1 3764   3.041   1.017   4.389
  753WAT    LP2 3765   3.132   1.081   4.414
  754WAT     OW 3766   1.753   0.678   0.735
  754WAT    HW1 3767   1.665   0.710   0.757
  754WAT    HW2 3768   1.739   0.627   0.655
  754WAT    LP1 3769   1.797   0.731   0.724
  754WAT    LP2 3770   1.777   0.637   0.786
  755WAT     OW 3771   2.120   1.546   3.082
  755WAT    HW1 3772   2.170   1.486   3.137
  755WAT    HW2 3773   2.052   1.581   3.140
  755WAT    LP1 3774   2.161   1.598   3.058
  755WAT    LP2 3775   2.092   1.512   3.028
  756WAT     OW 3776   3.692   5.353   0.578
  756WAT    HW1 3777   3.653   5.440   0.583
  756WAT    HW2 3778   3.624   5.297   0.542
  756WAT    LP1 3779   3.748   5.353   0.536
  756WAT    LP2 3780   3.711   5.331   0.642
  757WAT     OW 3781   4.978   3.046   2.981
  757WAT    HW1 3782   4.893   3.085   2.960
  757WAT    HW2 3783   5.022   3.040   2.896
  757WAT    LP1 3784   5.014   3.087   3.025
  757WAT    LP2 3785   4.970   2.982   3.009
  758WAT     OW 3786   6.409   3.354   4.344
  758WAT    HW1 3787   6.331   3.409   4.344
  758WAT    HW2 3788   6.376   3.265   4.336
  758WAT    LP1 3789   6.450   3.370   4.290
  758WAT    LP2 3790   6.445   3.363   4.403
  759WAT     OW 3791   4.778   2.874   3.372
  759WAT    HW1 3792   4.765   2.966   3.391
  759WAT    HW2 3793   4.755   2.865   3.279
  759WAT    LP1 3794   4.845   2.856   3.382
  759WAT    LP2 3795   4.737   2.834   3.411
  760WAT     OW 3796   5.225   2.245   3.777
  760WAT    HW1 3797   5.295   2.308   3.796
  760WAT    HW2 3798   5.264   2.160   3.797
  760WAT    LP1 3799   5.170   2.257   3.817
  760WAT    LP2 3800   5.207   2.248   3.710
  761WAT     OW 3801   4.719   4.561   2.493
  761WAT    HW1 3802   4.687   4.480   2.454
  761WAT    HW2 3803   4.663   4.629   2.456
  761WAT    LP1 3804   4.713   4.559   2.563
  761WAT    LP2 3805   4.786   4.572   2.476
  762WAT     OW 3806   6.355   2.406   3.950
  762WAT    HW1 3807   6.277   2.371   3.906
  762WAT    HW2 3808   6.333   2.405   4.043
  762WAT    LP1 3809   6.410   2.365   3.937
  762WAT    LP2 3810   6.368   2.471   3.928
  763WAT     OW 3811   2.532   4.184   4.660
  763WAT    HW1 3812   2.543   4.151   4.571
  763WAT    HW2 3813   2.468   4.124   4.700
  763WAT    LP1 3814   2.592   4.183   4.695
  763WAT    LP2 3815   2.507   4.250   4.659
  764WAT     OW 3816   3.237   1.267   2.098
  764WAT    HW1 3817   3.250   1.298   2.008
  764WAT    HW2 3818   3.149   1.229   2.097
  764WAT    LP1 3819   3.285   1.219   2.114
  764WAT    LP2 3820   3.241   1.320   2.143
  765WAT     OW 3821   6.256   6.229   6.132
  765WAT    HW1 3822   6.215   6.268   6.209
  765WAT    HW2 3823   6.328   6.176   6.167
  765WAT    LP1 3824   6.210   6.189   6.097
  765WAT    LP2 3825   6.280   6.279   6.089
  766WAT     OW 3826   1.505   6.200   0.238
  766WAT    HW1 3827   1.572   6.219   0.304
  766WAT    HW2 3828   1.547   6.223   0.155
  766WAT    LP1 3829   1.488   6.133   0.239
  766WAT    LP2 3830   1.448   6.239   0.249
  767WAT     OW 3831   6.556   4.739   3.289
  767WAT    HW1 3832   6.629   4.754   3.349
  767WAT    HW2 3833   6.492   4.692   3.342
  767WAT    LP1 3834   6.530   4.799   3.266
  767WAT    LP2 3835   6.577   4.700   3.235
  768WAT     OW 3836   6.029   3.833   3.631
  768WAT    HW1 3837   6.104   3.808   3.685
  768WAT    HW2 3838   5.998   3.915   3.670
  768WAT    LP1 3839   6.048   3.843   3.565
  768WAT    LP2 3840   5.979   3.784   3.634
  769WAT     OW 3841   0.640   1.835   6.428
  769WAT    HW1 3842   0.551   1.843   6.463
  769WAT    HW2 3843   0.637   1.758   6.372
  769WAT    LP1 3844   0.657   1.892   6.391
  769WAT    LP2 3845   0.686   1.827   6.480
  770WAT     OW 3846   4.349   4.827   5.244
  770WAT    HW1 3847   4.322   4.856   5.157
  770WAT    HW2 3848   4.349   4.907   5.297
  770WAT    LP1 3849   4.304   4.781   5.270
  770WAT    LP2 3850   4.413   4.799   5.243
  771WAT     OW 3851   4.193   4.195   3.494
  771WAT    HW1 3852   4.113   4.234   3.530
  771WAT    HW2 3853   4.262   4.220   3.556
  771WAT    LP1 3854   4.187   4.125   3.490
  771WAT    LP2 3855   4.207   4.221   3.431
  772WAT     OW 3856   0.229   4.323   1.880
  772WAT    HW1 3857   0.160   4.271   1.839
  772WAT    HW2 3858   0.259   4.269   1.953
  772WAT    LP1 3859   0.281   4.335   1.835
  772WAT    LP2 3860   0.204   4.384   1.903
  773WAT     OW 3861   1.010   1.759   5.446
  773WAT    HW1 3862   0.926   1.753   5.399
  773WAT    HW2 3863   1.015   1.677   5.496
  773WAT    LP1 3864   1.063   1.764   5.401
  773WAT    LP2 3865   1.010   1.814   5.489
  774WAT     OW 3866   3.437   0.556   1.684
  774WAT    HW1 3867   3.359   0.557   1.740
  774WAT    HW2 3868   3.483   0.476   1.707
  774WAT    LP1 3869   3.418   0.555   1.616
  774WAT    LP2 3870   3.477   0.612   1.696
  775WAT     OW 3871   6.498   4.760   5.456
  775WAT    HW1 3872   6.544   4.790   5.534
  775WAT    HW2 3873   6.467   4.672   5.479
  775WAT    LP1 3874   6.444   4.801   5.441
  775WAT    LP2 3875   6.541   4.757   5.401
  776WAT     OW 3876   2.391   6.415   2.091
  776WAT    HW1 3877   2.298   6.410   2.068
  776WAT    HW2 3878   2.403   6.503   2.127
  776WAT    LP1 3879   2.407   6.366   2.138
  776WAT    LP2 3880   2.431   6.406   2.034
  777WAT     OW 3881   5.215   6.265   4.825
  777WAT    HW1 3882   5.226   6.196   4.760
  777WAT    HW2 3883   5.178   6.221   4.901
  777WAT    LP1 3884   5.277   6.294   4.840
  777WAT    LP2 3885   5.172   6.315   4.801
  778WAT     OW 3886   5.895   0.711   1.636
  778WAT    HW1 3887   5.953   0.777   1.673
  778WAT    HW2 3888   5.951   0.634   1.624
  778WAT    LP1 3889   5.842   0.697   1.679
  778WAT    LP2 3890   5.870   0.733   1.574
  779WAT     OW 3891   3.035   4.887   2.449
  779WAT    HW1 3892   3.082   4.846   2.376
  779WAT    HW2 3893   3.102   4.940   2.493
  779WAT    LP1 3894   2.983   4.927   2.426
  779WAT    LP2 3895   3.010   4.838   2.493
  780WAT     OW 3896   1.553   2.076   0.114
  780WAT    HW1 3897   1.632   2.023   0.114
  780WAT    HW2 3898   1.496   2.035   0.180
  780WAT    LP1 3899   1.568   2.142   0.132
  780WAT    LP2 3900   1.522   2.075   0.051
  781WAT     OW 3901   6.496   5.709   0.323
  781WAT    HW1 3902   6.430   5.771   0.355
  781WAT    HW2 3903   6.575   5.761   0.314
  781WAT    LP1 3904   6.505   5.658   0.370
  781WAT    LP2 3905   6.476   5.682   0.262
  782WAT     OW 3906   4.066   6.433   5.630
  782WAT    HW1 3907   3.988   6.476   5.595
  782WAT    HW2 3908   4.079   6.474   5.716
  782WAT    LP1 3909   4.055   6.364   5.637
  782WAT    LP2 3910   4.121   6.443   5.588
  783WAT     OW 3911   5.921   0.575   0.120
  783WAT    HW1 3912   5.913   0.580   0.215
  783WAT    HW2 3913   5.999   0.626   0.099
  783WAT    LP1 3914   5.928   0.508   0.099
  783WAT    LP2 3915   5.864   0.602   0.089
  784WAT     OW 3916   3.864   5.723   6.224
  784WAT    HW1 3917   3.897   5.655   6.283
  784WAT    HW2 3918   3.789   5.760   6.270
  784WAT    LP1 3919   3.913   5.772   6.213
  784WAT    LP2 3920   3.844   5.696   6.162
  785WAT     OW 3921   3.216   5.768   6.269
  785WAT    HW1 3922   3.166   5.843   6.300
  785WAT    HW2 3923   3.255   5.797   6.187
  785WAT    LP1 3924   3.265   5.750   6.315
  785WAT    LP2 3925   3.174   5.713   6.258
  786WAT     OW 3926   4.015   4.476   5.360
  786WAT    HW1 3927   3.984   4.558   5.323
  786WAT    HW2 3928   3.946   4.412   5.340
  786WAT    LP1 3929   4.076   4.457   5.331
  786WAT    LP2 3930   4.024   4.482   5.430
  787WAT     OW 3931   3.339   4.986   5.282
  787WAT    HW1 3932   3.392   4.995   5.361
  787WAT    HW2 3933   3.260   4.939   5.311
  787WAT    LP1 3934   3.323   5.048   5.256
  787WAT    LP2 3935   3.373   4.948   5.234
  788WAT     OW 3936   5.769   3.027   1.196
  788WAT    HW1 3937   5.834   2.964   1.164
  788WAT    HW2 3938   5.809   3.065   1.274
  788WAT    LP1 3939   5.757   3.076   1.148
  788WAT    LP2 3940   5.710   2.994   1.212
  789WAT     OW 3941   2.588   1.276   5.143
  789WAT    HW1 3942   2.636   1.199   5.114
  789WAT    HW2 3943   2.656   1.337   5.172
  789WAT    LP1 3944   2.551   1.304   5.090
  789WAT    LP2 3945   2.545   1.260   5.196
  790WAT     OW 3946   3.919   4.645   5.962
  790WAT    HW1 3947   3.922   4.713   6.028
  790WAT    HW2 3948   4.011   4.624   5.945
  790WAT    LP1 3949   3.885   4.589   5.985
  790WAT    LP2 3950   3.888   4.668   5.903
  791WAT     OW 3951   5.791   5.722   6.469
  791WAT    HW1 3952   5.715   5.716   6.411
  791WAT    HW2 3953   5.825   5.633   6.472
  791WAT    LP1 3954   5.838   5.766   6.442
  791WAT    LP2 3955   5.772   5.744   6.533
  792WAT     OW 3956   3.176   1.516   1.065
  792WAT    HW1 3957   3.188   1.424   1.041
  792WAT    HW2 3958   3.245   1.534   1.129
  792WAT    LP1 3959   3.183   1.557   1.008
  792WAT    LP2 3960   3.113   1.526   1.093
  793WAT     OW 3961   6.274   2.252   2.200
  793WAT    HW1 3962   6.325   2.278   2.277
  793WAT    HW2 3963   6.183   2.272   2.223
  793WAT    LP1 3964   6.294   2.288   2.144
  793WAT    LP2 3965   6.281   2.183   2.188
  794WAT     OW 3966   2.914   1.857   0.784
  794WAT    HW1 3967   2.939   1.873   0.875
  794WAT    HW2 3968   2.903   1.944   0.746
  794WAT    LP1 3969   2.964   1.821   0.750
  794WAT    LP2 3970   2.854   1.821   0.780
  795WAT     OW 3971   0.649   1.821   4.358
  795WAT    HW1 3972   0.635   1.881   4.285
  795WAT    HW2 3973   0.595   1.855   4.428
  795WAT    LP1 3974   0.630   1.756   4.341
  795WAT    LP2 3975   0.717   1.821   4.376
  796WAT     OW 3976   5.935   5.730   0.218
  796WAT    HW1 3977   5.859   5.729   0.160
  796WAT    HW2 3978   5.900   5.706   0.304
  796WAT    LP1 3979   5.983   5.683   0.197
  796WAT    LP2 3980   5.964   5.794   0.220
  797WAT     OW 3981   5.784   4.063   4.409
  797WAT    HW1 3982   5.716   4.012   4.453
  797WAT    HW2 3983   5.762   4.154   4.428
  797WAT    LP1 3984   5.847   4.047   4.435
  797WAT    LP2 3985   5.783   4.052   4.340
  798WAT     OW 3986   5.202   1.322   2.615
  798WAT    HW1 3987   5.268   1.288   2.555
  798WAT    HW2 3988   5.250   1.374   2.679
  798WAT    LP1 3989   5.155   1.361   2.580
  798WAT    LP2 3990   5.168   1.269   2.647
  799WAT     OW 3991   0.886   0.408   3.275
  799WAT    HW1 3992   0.850   0.468   3.340
  799WAT    HW2 3993   0.837   0.327   3.288
  799WAT    LP1 3994   0.877   0.432   3.210
  799WAT    LP2 3995   0.954   0.398   3.287
  800WAT     OW 3996   5.844   3.851   6.267
  800WAT    HW1 3997   5.831   3.931   6.217
  800WAT    HW2 3998   5.827   3.781   6.206
  800WAT    LP1 3999   5.910   3.848   6.291
  800WAT    LP2 4000   5.800   3.849   6.321
  801WAT     OW 4001   3.547   1.083   5.674
  801WAT    HW1 4002   3.457   1.081   5.640
  801WAT    HW2 4003   3.540   1.044   5.761
  801WAT    LP1 4004   3.589   1.045   5.633
  801WAT    LP2 4005   3.570   1.148   5.678
  802WAT     OW 4006   4.423   5.936   2.856
  802WAT    HW1 4007   4.359   6.005   2.877
  802WAT    HW2 4008   4.485   5.979   2.798
  802WAT    LP1 4009   4.454   5.913   2.914
  802WAT    LP2 4010   4.391   5.883   2.824
  803WAT     OW 4011   3.331   0.489   3.952
  803WAT    HW1 4012   3.259   0.540   3.991
  803WAT    HW2 4013   3.382   0.459   4.027
  803WAT    LP1 4014   3.305   0.434   3.917
  803WAT    LP2 4015   3.370   0.528   3.910
  804WAT     OW 4016   0.137   0.343   1.444
  804WAT    HW1 4017   0.135   0.422   1.389
  804WAT    HW2 4018   0.085   0.279   1.396
  804WAT    LP1 4019   0.202   0.321   1.454
  804WAT    LP2 4020   0.108   0.357   1.507
  805WAT     OW 4021   1.615   5.357   1.674
  805WAT    HW1 4022   1.626   5.324   1.763
  805WAT    HW2 4023   1.687   5.319   1.624
  805WAT    LP1 4024   1.553   5.336   1.647
  805WAT    LP2 4025   1.618   5.427   1.673
  806WAT     OW 4026   6.648   1.814   1.824
  806WAT    HW1 4027   6.694   1.897   1.814
  806WAT    HW2 4028   6.557   1.838   1.840
  806WAT    LP1 4029   6.653   1.775   1.765
  806WAT    LP2 4030   6.673   1.777   1.878
  807WAT     OW 4031   0.555   3.219   5.201
  807WAT    HW1 4032   0.582   3.166   5.125
  807WAT    HW2 4033   0.613   3.190   5.272
  807WAT    LP1 4034   0.564   3.287   5.187
  807WAT    LP2 4035   0.488   3.207   5.217
  808WAT     OW 4036   6.026   1.415   3.559
  808WAT    HW1 4037   5.959   1.467   3.514
  808WAT    HW2 4038   6.084   1.385   3.490
  808WAT    LP1 4039   6.060   1.455   3.605
  808WAT    LP2 4040   5.996   1.361   3.593
  809WAT     OW 4041   6.293   4.609   4.872
  809WAT    HW1 4042   6.227   4.581   4.935
  809WAT    HW2 4043   6.375   4.613   4.922
  809WAT    LP1 4044   6.299   4.562   4.820
  809WAT    LP2 4045   6.277   4.671   4.845
  810WAT     OW 4046   2.449   3.850   4.039
  810WAT    HW1 4047   2.483   3.880   3.955
  810WAT    HW2 4048   2.401   3.925   4.074
  810WAT    LP1 4049   2.407   3.795   4.030
  810WAT    LP2 4050   2.502   3.832   4.082
  811WAT     OW 4051   1.465   6.526   1.790
  811WAT    HW1 4052   1.428   6.491   1.871
  811WAT    HW2 4053   1.442   6.461   1.724
  811WAT    LP1 4054   1.436   6.588   1.775
  811WAT    LP2 4055   1.534   6.533   1.795
  812WAT     OW 4056   2.986   5.747   0.217
  812WAT    HW1 4057   2.950   5.689   0.283
  812WAT    HW2 4058   2.980   5.698   0.135
  812WAT    LP1 4059   2.948   5.806   0.213
  812WAT    LP2 4060   3.052   5.764   0.232
  813WAT     OW 4061   1.036   2.861   3.388
  813WAT    HW1 4062   1.098   2.841   3.319
  813WAT    HW2 4063   1.064   2.946   3.422
  813WAT    LP1 4064   0.971   2.865   3.363
  813WAT    LP2 4065   1.038   2.813   3.439
  814WAT     OW 4066   2.033   1.059   5.270
  814WAT    HW1 4067   2.024   0.983   5.212
  814WAT    HW2 4068   1.961   1.117   5.244
  814WAT    LP1 4069   2.026   1.040   5.337
  814WAT    LP2 4070   2.095   1.090   5.260
  815WAT     OW 4071   4.718   5.490   2.216
  815WAT    HW1 4072   4.732   5.400   2.187
  815WAT    HW2 4073   4.717   5.484   2.312
  815WAT    LP1 4074   4.770   5.531   2.195
  815WAT    LP2 4075   4.657   5.514   2.192
  816WAT     OW 4076   1.395   6.148   2.641
  816WAT    HW1 4077   1.352   6.231   2.660
  816WAT    HW2 4078   1.459   6.168   2.572
  816WAT    LP1 4079   1.428   6.124   2.698
  816WAT    LP2 4080   1.349   6.101   2.619
  817WAT     OW 4081   5.384   6.678   4.899
  817WAT    HW1 4082   5.425   6.627   4.829
  817WAT    HW2 4083   5.378   6.617   4.972
  817WAT    LP1 4084   5.424   6.733   4.915
  817WAT    LP2 4085   5.321   6.700   4.879
  818WAT     OW 4086   1.237   2.582   2.675
  818WAT    HW1 4087   1.289   2.651   2.633
  818WAT    HW2 4088   1.155   2.581   2.626
  818WAT    LP1 4089   1.269   2.521   2.671
  818WAT    LP2 4090   1.225   2.598   2.742
  819WAT     OW 4091   5.196   1.973   3.186
  819WAT    HW1 4092   5.204   1.962   3.281
  819WAT    HW2 4093   5.284   1.956   3.152
  819WAT    LP1 4094   5.150   1.928   3.159
  819WAT    LP2 4095   5.176   2.039   3.171
  820WAT     OW 4096   5.740   5.263   5.999
  820WAT    HW1 4097   5.826   5.258   6.040
  820WAT    HW2 4098   5.694   5.184   6.028
  820WAT    LP1 4099   5.706   5.321   6.020
  820WAT    LP2 4100   5.746   5.264   5.929
  821WAT     OW 4101   0.110   5.318   5.774
  821WAT    HW1 4102   0.112   5.368   5.692
  821WAT    HW2 4103   0.034   5.353   5.820
  821WAT    LP1 4104   0.102   5.250   5.761
  821WAT    LP2 4105   0.168   5.329   5.811
  822WAT     OW 4106   4.853   5.243   0.352
  822WAT    HW1 4107   4.764   5.207   0.354
  822WAT    HW2 4108   4.909   5.167   0.337
  822WAT    LP1 4109   4.860   5.289   0.299
  822WAT    LP2 4110   4.869   5.274   0.412
  823WAT     OW 4111   3.617   0.035   1.950
  823WAT    HW1 4112   3.682  -0.030   1.977
  823WAT    HW2 4113   3.665   0.094   1.891
  823WAT    LP1 4114   3.564   0.004   1.916
  823WAT    LP2 4115   3.592   0.070   2.005
  824WAT     OW 4116   1.316   1.047   5.387
  824WAT    HW1 4117   1.244   0.994   5.353
  824WAT    HW2 4118   1.275   1.106   5.451
  824WAT    LP1 4119   1.363   1.006   5.419
  824WAT    LP2 4120   1.347   1.083   5.336
  825WAT     OW 4121   0.365   1.131   1.501
  825WAT    HW1 4122   0.432   1.149   1.567
  825WAT    HW2 4123   0.340   1.217   1.469
  825WAT    LP1 4124   0.392   1.092   1.449
  825WAT    LP2 4125   0.311   1.098   1.529
  826WAT     OW 4126   3.002   1.500   0.256
  826WAT    HW1 4127   2.952   1.420   0.273
  826WAT    HW2 4128   2.963   1.565   0.314
  826WAT    LP1 4129   3.070   1.490   0.271
  826WAT    LP2 4130   2.995   1.519   0.189
  827WAT     OW 4131   6.067   6.659   6.644
  827WAT    HW1 4132   6.153   6.620   6.657
  827WAT    HW2 4133   6.081   6.753   6.656
  827WAT    LP1 4134   6.043   6.645   6.580
  827WAT    LP2 4135   6.022   6.634   6.692
  828WAT     OW 4136   3.240   0.327   2.711
  828WAT    HW1 4137   3.252   0.290   2.624
  828WAT    HW2 4138   3.209   0.254   2.764
  828WAT    LP1 4139   3.300   0.352   2.736
  828WAT    LP2 4140   3.192   0.378   2.709
  829WAT     OW 4141   2.908   5.888   5.146
  829WAT    HW1 4142   2.956   5.816   5.188
  829WAT    HW2 4143   2.930   5.879   5.053
  829WAT    LP1 4144   2.840   5.881   5.156
  829WAT    LP2 4145   2.930   5.950   5.170
  830WAT     OW 4146   0.321   6.525   0.359
  830WAT    HW1 4147   0.285   6.555   0.275
  830WAT    HW2 4148   0.260   6.457   0.387
  830WAT    LP1 4149   0.385   6.499   0.350
  830WAT    LP2 4150   0.323   6.577   0.405
  831WAT     OW 4151   3.846   3.037   5.975
  831WAT    HW1 4152   3.780   3.058   6.041
  831WAT    HW2 4153   3.821   3.088   5.898
  831WAT    LP1 4154   3.910   3.055   5.997
  831WAT    LP2 4155   3.845   2.968   5.961
  832WAT     OW 4156   4.050   0.919   4.639
  832WAT    HW1 4157   4.031   0.948   4.550
  832WAT    HW2 4158   4.136   0.876   4.631
  832WAT    LP1 4159   4.053   0.973   4.683
  832WAT    LP2 4160   4.002   0.873   4.661
  833WAT     OW 4161   0.172   1.303   3.704
  833WAT    HW1 4162   0.230   1.248   3.757
  833WAT    HW2 4163   0.105   1.242   3.671
  833WAT    LP1 4164   0.142   1.353   3.743
  833WAT    LP2 4165   0.207   1.332   3.650
  834WAT     OW 4166   3.783   1.798   1.844
  834WAT    HW1 4167   3.760   1.730   1.907
  834WAT    HW2 4168   3.736   1.875   1.874
  834WAT    LP1 4169   3.852   1.810   1.843
  834WAT    LP2 4170   3.762   1.780   1.779
  835WAT     OW 4171   2.628   1.942   5.804
  835WAT    HW1 4172   2.569   1.972   5.873
  835WAT    HW2 4173   2.574   1.888   5.747
  835WAT    LP1 4174   2.655   1.997   5.769
  835WAT    LP2 4175   2.681   1.905   5.831
  836WAT     OW 4176   1.467   2.600   0.732
  836WAT    HW1 4177   1.475   2.596   0.827
  836WAT    HW2 4178   1.506   2.685   0.708
  836WAT    LP1 4179   1.502   2.548   0.701
  836WAT    LP2 4180   1.400   2.597   0.712
  837WAT     OW 4181   4.290   3.289   5.873
  837WAT    HW1 4182   4.280   3.194   5.870
  837WAT    HW2 4183   4.327   3.312   5.788
  837WAT    LP1 4184   4.228   3.320   5.883
  837WAT    LP2 4185   4.333   3.308   5.925
  838WAT     OW 4186   3.200   2.099   2.001
  838WAT    HW1 4187   3.188   2.043   2.078
  838WAT    HW2 4188   3.138   2.170   2.014
  838WAT    LP1 4189   3.266   2.123   1.998
  838WAT    LP2 4190   3.186   2.063   1.943
  839WAT     OW 4191   4.913   2.692   2.468
  839WAT    HW1 4192   4.969   2.720   2.396
  839WAT    HW2 4193   4.878   2.607   2.439
  839WAT    LP1 4194   4.950   2.685   2.527
  839WAT    LP2 4195   4.861   2.737   2.478
  840WAT     OW 4196   6.553   2.234   1.803
  840WAT    HW1 4197   6.628   2.175   1.810
  840WAT    HW2 4198   6.495   2.206   1.874
  840WAT    LP1 4199   6.573   2.300   1.812
  840WAT    LP2 4200   6.521   2.226   1.741
  841WAT     OW 4201   6.219   5.729   4.095
  841WAT    HW1 4202   6.174   5.652   4.131
  841WAT    HW2 4203   6.250   5.777   4.171
  841WAT    LP1 4204   6.273   5.709   4.054
  841WAT    LP2 4205   6.175   5.768   4.057
  842WAT     OW 4206   5.364   4.588   2.974
  842WAT    HW1 4207   5.286   4.619   2.926
  842WAT    HW2 4208   5.353   4.493   2.978
  842WAT    LP1 4209   5.422   4.605   2.939
  842WAT    LP2 4210   5.366   4.616   3.038
  843WAT     OW 4211   3.532   3.134   1.068
  843WAT    HW1 4212   3.468   3.176   1.011
  843WAT    HW2 4213   3.608   3.193   1.067
  843WAT    LP1 4214   3.507   3.127   1.133
  843WAT    LP2 4215   3.550   3.071   1.043
  844WAT     OW 4216   3.571   0.290   3.500
  844WAT    HW1 4217   3.570   0.245   3.585
  844WAT    HW2 4218   3.580   0.220   3.436
  844WAT    LP1 4219   3.511   0.326   3.490
  844WAT    LP2 4220   3.625   0.334   3.496
  845WAT     OW 4221   1.174   0.747   2.693
  845WAT    HW1 4222   1.180   0.841   2.676
  845WAT    HW2 4223   1.187   0.706   2.608
  845WAT    LP1 4224   1.224   0.727   2.738
  845WAT    LP2 4225   1.111   0.731   2.719
  846WAT     OW 4226   1.543   6.230   1.172
  846WAT    HW1 4227   1.551   6.203   1.263
  846WAT    HW2 4228   1.486   6.307   1.174
  846WAT    LP1 4229   1.606   6.246   1.145
  846WAT    LP2 4230   1.514   6.179   1.134
  847WAT     OW 4231   3.750   1.076   3.726
  847WAT    HW1 4232   3.768   0.986   3.698
  847WAT    HW2 4233   3.834   1.111   3.754
  847WAT    LP1 4234   3.723   1.113   3.673
  847WAT    LP2 4235   3.704   1.076   3.780
  848WAT     OW 4236   6.680   4.574   4.799
  848WAT    HW1 4237   6.775   4.570   4.812
  848WAT    HW2 4238   6.656   4.485   4.774
  848WAT    LP1 4239   6.648   4.592   4.858
  848WAT    LP2 4240   6.664   4.619   4.749
  849WAT     OW 4241   1.468   5.053   1.680
  849WAT    HW1 4242   1.406   5.040   1.752
  849WAT    HW2 4243   1.554   5.052   1.721
  849WAT    LP1 4244   1.462   5.001   1.633
  849WAT    LP2 4245   1.456   5.114   1.648
  850WAT     OW 4246   2.260   1.593   4.671
  850WAT    HW1 4247   2.334   1.536   4.692
  850WAT    HW2 4248   2.262   1.661   4.738
  850WAT    LP1 4249   2.268   1.622   4.607
  850WAT    LP2 4250   2.200   1.558   4.673
  851WAT     OW 4251   2.480   0.480   3.577
  851WAT    HW1 4252   2.523   0.565   3.587
  851WAT    HW2 4253   2.496   0.456   3.486
  851WAT    LP1 4254   2.508   0.433   3.621
  851WAT    LP2 4255   2.411   0.486   3.589
  852WAT     OW 4256   6.465   1.317   4.824
  852WAT    HW1 4257   6.518   1.255   4.774
  852WAT    HW2 4258   6.527   1.357   4.885
  852WAT    LP1 4259   6.438   1.366   4.782
  852WAT    LP2 4260   6.414   1.284   4.858
  853WAT     OW 4261   3.574   4.905   5.970
  853WAT    HW1 4262   3.557   4.829   6.026
  853WAT    HW2 4263   3.502   4.966   5.991
  853WAT    LP1 4264   3.636   4.934   5.986
  853WAT    LP2 4265   3.572   4.887   5.903
  854WAT     OW 4266   1.342   0.209   0.405
  854WAT    HW1 4267   1.389   0.161   0.337
  854WAT    HW2 4268   1.269   0.151   0.428
  854WAT    LP1 4269   1.383   0.219   0.461
  854WAT    LP2 4270   1.318   0.270   0.382
  855WAT     OW 4271   1.296   5.551   6.269
  855WAT    HW1 4272   1.353   5.626   6.286
  855WAT    HW2 4273   1.354   5.486   6.229
  855WAT    LP1 4274   1.269   5.526   6.329
  855WAT    LP2 4275   1.244   5.568   6.226
  856WAT     OW 4276   2.274   0.960   4.047
  856WAT    HW1 4277   2.347   1.004   4.091
  856WAT    HW2 4278   2.291   0.975   3.953
  856WAT    LP1 4279   2.273   0.892   4.061
  856WAT    LP2 4280   2.213   0.989   4.065
  857WAT     OW 4281   0.842   4.288   2.546
  857WAT    HW1 4282   0.844   4.292   2.642
  857WAT    HW2 4283   0.782   4.217   2.526
  857WAT    LP1 4284   0.820   4.348   2.519
  857WAT    LP2 4285   0.906   4.274   2.521
  858WAT     OW 4286   4.892   5.038   4.405
  858WAT    HW1 4287   4.811   5.070   4.365
  858WAT    HW2 4288   4.930   4.980   4.339
  858WAT    LP1 4289   4.935   5.091   4.420
  858WAT    LP2 4290   4.878   5.002   4.464
  859WAT     OW 4291   6.237   1.348   2.020
  859WAT    HW1 4292   6.223   1.256   2.041
  859WAT    HW2 4293   6.252   1.349   1.926
  859WAT    LP1 4294   6.181   1.386   2.037
  859WAT    LP2 4295   6.293   1.373   2.054
  860WAT     OW 4296   5.923   1.987   2.030
  860WAT    HW1 4297   5.840   2.020   1.998
  860WAT    HW2 4298   5.988   2.048   1.997
  860WAT    LP1 4299   5.924   1.985   2.100
  860WAT    LP2 4300   5.935   1.922   2.005
  861WAT     OW 4301   5.717   4.207   5.395
  861WAT    HW1 4302   5.722   4.301   5.409
  861WAT    HW2 4303   5.633   4.181   5.434
  861WAT    LP1 4304   5.718   4.191   5.327
  861WAT    LP2 4305   5.770   4.174   5.427
  862WAT     OW 4306   6.593   2.582   6.031
  862WAT    HW1 4307   6.545   2.596   5.950
  862WAT    HW2 4308   6.624   2.669   6.056
  862WAT    LP1 4309   6.550   2.556   6.081
  862WAT    LP2 4310   6.646   2.538   6.021
  863WAT     OW 4311   3.977   2.070   2.041
  863WAT    HW1 4312   3.919   2.091   1.968
  863WAT    HW2 4313   3.938   1.994   2.082
  863WAT    LP1 4314   4.042   2.056   2.018
  863WAT    LP2 4315   3.980   2.124   2.086
  864WAT     OW 4316   2.840   0.937   4.730
  864WAT    HW1 4317   2.876   0.886   4.803
  864WAT    HW2 4318   2.892   0.909   4.654
  864WAT    LP1 4319   2.773   0.922   4.720
  864WAT    LP2 4320   2.848   1.005   4.741
  865WAT     OW 4321   1.704   5.877   4.219
  865WAT    HW1 4322   1.693   5.810   4.287
  865WAT    HW2 4323   1.787   5.855   4.178
  865WAT    LP1 4324   1.652   5.874   4.173
  865WAT    LP2 4325   1.706   5.941   4.247
  866WAT     OW 4326   5.627   2.009   0.109
  866WAT    HW1 4327   5.642   2.068   0.182
  866WAT    HW2 4328   5.532   2.001   0.103
  866WAT    LP1 4329   5.654   2.036   0.050
  866WAT    LP2 4330   5.656   1.947   0.121
  867WAT     OW 4331   6.419   2.980   3.136
  867WAT    HW1 4332   6.422   3.039   3.061
  867WAT    HW2 4333   6.489   3.009   3.193
  867WAT    LP1 4334   6.357   2.984   3.168
  867WAT    LP2 4335   6.429   2.914   3.115
  868WAT     OW 4336   5.286   5.278   0.515
  868WAT    HW1 4337   5.244   5.327   0.444
  868WAT    HW2 4338   5.238   5.195   0.519
  868WAT    LP1 4339   5.354   5.266   0.500
  868WAT    LP2 4340   5.282   5.313   0.575
  869WAT     OW 4341   3.033   4.240   5.228
  869WAT    HW1 4342   3.055   4.239   5.135
  869WAT    HW2 4343   3.088   4.309   5.265
  869WAT    LP1 4344   2.965   4.254   5.238
  869WAT    LP2 4345   3.048   4.178   5.258
  870WAT     OW 4346   3.658   2.838   2.497
  870WAT    HW1 4347   3.733   2.835   2.438
  870WAT    HW2 4348   3.668   2.761   2.553
  870WAT    LP1 4349   3.659   2.897   2.535
  870WAT    LP2 4350   3.598   2.835   2.461
  871WAT     OW 4351   0.213   3.251   1.549
  871WAT    HW1 4352   0.249   3.255   1.460
  871WAT    HW2 4353   0.122   3.223   1.536
  871WAT    LP1 4354   0.248   3.205   1.588
  871WAT    LP2 4355   0.215   3.315   1.579
  872WAT     OW 4356   3.411   2.004   0.163
  872WAT    HW1 4357   3.458   1.922   0.151
  872WAT    HW2 4358   3.473   2.071   0.135
  872WAT    LP1 4359   3.353   2.006   0.123
  872WAT    LP2 4360   3.393   2.014   0.230
  873WAT     OW 4361   0.836   2.333   0.855
  873WAT    HW1 4362   0.769   2.395   0.827
  873WAT    HW2 4363   0.914   2.386   0.871
  873WAT    LP1 4364   0.817   2.300   0.914
  873WAT    LP2 4365   0.849   2.285   0.806
  874WAT     OW 4366   5.407   0.275   4.956
  874WAT    HW1 4367   5.461   0.273   5.035
  874WAT    HW2 4368   5.416   0.188   4.918
  874WAT    LP1 4369   5.340   0.288   4.972
  874WAT    LP2 4370   5.430   0.324   4.911
  875WAT     OW 4371   5.095   3.456   3.917
  875WAT    HW1 4372   5.165   3.390   3.914
  875WAT    HW2 4373   5.031   3.425   3.852
  875WAT    LP1 4374   5.066   3.459   3.980
  875WAT    LP2 4375   5.120   3.519   3.899
  876WAT     OW 4376   4.997   4.069   2.303
  876WAT    HW1 4377   5.014   3.976   2.321
  876WAT    HW2 4378   4.972   4.071   2.211
  876WAT    LP1 4379   4.944   4.092   2.343
  876WAT    LP2 4380   5.054   4.107   2.314
  877WAT     OW 4381   1.719   1.582   0.474
  877WAT    HW1 4382   1.722   1.667   0.519
  877WAT    HW2 4383   1.728   1.518   0.544
  877WAT    LP1 4384   1.658   1.574   0.441
  877WAT    LP2 4385   1.771   1.577   0.428
  878WAT     OW 4386   5.093   5.045   1.035
  878WAT    HW1 4387   5.103   5.139   1.019
  878WAT    HW2 4388   5.010   5.037   1.082
  878WAT    LP1 4389   5.090   5.010   0.974
  878WAT    LP2 4390   5.146   5.021   1.074
  879WAT     OW 4391   0.465   1.558   1.545
  879WAT    HW1 4392   0.415   1.489   1.502
  879WAT    HW2 4393   0.412   1.637   1.534
  879WAT    LP1 4394   0.473   1.543   1.613
  879WAT    LP2 4395   0.527   1.566   1.515
  880WAT     OW 4396   2.072   1.702   5.067
  880WAT    HW1 4397   2.092   1.608   5.067
  880WAT    HW2 4398   1.977   1.705   5.056
  880WAT    LP1 4399   2.091   1.731   5.127
  880WAT    LP2 4400   2.104   1.734   5.013
  881WAT     OW 4401   6.297   5.188   3.452
  881WAT    HW1 4402   6.211   5.193   3.409
  881WAT    HW2 4403   6.355   5.152   3.385
  881WAT    LP1 4404   6.318   5.251   3.472
  881WAT    LP2 4405   6.294   5.146   3.508
  882WAT     OW 4406   3.479   1.201   1.051
  882WAT    HW1 4407   3.389   1.211   1.018
  882WAT    HW2 4408   3.512   1.291   1.057
  882WAT    LP1 4409   3.479   1.171   1.114
  882WAT    LP2 4410   3.518   1.164   1.007
  883WAT     OW 4411   5.631   4.563   0.582
  883WAT    HW1 4412   5.546   4.592   0.550
  883WAT    HW2 4413   5.618   4.549   0.676
  883WAT    LP1 4414   5.651   4.504   0.551
  883WAT    LP2 4415   5.680   4.613   0.571
  884WAT     OW 4416   1.144   4.068   6.462
  884WAT    HW1 4417   1.136   3.977   6.432
  884WAT    HW2 4418   1.088   4.118   6.402
  884WAT    LP1 4419   1.121   4.074   6.528
  884WAT    LP2 4420   1.210   4.090   6.457
  885WAT     OW 4421   1.448   1.442   6.146
  885WAT    HW1 4422   1.445   1.441   6.242
  885WAT    HW2 4423   1.529   1.489   6.125
  885WAT    LP1 4424   1.450   1.377   6.121
  885WAT    LP2 4425   1.393   1.476   6.119
  886WAT     OW 4426   1.832   1.974   3.399
  886WAT    HW1 4427   1.923   1.946   3.404
  886WAT    HW2 4428   1.782   1.892   3.395
  886WAT    LP1 4429   1.814   2.011   3.456
  886WAT    LP2 4430   1.820   2.012   3.342
  887WAT     OW 4431   2.481   1.640   0.929
  887WAT    HW1 4432   2.450   1.553   0.903
  887WAT    HW2 4433   2.576   1.635   0.918
  887WAT    LP1 4434   2.454   1.689   0.888
  887WAT    LP2 4435   2.465   1.653   0.996
  888WAT     OW 4436   6.476   3.671   3.255
  888WAT    HW1 4437   6.486   3.743   3.192
  888WAT    HW2 4438   6.565   3.642   3.272
  888WAT    LP1 4439   6.445   3.693   3.313
  888WAT    LP2 4440   6.438   3.619   3.227
  889WAT     OW 4441   6.590   3.233   3.551
  889WAT    HW1 4442   6.598   3.296   3.623
  889WAT    HW2 4443   6.526   3.273   3.492
  889WAT    LP1 4444   6.651   3.224   3.519
  889WAT    LP2 4445   6.567   3.171   3.575
  890WAT     OW 4446   4.109   3.044   1.400
  890WAT    HW1 4447   4.188   3.031   1.452
  890WAT    HW2 4448   4.115   3.136   1.372
  890WAT    LP1 4449   4.108   3.002   1.344
  890WAT    LP2 4450   4.052   3.034   1.439
  891WAT     OW 4451   6.023   6.401   5.323
  891WAT    HW1 4452   5.997   6.309   5.320
  891WAT    HW2 4453   6.002   6.429   5.412
  891WAT    LP1 4454   6.092   6.407   5.311
  891WAT    LP2 4455   5.987   6.438   5.276
  892WAT     OW 4456   0.566   1.759   1.252
  892WAT    HW1 4457   0.616   1.831   1.214
  892WAT    HW2 4458   0.536   1.792   1.337
  892WAT    LP1 4459   0.511   1.743   1.211
  892WAT    LP2 4460   0.606   1.702   1.260
  893WAT     OW 4461   6.154   0.785   4.985
  893WAT    HW1 4462   6.241   0.826   4.986
  893WAT    HW2 4463   6.099   0.844   5.035
  893WAT    LP1 4464   6.131   0.778   4.920
  893WAT    LP2 4465   6.157   0.722   5.015
  894WAT     OW 4466   4.406   5.608   0.890
  894WAT    HW1 4467   4.330   5.642   0.936
  894WAT    HW2 4468   4.370   5.549   0.824
  894WAT    LP1 4469   4.443   5.659   0.859
  894WAT    LP2 4470   4.448   5.573   0.934
  895WAT     OW 4471   5.430   0.616   0.417
  895WAT    HW1 4472   5.513   0.647   0.382
  895WAT    HW2 4473   5.440   0.521   0.423
  895WAT    LP1 4474   5.418   0.643   0.481
  895WAT    LP2 4475   5.377   0.632   0.374
  896WAT     OW 4476   0.834   4.658   2.925
  896WAT    HW1 4477   0.767   4.653   2.857
  896WAT    HW2 4478   0.916   4.672   2.878
  896WAT    LP1 4479   0.821   4.711   2.968
  896WAT    LP2 4480   0.836   4.598   2.961
  897WAT     OW 4481   1.547   4.493   2.980
  897WAT    HW1 4482   1.586   4.417   2.938
  897WAT    HW2 4483   1.501   4.458   3.056
  897WAT    LP1 4484   1.596   4.539   3.000
  897WAT    LP2 4485   1.502   4.525   2.936
  898WAT     OW 4486   6.133   3.473   3.640
  898WAT    HW1 4487   6.156   3.509   3.726
  898WAT    HW2 4488   6.190   3.518   3.579
  898WAT    LP1 4489   6.144   3.404   3.638
  898WAT    LP2 4490   6.066   3.487   3.626
  899WAT     OW 4491   6.664   5.930   2.857
  899WAT    HW1 4492   6.622   5.911   2.774
  899WAT    HW2 4493   6.597   5.975   2.909
  899WAT    LP1 4494   6.685   5.871   2.889
  899WAT    LP2 4495   6.720   5.972   2.847
  900WAT     OW 4496   2.219   2.571   5.690
  900WAT    HW1 4497   2.296   2.610   5.731
  900WAT    HW2 4498   2.234   2.580   5.596
  900WAT    LP1 4499   2.214   2.503   5.708
  900WAT    LP2 4500   2.161   2.605   5.710
  901WAT     OW 4501   0.792   2.647   2.869
  901WAT    HW1 4502   0.855   2.667   2.938
  901WAT    HW2 4503   0.835   2.577   2.819
  901WAT    LP1 4504   0.732   2.624   2.896
  901WAT    LP2 4505   0.781   2.703   2.829
  902WAT     OW 4506   3.816   5.316   1.687
  902WAT    HW1 4507   3.840   5.355   1.771
  902WAT    HW2 4508   3.733   5.357   1.665
  902WAT    LP1 4509   3.865   5.330   1.639
  902WAT    LP2 4510   3.809   5.246   1.694
  903WAT     OW 4511   6.377   3.705   2.206
  903WAT    HW1 4512   6.333   3.673   2.285
  903WAT    HW2 4513   6.400   3.795   2.225
  903WAT    LP1 4514   6.434   3.667   2.192
  903WAT    LP2 4515   6.334   3.702   2.151
  904WAT     OW 4516   6.491   4.726   6.288
  904WAT    HW1 4517   6.413   4.764   6.328
  904WAT    HW2 4518   6.477   4.631   6.292
  904WAT    LP1 4519   6.498   4.747   6.222
  904WAT    LP2 4520   6.549   4.744   6.324
  905WAT     OW 4521   3.084   4.774   1.366
  905WAT    HW1 4522   3.045   4.827   1.436
  905WAT    HW2 4523   3.067   4.684   1.392
  905WAT    LP1 4524   3.054   4.789   1.305
  905WAT    LP2 4525   3.153   4.786   1.362
  906WAT     OW 4526   0.771   1.057   1.147
  906WAT    HW1 4527   0.746   1.091   1.061
  906WAT    HW2 4528   0.757   1.130   1.207
  906WAT    LP1 4529   0.731   1.002   1.165
  906WAT    LP2 4530   0.838   1.038   1.147
  907WAT     OW 4531   5.123   3.740   6.173
  907WAT    HW1 4532   5.030   3.746   6.153
  907WAT    HW2 4533   5.131   3.768   6.264
  907WAT    LP1 4534   5.146   3.674   6.166
  907WAT    LP2 4535   5.160   3.781   6.131
  908WAT     OW 4536   1.237   5.803   5.332
  908WAT    HW1 4537   1.165   5.765   5.383
  908WAT    HW2 4538   1.270   5.731   5.280
  908WAT    LP1 4539   1.213   5.855   5.291
  908WAT    LP2 4540   1.286   5.828   5.375
  909WAT     OW 4541   0.542   4.984   0.679
  909WAT    HW1 4542   0.565   4.908   0.626
  909WAT    HW2 4543   0.572   4.962   0.767
  909WAT    LP1 4544   0.574   5.041   0.656
  909WAT    LP2 4545   0.473   4.995   0.679
  910WAT     OW 4546   3.214   5.408   0.761
  910WAT    HW1 4547   3.189   5.482   0.817
  910WAT    HW2 4548   3.187   5.331   0.811
  910WAT    LP1 4549   3.180   5.410   0.700
  910WAT    LP2 4550   3.283   5.407   0.750
  911WAT     OW 4551   2.976   0.548   3.124
  911WAT    HW1 4552   3.015   0.532   3.039
  911WAT    HW2 4553   3.025   0.492   3.184
  911WAT    LP1 4554   2.982   0.615   3.142
  911WAT    LP2 4555   2.908   0.530   3.124
  912WAT     OW 4556   2.603   0.814   0.333
  912WAT    HW1 4557   2.625   0.870   0.258
  912WAT    HW2 4558   2.593   0.875   0.406
  912WAT    LP1 4559   2.543   0.780   0.320
  912WAT    LP2 4560   2.654   0.768   0.345
  913WAT     OW 4561   2.470   2.890   6.356
  913WAT    HW1 4562   2.393   2.933   6.393
  913WAT    HW2 4563   2.441   2.858   6.271
  913WAT    LP1 4564   2.523   2.936   6.349
  913WAT    LP2 4565   2.491   2.837   6.397
  914WAT     OW 4566   1.220   1.060   4.444
  914WAT    HW1 4567   1.159   0.995   4.480
  914WAT    HW2 4568   1.302   1.043   4.489
  914WAT    LP1 4569   1.227   1.052   4.375
  914WAT    LP2 4570   1.197   1.125   4.458
  915WAT     OW 4571   0.454   4.341   2.519
  915WAT    HW1 4572   0.494   4.428   2.515
  915WAT    HW2 4573   0.397   4.337   2.442
  915WAT    LP1 4574   0.503   4.291   2.516
  915WAT    LP2 4575   0.416   4.334   2.578
  916WAT     OW 4576   4.043   3.381   5.526
  916WAT    HW1 4577   4.118   3.423   5.485
  916WAT    HW2 4578   4.053   3.400   5.620
  916WAT    LP1 4579   3.983   3.408   5.502
  916WAT    LP2 4580   4.044   3.312   5.515
  917WAT     OW 4581   1.309   5.529   3.803
  917WAT    HW1 4582   1.373   5.457   3.807
  917WAT    HW2 4583   1.228   5.490   3.837
  917WAT    LP1 4584   1.329   5.583   3.843
  917WAT    LP2 4585   1.300   5.550   3.737
  918WAT     OW 4586   1.979   5.541   4.617
  918WAT    HW1 4587   1.906   5.579   4.666
  918WAT    HW2 4588   2.043   5.611   4.608
  918WAT    LP1 4589   2.006   5.487   4.652
  918WAT    LP2 4590   1.957   5.519   4.554
  919WAT     OW 4591   2.646   3.228   4.278
  919WAT    HW1 4592   2.614   3.157   4.223
  919WAT    HW2 4593   2.574   3.246   4.338
  919WAT    LP1 4594   2.703   3.208   4.313
  919WAT    LP2 4595   2.662   3.284   4.239
  920WAT     OW 4596   5.600   0.703   5.909
  920WAT    HW1 4597   5.516   0.668   5.938
  920WAT    HW2 4598   5.665   0.651   5.957
  920WAT    LP1 4599   5.608   0.694   5.840
  920WAT    LP2 4600   5.606   0.771   5.925
  921WAT     OW 4601   0.430   3.016   4.727
  921WAT    HW1 4602   0.439   3.108   4.751
  921WAT    HW2 4603   0.389   2.975   4.803
  921WAT    LP1 4604   0.389   3.010   4.670
  921WAT    LP2 4605   0.492   2.988   4.714
  922WAT     OW 4606   6.711   2.161   2.946
  922WAT    HW1 4607   6.790   2.216   2.948
  922WAT    HW2 4608   6.711   2.115   3.029
  922WAT    LP1 4609   6.654   2.201   2.939
  922WAT    LP2 4610   6.714   2.116   2.892
  923WAT     OW 4611   0.059   1.277   5.370
  923WAT    HW1 4612  -0.026   1.245   5.343
  923WAT    HW2 4613   0.122   1.217   5.329
  923WAT    LP1 4614   0.069   1.343   5.348
  923WAT    LP2 4615   0.066   1.274   5.440
  924WAT     OW 4616   4.413   5.936   1.602
  924WAT    HW1 4617   4.354   5.874   1.559
  924WAT    HW2 4618   4.355   6.003   1.639
  924WAT    LP1 4619   4.450   5.904   1.653
  924WAT    LP2 4620   4.457   5.964   1.556
  925WAT     OW 4621   6.205   1.290   3.102
  925WAT    HW1 4622   6.171   1.203   3.082
  925WAT    HW2 4623   6.141   1.350   3.063
  925WAT    LP1 4624   6.210   1.300   3.171
  925WAT    LP2 4625   6.268   1.299   3.073
  926WAT     OW 4626   0.854   2.160   1.711
  926WAT    HW1 4627   0.908   2.085   1.687
  926WAT    HW2 4628   0.776   2.122   1.751
  926WAT    LP1 4629   0.888   2.202   1.756
  926WAT    LP2 4630   0.836   2.197   1.654
  927WAT     OW 4631   0.241   1.520   0.582
  927WAT    HW1 4632   0.282   1.566   0.509
  927WAT    HW2 4633   0.152   1.556   0.586
  927WAT    LP1 4634   0.239   1.451   0.570
  927WAT    LP2 4635   0.275   1.532   0.642
  928WAT     OW 4636   2.874   1.265   0.299
  928WAT    HW1 4637   2.853   1.218   0.379
  928WAT    HW2 4638   2.944   1.213   0.258
  928WAT    LP1 4639   2.818   1.269   0.257
  928WAT    LP2 4640   2.897   1.330   0.313
  929WAT     OW 4641   2.122   4.245   1.241
  929WAT    HW1 4642   2.069   4.165   1.242
  929WAT    HW2 4643   2.199   4.222   1.190
  929WAT    LP1 4644   2.087   4.298   1.211
  929WAT    LP2 4645   2.140   4.263   1.306
  930WAT     OW 4646   5.098   3.918   3.092
  930WAT    HW1 4647   5.112   4.013   3.089
  930WAT    HW2 4648   5.104   3.890   3.001
  930WAT    LP1 4649   5.147   3.887   3.132
  930WAT    LP2 4650   5.034   3.904   3.118
  931WAT     OW 4651   6.294   1.621   2.881
  931WAT    HW1 4652   6.237   1.662   2.946
  931WAT    HW2 4653   6.345   1.557   2.930
  931WAT    LP1 4654   6.256   1.590   2.831
  931WAT    LP2 4655   6.336   1.668   2.851
  932WAT     OW 4656   4.070   1.450   3.180
  932WAT    HW1 4657   4.067   1.358   3.156
  932WAT    HW2 4658   4.034   1.496   3.104
  932WAT    LP1 4659   4.030   1.462   3.237
  932WAT    LP2 4660   4.135   1.471   3.193
  933WAT     OW 4661   3.501   3.119   3.733
  933WAT    HW1 4662   3.498   3.209   3.703
  933WAT    HW2 4663   3.589   3.088   3.711
  933WAT    LP1 4664   3.491   3.116   3.803
  933WAT    LP2 4665   3.453   3.080   3.701
  934WAT     OW 4666   4.292   3.558   0.326
  934WAT    HW1 4667   4.206   3.520   0.308
  934WAT    HW2 4668   4.282   3.603   0.410
  934WAT    LP1 4669   4.341   3.508   0.330
  934WAT    LP2 4670   4.310   3.603   0.275
  935WAT     OW 4671   6.363   4.974   1.773
  935WAT    HW1 4672   6.328   5.017   1.851
  935WAT    HW2 4673   6.445   5.020   1.755
  935WAT    LP1 4674   6.375   4.906   1.786
  935WAT    LP2 4675   6.319   4.979   1.719
  936WAT     OW 4676   4.645   1.936   3.117
  936WAT    HW1 4677   4.598   1.866   3.071
  936WAT    HW2 4678   4.709   1.968   3.053
  936WAT    LP1 4679   4.601   1.987   3.136
  936WAT    LP2 4680   4.678   1.910   3.174
  937WAT     OW 4681   0.309   1.956   5.179
  937WAT    HW1 4682   0.325   1.963   5.085
  937WAT    HW2 4683   0.257   2.033   5.200
  937WAT    LP1 4684   0.274   1.897   5.194
  937WAT    LP2 4685   0.369   1.956   5.215
  938WAT     OW 4686   2.276   3.758   5.640
  938WAT    HW1 4687   2.195   3.712   5.664
  938WAT    HW2 4688   2.253   3.851   5.647
  938WAT    LP1 4689   2.327   3.742   5.685
  938WAT    LP2 4690   2.296   3.742   5.575
  939WAT     OW 4691   6.289   2.853   5.215
  939WAT    HW1 4692   6.294   2.834   5.122
  939WAT    HW2 4693   6.344   2.931   5.227
  939WAT    LP1 4694   6.223   2.866   5.235
  939WAT    LP2 4695   6.314   2.799   5.252
  940WAT     OW 4696   2.096   1.025   2.128
  940WAT    HW1 4697   2.131   1.071   2.051
  940WAT    HW2 4698   2.091   1.092   2.196
  940WAT    LP1 4699   2.033   0.998   2.114
  940WAT    LP2 4700   2.139   0.973   2.147
  941WAT     OW 4701   4.503   3.371   6.026
  941WAT    HW1 4702   4.468   3.438   6.085
  941WAT    HW2 4703   4.428   3.345   5.973
  941WAT    LP1 4704   4.554   3.398   5.986
  941WAT    LP2 4705   4.528   3.317   6.063
  942WAT     OW 4706   2.530   4.089   5.948
  942WAT    HW1 4707   2.623   4.070   5.962
  942WAT    HW2 4708   2.517   4.076   5.854
  942WAT    LP1 4709   2.490   4.045   5.985
  942WAT    LP2 4710   2.515   4.155   5.966
  943WAT     OW 4711   0.443   4.050   1.188
  943WAT    HW1 4712   0.516   4.092   1.234
  943WAT    HW2 4713   0.373   4.044   1.254
  943WAT    LP1 4714   0.423   4.089   1.134
  943WAT    LP2 4715   0.461   3.987   1.166
  944WAT     OW 4716   2.574   2.439   3.676
  944WAT    HW1 4717   2.653   2.386   3.664
  944WAT    HW2 4718   2.538   2.450   3.588
  944WAT    LP1 4719   2.528   2.407   3.718
  944WAT    LP2 4720   2.591   2.502   3.703
  945WAT     OW 4721   1.803   5.077   4.168
  945WAT    HW1 4722   1.784   5.136   4.096
  945WAT    HW2 4723   1.717   5.055   4.204
  945WAT    LP1 4724   1.835   5.019   4.144
  945WAT    LP2 4725   1.844   5.108   4.216
  946WAT     OW 4726   5.436   5.922   4.877
  946WAT    HW1 4727   5.514   5.978   4.882
  946WAT    HW2 4728   5.383   5.961   4.808
  946WAT    LP1 4729   5.454   5.856   4.861
  946WAT    LP2 4730   5.402   5.923   4.938
  947WAT     OW 4731   2.618   4.743   5.884
  947WAT    HW1 4732   2.556   4.775   5.949
  947WAT    HW2 4733   2.572   4.671   5.841
  947WAT    LP1 4734   2.634   4.793   5.838
  947WAT    LP2 4735   2.676   4.719   5.915
  948WAT     OW 4736   2.296   4.565   3.852
  948WAT    HW1 4737   2.270   4.639   3.906
  948WAT    HW2 4738   2.358   4.601   3.789
  948WAT    LP1 4739   2.327   4.516   3.891
  948WAT    LP2 4740   2.241   4.537   3.819
  949WAT     OW 4741   3.117   4.366   0.943
  949WAT    HW1 4742   3.203   4.404   0.925
  949WAT    HW2 4743   3.101   4.309   0.868
  949WAT    LP1 4744   3.119   4.328   1.002
  949WAT    LP2 4745   3.068   4.415   0.948
  950WAT     OW 4746   2.137   3.886   4.435
  950WAT    HW1 4747   2.111   3.805   4.390
  950WAT    HW2 4748   2.232   3.884   4.434
  950WAT    LP1 4749   2.113   3.942   4.400
  950WAT    LP2 4750   2.112   3.886   4.500
  951WAT     OW 4751   5.545   6.231   3.669
  951WAT    HW1 4752   5.579   6.162   3.726
  951WAT    HW2 4753   5.536   6.189   3.584
  951WAT    LP1 4754   5.483   6.254   3.692
  951WAT    LP2 4755   5.590   6.284   3.666
  952WAT     OW 4756   2.223   0.706   5.186
  952WAT    HW1 4757   2.241   0.774   5.251
  952WAT    HW2 4758   2.293   0.642   5.197
  952WAT    LP1 4759   2.160   0.676   5.198
  952WAT    LP2 4760   2.224   0.733   5.121
  953WAT     OW 4761   0.836   0.283   4.276
  953WAT    HW1 4762   0.915   0.329   4.304
  953WAT    HW2 4763   0.801   0.243   4.356
  953WAT    LP1 4764   0.789   0.328   4.249
  953WAT    LP2 4765   0.851   0.235   4.228
  954WAT     OW 4766   1.280   0.453   5.956
  954WAT    HW1 4767   1.340   0.488   5.890
  954WAT    HW2 4768   1.330   0.457   6.037
  954WAT    LP1 4769   1.222   0.493   5.961
  954WAT    LP2 4770   1.261   0.388   5.941
  955WAT     OW 4771   4.318   5.885   3.837
  955WAT    HW1 4772   4.332   5.978   3.854
  955WAT    HW2 4773   4.243   5.862   3.892
  955WAT    LP1 4774   4.304   5.873   3.770
  955WAT    LP2 4775   4.374   5.847   3.856
  956WAT     OW 4776   3.898   5.138   2.475
  956WAT    HW1 4777   3.955   5.213   2.459
  956WAT    HW2 4778   3.822   5.155   2.420
  956WAT    LP1 4779   3.929   5.078   2.456
  956WAT    LP2 4780   3.879   5.135   2.542
  957WAT     OW 4781   0.302   5.234   1.983
  957WAT    HW1 4782   0.218   5.266   1.950
  957WAT    HW2 4783   0.284   5.209   2.074
  957WAT    LP1 4784   0.323   5.178   1.946
  957WAT    LP2 4785   0.351   5.284   1.980
  958WAT     OW 4786   5.413   5.062   6.421
  958WAT    HW1 4787   5.344   5.117   6.383
  958WAT    HW2 4788   5.433   4.998   6.353
  958WAT    LP1 4789   5.469   5.100   6.437
  958WAT    LP2 4790   5.389   5.030   6.479
  959WAT     OW 4791   4.785   5.985   1.869
  959WAT    HW1 4792   4.809   5.975   1.961
  959WAT    HW2 4793   4.780   6.079   1.855
  959WAT    LP1 4794   4.834   5.956   1.828
  959WAT    LP2 4795   4.723   5.955   1.857
  960WAT     OW 4796   1.457   3.858   5.577
  960WAT    HW1 4797   1.533   3.803   5.596
  960WAT    HW2 4798   1.447   3.854   5.482
  960WAT    LP1 4799   1.400   3.834   5.609
  960WAT    LP2 4800   1.469   3.924   5.598
  961WAT     OW 4801   0.691   1.374   0.258
  961WAT    HW1 4802   0.602   1.369   0.294
  961WAT    HW2 4803   0.700   1.294   0.207
  961WAT    LP1 4804   0.698   1.430   0.218
  961WAT    LP2 4805   0.738   1.375   0.310
  962WAT     OW 4806   0.004   5.394   6.067
  962WAT    HW1 4807  -0.045   5.418   6.145
  962WAT    HW2 4808   0.071   5.463   6.058
  962WAT    LP1 4809   0.034   5.331   6.074
  962WAT    LP2 4810  -0.038   5.394   6.010
  963WAT     OW 4811   2.477   4.076   5.678
  963WAT    HW1 4812   2.508   4.040   5.594
  963WAT    HW2 4813   2.383   4.061   5.677
  963WAT    LP1 4814   2.507   4.043   5.732
  963WAT    LP2 4815   2.491   4.145   5.682
  964WAT     OW 4816   3.716   1.749   5.498
  964WAT    HW1 4817   3.744   1.829   5.542
  964WAT    HW2 4818   3.704   1.685   5.568
  964WAT    LP1 4819   3.656   1.760   5.463
  964WAT    LP2 4820   3.765   1.727   5.453
  965WAT     OW 4821   4.667   3.779   0.367
  965WAT    HW1 4822   4.719   3.699   0.358
  965WAT    HW2 4823   4.594   3.767   0.307
  965WAT    LP1 4824   4.644   3.786   0.433
  965WAT    LP2 4825   4.705   3.835   0.349
  966WAT     OW 4826   3.009   3.450   0.427
  966WAT    HW1 4827   2.949   3.396   0.375
  966WAT    HW2 4828   3.014   3.532   0.379
  966WAT    LP1 4829   2.985   3.460   0.491
  966WAT    LP2 4830   3.072   3.419   0.430
  967WAT     OW 4831   1.688   5.604   0.961
  967WAT    HW1 4832   1.692   5.689   1.004
  967WAT    HW2 4833   1.662   5.624   0.871
  967WAT    LP1 4834   1.750   5.572   0.963
  967WAT    LP2 4835   1.640   5.563   0.992
  968WAT     OW 4836   4.067   6.464   3.769
  968WAT    HW1 4837   4.031   6.546   3.804
  968WAT    HW2 4838   4.096   6.416   3.847
  968WAT    LP1 4839   4.017   6.428   3.735
  968WAT    LP2 4840   4.121   6.477   3.726
  969WAT     OW 4841   3.700   3.942   5.169
  969WAT    HW1 4842   3.751   3.942   5.088
  969WAT    HW2 4843   3.765   3.956   5.238
  969WAT    LP1 4844   3.652   3.993   5.169
  969WAT    LP2 4845   3.668   3.880   5.178
  970WAT     OW 4846   1.595   3.990   3.875
  970WAT    HW1 4847   1.634   4.062   3.825
  970WAT    HW2 4848   1.592   4.023   3.965
  970WAT    LP1 4849   1.530   3.976   3.852
  970WAT    LP2 4850   1.634   3.933   3.871
  971WAT     OW 4851   5.668   0.025   1.824
  971WAT    HW1 4852   5.666   0.025   1.728
  971WAT    HW2 4853   5.759   0.004   1.846
  971WAT    LP1 4854   5.650   0.088   1.849
  971WAT    LP2 4855   5.625  -0.023   1.850
  972WAT     OW 4856   2.221   2.995   6.426
  972WAT    HW1 4857   2.166   2.932   6.381
  972WAT    HW2 4858   2.205   2.979   6.519
  972WAT    LP1 4859   2.288   2.985   6.410
  972WAT    LP2 4860   2.202   3.061   6.409
  973WAT     OW 4861   6.650   4.154   2.073
  973WAT    HW1 4862   6.629   4.221   2.008
  973WAT    HW2 4863   6.701   4.089   2.025
  973WAT    LP1 4864   6.688   4.181   2.125
  973WAT    LP2 4865   6.592   4.125   2.100
  974WAT     OW 4866   4.189   5.884   2.434
  974WAT    HW1 4867   4.154   5.910   2.348
  974WAT    HW2 4868   4.223   5.796   2.420
  974WAT    LP1 4869   4.240   5.928   2.454
  974WAT    LP2 4870   4.138   5.884   2.482
  975WAT     OW 4871   3.546   4.842   2.957
  975WAT    HW1 4872   3.613   4.815   3.020
  975WAT    HW2 4873   3.588   4.834   2.872
  975WAT    LP1 4874   3.490   4.800   2.961
  975WAT    LP2 4875   3.526   4.908   2.969
  976WAT     OW 4876   3.712   5.495   3.521
  976WAT    HW1 4877   3.678   5.446   3.596
  976WAT    HW2 4878   3.726   5.429   3.453
  976WAT    LP1 4879   3.666   5.543   3.500
  976WAT    LP2 4880   3.772   5.527   3.538
  977WAT     OW 4881   4.648   3.450   3.728
  977WAT    HW1 4882   4.603   3.449   3.812
  977WAT    HW2 4883   4.587   3.407   3.668
  977WAT    LP1 4884   4.661   3.515   3.707
  977WAT    LP2 4885   4.708   3.414   3.731
  978WAT     OW 4886   4.944   5.720   2.516
  978WAT    HW1 4887   5.010   5.753   2.577
  978WAT    HW2 4888   4.864   5.766   2.540
  978WAT    LP1 4889   4.962   5.735   2.450
  978WAT    LP2 4890   4.937   5.651   2.523
  979WAT     OW 4891   5.349   1.978   0.111
  979WAT    HW1 4892   5.317   1.994   0.199
  979WAT    HW2 4893   5.270   1.958   0.060
  979WAT    LP1 4894   5.381   2.035   0.085
  979WAT    LP2 4895   5.394   1.924   0.110
  980WAT     OW 4896   1.310   5.787   2.353
  980WAT    HW1 4897   1.390   5.806   2.402
  980WAT    HW2 4898   1.333   5.712   2.298
  980WAT    LP1 4899   1.258   5.770   2.396
  980WAT    LP2 4900   1.292   5.842   2.313
  981WAT     OW 4901   2.954   5.777   1.869
  981WAT    HW1 4902   2.888   5.813   1.928
  981WAT    HW2 4903   3.019   5.847   1.861
  981WAT    LP1 4904   2.983   5.719   1.897
  981WAT    LP2 4905   2.926   5.762   1.807
  982WAT     OW 4906   6.427   3.950   1.267
  982WAT    HW1 4907   6.353   4.004   1.239
  982WAT    HW2 4908   6.503   4.007   1.258
  982WAT    LP1 4909   6.419   3.930   1.334
  982WAT    LP2 4910   6.433   3.893   1.227
  983WAT     OW 4911   3.463   0.926   3.444
  983WAT    HW1 4912   3.394   0.861   3.426
  983WAT    HW2 4913   3.424   0.986   3.507
  983WAT    LP1 4914   3.519   0.894   3.471
  983WAT    LP2 4915   3.481   0.959   3.385
  984WAT     OW 4916   6.744   5.917   5.044
  984WAT    HW1 4917   6.682   5.862   4.997
  984WAT    HW2 4918   6.816   5.858   5.067
  984WAT    LP1 4919   6.767   5.969   5.003
  984WAT    LP2 4920   6.715   5.944   5.102
  985WAT     OW 4921   6.789   0.422   0.575
  985WAT    HW1 4922   6.857   0.366   0.537
  985WAT    HW2 4923   6.837   0.498   0.608
  985WAT    LP1 4924   6.743   0.441   0.527
  985WAT    LP2 4925   6.757   0.389   0.627
  986WAT     OW 4926   1.925   2.084   1.631
  986WAT    HW1 4927   2.006   2.103   1.677
  986WAT    HW2 4928   1.872   2.163   1.641
  986WAT    LP1 4929   1.937   2.071   1.563
  986WAT    LP2 4930   1.892   2.029   1.660
  987WAT     OW 4931   4.406   0.272   1.855
  987WAT    HW1 4932   4.381   0.362   1.838
  987WAT    HW2 4933   4.365   0.251   1.939
  987WAT    LP1 4934   4.382   0.229   1.805
  987WAT    LP2 4935   4.475   0.265   1.860
  988WAT     OW 4936   3.811   6.029   2.941
  988WAT    HW1 4937   3.846   5.947   2.909
  988WAT    HW2 4938   3.866   6.097   2.901
  988WAT    LP1 4939   3.744   6.037   2.922
  988WAT    LP2 4940   3.815   6.032   3.011
  989WAT     OW 4941   3.045   5.278   5.580
  989WAT    HW1 4942   3.087   5.192   5.574
  989WAT    HW2 4943   3.118   5.339   5.590
  989WAT    LP1 4944   3.009   5.291   5.522
  989WAT    LP2 4945   3.003   5.281   5.636
  990WAT     OW 4946   1.032   2.603   2.497
  990WAT    HW1 4947   1.076   2.599   2.412
  990WAT    HW2 4948   0.999   2.692   2.503
  990WAT    LP1 4949   0.979   2.557   2.499
  990WAT    LP2 4950   1.076   2.589   2.549
  991WAT     OW 4951   0.713   0.314   5.164
  991WAT    HW1 4952   0.711   0.389   5.223
  991WAT    HW2 4953   0.789   0.263   5.193
  991WAT    LP1 4954   0.655   0.276   5.170
  991WAT    LP2 4955   0.721   0.334   5.098
  992WAT     OW 4956   1.983   4.942   3.875
  992WAT    HW1 4957   2.006   5.033   3.854
  992WAT    HW2 4958   2.050   4.890   3.830
  992WAT    LP1 4959   1.985   4.931   3.944
  992WAT    LP2 4960   1.919   4.926   3.850
  993WAT     OW 4961   2.334   3.336   2.223
  993WAT    HW1 4962   2.304   3.424   2.247
  993WAT    HW2 4963   2.358   3.343   2.131
  993WAT    LP1 4964   2.390   3.318   2.262
  993WAT    LP2 4965   2.283   3.289   2.232
  994WAT     OW 4966   3.799   1.396   4.106
  994WAT    HW1 4967   3.846   1.334   4.161
  994WAT    HW2 4968   3.707   1.383   4.128
  994WAT    LP1 4969   3.818   1.462   4.121
  994WAT    LP2 4970   3.810   1.383   4.038
  995WAT     OW 4971   3.940   2.485   4.456
  995WAT    HW1 4972   3.938   2.414   4.391
  995WAT    HW2 4973   3.850   2.493   4.486
  995WAT    LP1 4974   3.982   2.468   4.509
  995WAT    LP2 4975   3.962   2.544   4.427
  996WAT     OW 4976   0.941   2.722   3.095
  996WAT    HW1 4977   1.029   2.701   3.128
  996WAT    HW2 4978   0.943   2.816   3.080
  996WAT    LP1 4979   0.929   2.687   3.036
  996WAT    LP2 4980   0.892   2.705   3.142
  997WAT     OW 4981   1.093   1.644   1.167
  997WAT    HW1 4982   1.021   1.685   1.118
  997WAT    HW2 4983   1.149   1.716   1.193
  997WAT    LP1 4984   1.068   1.610   1.223
  997WAT    LP2 4985   1.127   1.598   1.126
  998WAT     OW 4986   5.880   4.079   2.920
  998WAT    HW1 4987   5.976   4.074   2.925
  998WAT    HW2 4988   5.851   3.988   2.924
  998WAT    LP1 4989   5.855   4.116   2.974
  998WAT    LP2 4990   5.860   4.109   2.860
  999WAT     OW 4991   5.597   5.734   3.745
  999WAT    HW1 4992   5.611   5.747   3.651
  999WAT    HW2 4993   5.673   5.684   3.774
  999WAT    LP1 4994   5.593   5.795   3.778
  999WAT    LP2 4995   5.538   5.698   3.756
 1000WAT     OW 4996   1.019   3.668   0.981
 1000WAT    HW1 4997   1.065   3.741   1.023
 1000WAT    HW2 4998   0.963   3.632   1.049
 1000WAT    LP1 4999   0.980   3.691   0.927
 1000WAT    LP2 5000   1.064   3.620   0.958
 1001WAT     OW 5001   3.091   1.009   3.083
 1001WAT    HW1 5002   3.008   1.034   3.041
 1001WAT    HW2 5003   3.103   1.074   3.152
 1001WAT    LP1 5004   3.086   0.945   3.110
 1001WAT    LP2 5005   3.143   1.012   3.037
 1002WAT     OW 5006   1.874   5.615   0.692
 1002WAT    HW1 5007   1.781   5.636   0.693
 1002WAT    HW2 5008   1.918   5.698   0.712
 1002WAT    LP1 5009   1.889   5.567   0.741
 1002WAT    LP2 5010   1.893   5.591   0.629
 1003WAT     OW 5011   3.851   0.713   2.380
 1003WAT    HW1 5012   3.814   0.748   2.299
 1003WAT    HW2 5013   3.938   0.681   2.355
 1003WAT    LP1 5014   3.857   0.764   2.428
 1003WAT    LP2 5015   3.812   0.661   2.405
 1004WAT     OW 5016   0.239   5.054   5.173
 1004WAT    HW1 5017   0.202   5.047   5.261
 1004WAT    HW2 5018   0.191   4.990   5.121
 1004WAT    LP1 5019   0.230   5.118   5.147
 1004WAT    LP2 5020   0.308   5.038   5.173
 1005WAT     OW 5021   0.404   1.492   5.882
 1005WAT    HW1 5022   0.484   1.469   5.930
 1005WAT    HW2 5023   0.432   1.560   5.820
 1005WAT    LP1 5024   0.379   1.436   5.848
 1005WAT    LP2 5025   0.356   1.517   5.926
 1006WAT     OW 5026   4.782   1.401   5.331
 1006WAT    HW1 5027   4.753   1.453   5.406
 1006WAT    HW2 5028   4.793   1.465   5.261
 1006WAT    LP1 5029   4.843   1.369   5.346
 1006WAT    LP2 5030   4.734   1.353   5.314
 1007WAT     OW 5031   2.449   0.748   3.781
 1007WAT    HW1 5032   2.475   0.706   3.863
 1007WAT    HW2 5033   2.519   0.726   3.720
 1007WAT    LP1 5034   2.387   0.723   3.759
 1007WAT    LP2 5035   2.444   0.817   3.790
 1008WAT     OW 5036   5.866   0.219   4.099
 1008WAT    HW1 5037   5.871   0.281   4.027
 1008WAT    HW2 5038   5.779   0.233   4.137
 1008WAT    LP1 5039   5.872   0.153   4.075
 1008WAT    LP2 5040   5.916   0.231   4.146
 1009WAT     OW 5041   1.025   3.702   2.144
 1009WAT    HW1 5042   1.061   3.777   2.192
 1009WAT    HW2 5043   0.948   3.676   2.194
 1009WAT    LP1 5044   1.007   3.720   2.079
 1009WAT    LP2 5045   1.072   3.650   2.141
 1010WAT     OW 5046   5.794   2.982   3.720
 1010WAT    HW1 5047   5.720   2.931   3.750
 1010WAT    HW2 5048   5.851   2.919   3.675
 1010WAT    LP1 5049   5.773   3.032   3.675
 1010WAT    LP2 5050   5.828   3.012   3.773
 1011WAT     OW 5051   1.451   5.464   4.308
 1011WAT    HW1 5052   1.392   5.515   4.363
 1011WAT    HW2 5053   1.405   5.382   4.292
 1011WAT    LP1 5054   1.464   5.498   4.248
 1011WAT    LP2 5055   1.512   5.453   4.341
 1012WAT     OW 5056   1.562   0.672   3.666
 1012WAT    HW1 5057   1.557   0.580   3.692
 1012WAT    HW2 5058   1.507   0.718   3.729
 1012WAT    LP1 5059   1.628   0.695   3.669
 1012WAT    LP2 5060   1.537   0.680   3.601
 1013WAT     OW 5061   2.142   6.401   3.561
 1013WAT    HW1 5062   2.103   6.398   3.648
 1013WAT    HW2 5063   2.215   6.462   3.570
 1013WAT    LP1 5064   2.164   6.338   3.541
 1013WAT    LP2 5065   2.095   6.426   3.514
 1014WAT     OW 5066   5.412   2.055   2.287
 1014WAT    HW1 5067   5.423   2.073   2.194
 1014WAT    HW2 5068   5.396   2.140   2.326
 1014WAT    LP1 5069   5.357   2.012   2.297
 1014WAT    LP2 5070   5.469   2.025   2.313
 1015WAT     OW 5071   3.303   1.333   6.145
 1015WAT    HW1 5072   3.242   1.393   6.101
 1015WAT    HW2 5073   3.368   1.312   6.077
 1015WAT    LP1 5074   3.334   1.365   6.199
 1015WAT    LP2 5075   3.270   1.276   6.167
 1016WAT     OW 5076   5.266   0.286   1.222
 1016WAT    HW1 5077   5.222   0.270   1.305
 1016WAT    HW2 5078   5.303   0.202   1.196
 1016WAT    LP1 5079   5.221   0.309   1.173
 1016WAT    LP2 5080   5.317   0.334   1.230
 1017WAT     OW 5081   1.790   2.015   2.046
 1017WAT    HW1 5082   1.733   2.080   2.003
 1017WAT    HW2 5083   1.737   1.936   2.050
 1017WAT    LP1 5084   1.848   2.005   2.009
 1017WAT    LP2 5085   1.807   2.037   2.111
 1018WAT     OW 5086   6.526   4.628   5.021
 1018WAT    HW1 5087   6.588   4.621   4.949
 1018WAT    HW2 5088   6.567   4.687   5.084
 1018WAT    LP1 5089   6.465   4.654   4.999
 1018WAT    LP2 5090   6.515   4.565   5.050
 1019WAT     OW 5091   4.345   0.833   5.876
 1019WAT    HW1 5092   4.374   0.824   5.966
 1019WAT    HW2 5093   4.252   0.854   5.883
 1019WAT    LP1 5094   4.379   0.885   5.843
 1019WAT    LP2 5095   4.354   0.773   5.840
 1020WAT     OW 5096   3.099   5.233   1.647
 1020WAT    HW1 5097   3.029   5.189   1.599
 1020WAT    HW2 5098   3.072   5.325   1.653
 1020WAT    LP1 5099   3.106   5.206   1.711
 1020WAT    LP2 5100   3.160   5.228   1.613
 1021WAT     OW 5101   3.945   3.566   0.246
 1021WAT    HW1 5102   3.998   3.486   0.241
 1021WAT    HW2 5103   3.945   3.589   0.339
 1021WAT    LP1 5104   3.973   3.617   0.207
 1021WAT    LP2 5105   3.880   3.553   0.224
 1022WAT     OW 5106   6.277   0.783   3.468
 1022WAT    HW1 5107   6.253   0.873   3.446
 1022WAT    HW2 5108   6.200   0.732   3.443
 1022WAT    LP1 5109   6.333   0.763   3.432
 1022WAT    LP2 5110   6.289   0.777   3.537
 1023WAT     OW 5111   3.346   1.016   6.446
 1023WAT    HW1 5112   3.291   1.044   6.372
 1023WAT    HW2 5113   3.289   0.962   6.500
 1023WAT    LP1 5114   3.401   0.979   6.423
 1023WAT    LP2 5115   3.369   1.072   6.482
 1024WAT     OW 5116   2.217   3.438   1.656
 1024WAT    HW1 5117   2.125   3.443   1.681
 1024WAT    HW2 5118   2.251   3.362   1.703
 1024WAT    LP1 5119   2.223   3.429   1.586
 1024WAT    LP2 5120   2.251   3.496   1.675
 1025WAT     OW 5121   5.903   0.920   3.602
 1025WAT    HW1 5122   5.965   0.993   3.605
 1025WAT    HW2 5123   5.851   0.935   3.523
 1025WAT    LP1 5124   5.937   0.859   3.597
 1025WAT    LP2 5125   5.862   0.919   3.659
 1026WAT     OW 5126   0.372   1.866   6.471
 1026WAT    HW1 5127   0.321   1.916   6.408
 1026WAT    HW2 5128   0.358   1.911   6.554
 1026WAT    LP1 5129   0.349   1.800   6.474
 1026WAT    LP2 5130   0.440   1.867   6.454
 1027WAT     OW 5131   6.073   4.407   1.373
 1027WAT    HW1 5132   6.070   4.316   1.402
 1027WAT    HW2 5133   6.030   4.406   1.287
 1027WAT    LP1 5134   6.038   4.448   1.417
 1027WAT    LP2 5135   6.139   4.429   1.367
 1028WAT     OW 5136   3.858   1.206   4.320
 1028WAT    HW1 5137   3.908   1.128   4.345
 1028WAT    HW2 5138   3.797   1.220   4.393
 1028WAT    LP1 5139   3.901   1.261   4.313
 1028WAT    LP2 5140   3.823   1.195   4.261
 1029WAT     OW 5141   4.959   1.167   0.718
 1029WAT    HW1 5142   4.990   1.257   0.719
 1029WAT    HW2 5143   4.975   1.136   0.629
 1029WAT    LP1 5144   4.994   1.128   0.764
 1029WAT    LP2 5145   4.890   1.164   0.733
 1030WAT     OW 5146   4.028   4.751   3.856
 1030WAT    HW1 5147   4.005   4.675   3.909
 1030WAT    HW2 5148   3.983   4.825   3.898
 1030WAT    LP1 5149   4.097   4.761   3.856
 1030WAT    LP2 5150   4.006   4.743   3.790
 1031WAT     OW 5151   5.358   6.314   2.367
 1031WAT    HW1 5152   5.267   6.310   2.398
 1031WAT    HW2 5153   5.359   6.387   2.305
 1031WAT    LP1 5154   5.401   6.327   2.421
 1031WAT    LP2 5155   5.377   6.255   2.336
 1032WAT     OW 5156   3.240   3.757   0.431
 1032WAT    HW1 5157   3.255   3.847   0.404
 1032WAT    HW2 5158   3.296   3.704   0.374
 1032WAT    LP1 5159   3.258   3.748   0.499
 1032WAT    LP2 5160   3.172   3.739   0.423
 1033WAT     OW 5161   3.358   3.711   1.122
 1033WAT    HW1 5162   3.274   3.667   1.108
 1033WAT    HW2 5163   3.415   3.642   1.157
 1033WAT    LP1 5164   3.383   3.736   1.062
 1033WAT    LP2 5165   3.350   3.763   1.169
 1034WAT     OW 5166   5.112   4.134   5.368
 1034WAT    HW1 5167   5.172   4.091   5.306
 1034WAT    HW2 5168   5.027   4.129   5.326
 1034WAT    LP1 5169   5.112   4.100   5.429
 1034WAT    LP2 5170   5.131   4.200   5.378
 1035WAT     OW 5171   5.579   5.302   0.178
 1035WAT    HW1 5172   5.569   5.281   0.271
 1035WAT    HW2 5173   5.555   5.221   0.132
 1035WAT    LP1 5174   5.537   5.354   0.160
 1035WAT    LP2 5175   5.646   5.319   0.163
 1036WAT     OW 5176   6.600   2.994   3.698
 1036WAT    HW1 5177   6.534   2.931   3.669
 1036WAT    HW2 5178   6.584   3.072   3.645
 1036WAT    LP1 5179   6.593   3.009   3.766
 1036WAT    LP2 5180   6.665   2.969   3.686
 1037WAT     OW 5181   4.704   1.648   4.172
 1037WAT    HW1 5182   4.611   1.625   4.165
 1037WAT    HW2 5183   4.714   1.723   4.113
 1037WAT    LP1 5184   4.720   1.666   4.237
 1037WAT    LP2 5185   4.744   1.595   4.151
 1038WAT     OW 5186   6.480   2.958   2.134
 1038WAT    HW1 5187   6.437   3.023   2.079
 1038WAT    HW2 5188   6.484   2.879   2.080
 1038WAT    LP1 5189   6.545   2.979   2.151
 1038WAT    LP2 5190   6.443   2.946   2.192
 1039WAT     OW 5191   3.301   4.022   2.385
 1039WAT    HW1 5192   3.279   3.937   2.424
 1039WAT    HW2 5193   3.311   4.081   2.460
 1039WAT    LP1 5194   3.360   4.017   2.349
 1039WAT    LP2 5195   3.249   4.044   2.343
 1040WAT     OW 5196   1.380   4.081   5.189
 1040WAT    HW1 5197   1.405   4.006   5.242
 1040WAT    HW2 5198   1.414   4.157   5.237
 1040WAT    LP1 5199   1.409   4.077   5.126
 1040WAT    LP2 5200   1.310   4.085   5.183
 1041WAT     OW 5201   5.073   3.160   2.244
 1041WAT    HW1 5202   5.000   3.219   2.224
 1041WAT    HW2 5203   5.046   3.114   2.323
 1041WAT    LP1 5204   5.083   3.115   2.191
 1041WAT    LP2 5205   5.132   3.197   2.255
 1042WAT     OW 5206   6.030   2.217   3.094
 1042WAT    HW1 5207   5.986   2.300   3.077
 1042WAT    HW2 5208   6.122   2.233   3.074
 1042WAT    LP1 5209   6.022   2.198   3.161
 1042WAT    LP2 5210   6.004   2.166   3.053
 1043WAT     OW 5211   3.858   4.922   0.450
 1043WAT    HW1 5212   3.874   4.832   0.476
 1043WAT    HW2 5213   3.773   4.944   0.489
 1043WAT    LP1 5214   3.908   4.965   0.474
 1043WAT    LP2 5215   3.855   4.927   0.380
 1044WAT     OW 5216   4.550   6.419   5.293
 1044WAT    HW1 5217   4.499   6.457   5.221
 1044WAT    HW2 5218   4.594   6.493   5.334
 1044WAT    LP1 5219   4.507   6.387   5.339
 1044WAT    LP2 5220   4.596   6.373   5.269
 1045WAT     OW 5221   1.425   2.590   4.326
 1045WAT    HW1 5222   1.486   2.517   4.336
 1045WAT    HW2 5223   1.450   2.652   4.394
 1045WAT    LP1 5224   1.432   2.620   4.262
 1045WAT    LP2 5225   1.359   2.569   4.334
 1046WAT     OW 5226   4.973   2.187   0.057
 1046WAT    HW1 5227   4.879   2.169   0.053
 1046WAT    HW2 5228   4.991   2.200   0.151
 1046WAT    LP1 5229   5.010   2.132   0.033
 1046WAT    LP2 5230   4.990   2.244   0.021
 1047WAT     OW 5231   2.911   5.051   4.168
 1047WAT    HW1 5232   2.879   4.967   4.135
 1047WAT    HW2 5233   2.955   5.091   4.092
 1047WAT    LP1 5234   2.858   5.091   4.189
 1047WAT    LP2 5235   2.956   5.041   4.220
 1048WAT     OW 5236   0.466   2.279   6.162
 1048WAT    HW1 5237   0.371   2.264   6.162
 1048WAT    HW2 5238   0.503   2.202   6.204
 1048WAT    LP1 5239   0.489   2.286   6.097
 1048WAT    LP2 5240   0.481   2.337   6.198
 1049WAT     OW 5241   0.240   0.760   0.878
 1049WAT    HW1 5242   0.177   0.797   0.941
 1049WAT    HW2 5243   0.309   0.826   0.872
 1049WAT    LP1 5244   0.265   0.699   0.902
 1049WAT    LP2 5245   0.209   0.750   0.816
 1050WAT     OW 5246   1.410   2.890   3.712
 1050WAT    HW1 5247   1.432   2.873   3.803
 1050WAT    HW2 5248   1.330   2.943   3.716
 1050WAT    LP1 5249   1.461   2.924   3.680
 1050WAT    LP2 5250   1.397   2.830   3.678
 1051WAT     OW 5251   1.873   0.042   5.213
 1051WAT    HW1 5252   1.907   0.025   5.301
 1051WAT    HW2 5253   1.950   0.036   5.156
 1051WAT    LP1 5254   1.825  -0.005   5.195
 1051WAT    LP2 5255   1.845   0.106   5.210
 1052WAT     OW 5256   2.587   3.952   2.831
 1052WAT    HW1 5257   2.524   3.995   2.774
 1052WAT    HW2 5258   2.552   3.963   2.919
 1052WAT    LP1 5259   2.593   3.884   2.815
 1052WAT    LP2 5260   2.650   3.983   2.826
 1053WAT     OW 5261   4.708   3.731   0.023
 1053WAT    HW1 5262   4.680   3.700  -0.063
 1053WAT    HW2 5263   4.640   3.701   0.082
 1053WAT    LP1 5264   4.770   3.704   0.040
 1053WAT    LP2 5265   4.712   3.801   0.024
 1054WAT     OW 5266   0.228   5.113   2.864
 1054WAT    HW1 5267   0.320   5.118   2.889
 1054WAT    HW2 5268   0.185   5.068   2.937
 1054WAT    LP1 5269   0.201   5.177   2.856
 1054WAT    LP2 5270   0.220   5.077   2.804
 1055WAT     OW 5271   6.597   4.763   1.606
 1055WAT    HW1 5272   6.578   4.838   1.550
 1055WAT    HW2 5273   6.630   4.802   1.687
 1055WAT    LP1 5274   6.539   4.726   1.618
 1055WAT    LP2 5275   6.646   4.722   1.577
 1056WAT     OW 5276   5.892   2.331   4.224
 1056WAT    HW1 5277   5.947   2.408   4.209
 1056WAT    HW2 5278   5.803   2.360   4.205
 1056WAT    LP1 5279   5.910   2.279   4.181
 1056WAT    LP2 5280   5.897   2.309   4.290
 1057WAT     OW 5281   5.374   4.643   6.362
 1057WAT    HW1 5282   5.449   4.584   6.350
 1057WAT    HW2 5283   5.306   4.587   6.399
 1057WAT    LP1 5284   5.391   4.695   6.407
 1057WAT    LP2 5285   5.354   4.670   6.301
 1058WAT     OW 5286   1.273   1.018   4.172
 1058WAT    HW1 5287   1.247   1.021   4.264
 1058WAT    HW2 5288   1.199   0.976   4.128
 1058WAT    LP1 5289   1.283   1.083   4.147
 1058WAT    LP2 5290   1.331   0.980   4.164
 1059WAT     OW 5291   2.871   4.941   3.275
 1059WAT    HW1 5292   2.923   4.884   3.218
 1059WAT    HW2 5293   2.832   5.006   3.215
 1059WAT    LP1 5294   2.821   4.905   3.307
 1059WAT    LP2 5295   2.911   4.973   3.322
 1060WAT     OW 5296   0.425   4.759   5.934
 1060WAT    HW1 5297   0.380   4.836   5.899
 1060WAT    HW2 5298   0.473   4.724   5.859
 1060WAT    LP1 5299   0.469   4.777   5.986
 1060WAT    LP2 5300   0.379   4.712   5.958
 1061WAT     OW 5301   6.201   3.318   6.416
 1061WAT    HW1 5302   6.126   3.304   6.359
 1061WAT    HW2 5303   6.274   3.275   6.371
 1061WAT    LP1 5304   6.214   3.386   6.425
 1061WAT    LP2 5305   6.190   3.289   6.479
 1062WAT     OW 5306   1.455   5.774   2.834
 1062WAT    HW1 5307   1.535   5.810   2.794
 1062WAT    HW2 5308   1.471   5.778   2.928
 1062WAT    LP1 5309   1.399   5.813   2.817
 1062WAT    LP2 5310   1.445   5.708   2.813
 1063WAT     OW 5311   4.458   2.739   0.597
 1063WAT    HW1 5312   4.446   2.792   0.518
 1063WAT    HW2 5313   4.490   2.801   0.662
 1063WAT    LP1 5314   4.397   2.712   0.617
 1063WAT    LP2 5315   4.504   2.688   0.586
 1064WAT     OW 5316   6.490   3.772   3.639
 1064WAT    HW1 5317   6.450   3.704   3.586
 1064WAT    HW2 5318   6.569   3.732   3.674
 1064WAT    LP1 5319   6.506   3.828   3.599
 1064WAT    LP2 5320   6.447   3.792   3.691
 1065WAT     OW 5321   4.081   4.543   3.499
 1065WAT    HW1 5322   4.174   4.537   3.521
 1065WAT    HW2 5323   4.079   4.550   3.404
 1065WAT    LP1 5324   4.047   4.485   3.520
 1065WAT    LP2 5325   4.051   4.599   3.529
 1066WAT     OW 5326   0.480   3.216   5.522
 1066WAT    HW1 5327   0.462   3.145   5.460
 1066WAT    HW2 5328   0.575   3.226   5.520
 1066WAT    LP1 5329   0.448   3.275   5.501
 1066WAT    LP2 5330   0.458   3.199   5.586
 1067WAT     OW 5331   1.284   3.689   5.968
 1067WAT    HW1 5332   1.264   3.741   5.890
 1067WAT    HW2 5333   1.208   3.703   6.025
 1067WAT    LP1 5334   1.291   3.621   5.952
 1067WAT    LP2 5335   1.343   3.712   5.999
 1068WAT     OW 5336   6.235   3.638   1.978
 1068WAT    HW1 5337   6.148   3.669   2.001
 1068WAT    HW2 5338   6.289   3.660   2.054
 1068WAT    LP1 5339   6.235   3.569   1.966
 1068WAT    LP2 5340   6.259   3.672   1.921
 1069WAT     OW 5341   3.877   1.584   1.043
 1069WAT    HW1 5342   3.806   1.636   1.081
 1069WAT    HW2 5343   3.876   1.503   1.094
 1069WAT    LP1 5344   3.864   1.571   0.976
 1069WAT    LP2 5345   3.938   1.617   1.050
 1070WAT     OW 5346   3.835   0.297   5.943
 1070WAT    HW1 5347   3.887   0.350   6.004
 1070WAT    HW2 5348   3.900   0.250   5.891
 1070WAT    LP1 5349   3.794   0.252   5.979
 1070WAT    LP2 5350   3.795   0.338   5.903
 1071WAT     OW 5351   5.626   0.476   4.001
 1071WAT    HW1 5352   5.706   0.507   4.042
 1071WAT    HW2 5353   5.561   0.476   4.071
 1071WAT    LP1 5354   5.606   0.519   3.949
 1071WAT    LP2 5355   5.635   0.411   3.975
 1072WAT     OW 5356   1.018   1.097   0.192
 1072WAT    HW1 5357   1.046   1.183   0.224
 1072WAT    HW2 5358   1.082   1.075   0.125
 1072WAT    LP1 5359   1.019   1.050   0.244
 1072WAT    LP2 5360   0.953   1.100   0.165
 1073WAT     OW 5361   2.624   3.242   6.214
 1073WAT    HW1 5362   2.573   3.263   6.136
 1073WAT    HW2 5363   2.708   3.212   6.180
 1073WAT    LP1 5364   2.633   3.299   6.254
 1073WAT    LP2 5365   2.593   3.192   6.251
 1074WAT     OW 5366   4.109   0.635   2.320
 1074WAT    HW1 5367   4.138   0.546   2.304
 1074WAT    HW2 5368   4.162   0.689   2.261
 1074WAT    LP1 5369   4.041   0.642   2.306
 1074WAT    LP2 5370   4.121   0.653   2.387
 1075WAT     OW 5371   2.602   5.335   1.323
 1075WAT    HW1 5372   2.571   5.351   1.412
 1075WAT    HW2 5373   2.665   5.264   1.332
 1075WAT    LP1 5374   2.549   5.317   1.281
 1075WAT    LP2 5375   2.633   5.392   1.297
 1076WAT     OW 5376   0.404   6.635   5.766
 1076WAT    HW1 5377   0.499   6.627   5.766
 1076WAT    HW2 5378   0.387   6.725   5.792
 1076WAT    LP1 5379   0.378   6.623   5.702
 1076WAT    LP2 5380   0.376   6.590   5.812
 1077WAT     OW 5381   2.276   2.385   6.177
 1077WAT    HW1 5382   2.330   2.454   6.138
 1077WAT    HW2 5383   2.199   2.431   6.211
 1077WAT    LP1 5384   2.257   2.338   6.128
 1077WAT    LP2 5385   2.310   2.352   6.228
 1078WAT     OW 5386   6.510   6.600   4.388
 1078WAT    HW1 5387   6.531   6.629   4.477
 1078WAT    HW2 5388   6.577   6.641   4.333
 1078WAT    LP1 5389   6.513   6.530   4.384
 1078WAT    LP2 5390   6.446   6.622   4.370
 1079WAT     OW 5391   4.077   2.901   0.958
 1079WAT    HW1 5392   4.161   2.856   0.969
 1079WAT    HW2 5393   4.036   2.898   1.044
 1079WAT    LP1 5394   4.087   2.968   0.938
 1079WAT    LP2 5395   4.038   2.869   0.910
 1080WAT     OW 5396   5.347   2.996   4.800
 1080WAT    HW1 5397   5.437   3.027   4.794
 1080WAT    HW2 5398   5.345   2.945   4.881
 1080WAT    LP1 5399   5.303   3.050   4.804
 1080WAT    LP2 5400   5.331   2.956   4.745
 1081WAT     OW 5401   1.646   5.863   4.863
 1081WAT    HW1 5402   1.561   5.884   4.824
 1081WAT    HW2 5403   1.636   5.884   4.955
 1081WAT    LP1 5404   1.661   5.795   4.854
 1081WAT    LP2 5405   1.697   5.901   4.834
 1082WAT     OW 5406   4.355   0.059   2.311
 1082WAT    HW1 5407   4.275   0.083   2.357
 1082WAT    HW2 5408   4.426   0.094   2.364
 1082WAT    LP1 5409   4.361  -0.011   2.305
 1082WAT    LP2 5410   4.356   0.087   2.246
 1083WAT     OW 5411   2.901   6.011   0.207
 1083WAT    HW1 5412   2.928   5.919   0.204
 1083WAT    HW2 5413   2.976   6.056   0.246
 1083WAT    LP1 5414   2.888   6.035   0.142
 1083WAT    LP2 5415   2.844   6.018   0.246
 1084WAT     OW 5416   2.678   1.417   0.746
 1084WAT    HW1 5417   2.708   1.493   0.795
 1084WAT    HW2 5418   2.596   1.391   0.788
 1084WAT    LP1 5419   2.667   1.434   0.679
 1084WAT    LP2 5420   2.725   1.365   0.749
 1085WAT     OW 5421   3.154   2.551   6.266
 1085WAT    HW1 5422   3.249   2.543   6.262
 1085WAT    HW2 5423   3.129   2.585   6.180
 1085WAT    LP1 5424   3.124   2.489   6.278
 1085WAT    LP2 5425   3.135   2.596   6.317
 1086WAT     OW 5426   4.277   5.198   1.190
 1086WAT    HW1 5427   4.301   5.125   1.133
 1086WAT    HW2 5428   4.350   5.206   1.252
 1086WAT    LP1 5429   4.269   5.257   1.153
 1086WAT    LP2 5430   4.217   5.184   1.224
 1087WAT     OW 5431   4.804   4.525   0.745
 1087WAT    HW1 5432   4.837   4.458   0.805
 1087WAT    HW2 5433   4.835   4.496   0.659
 1087WAT    LP1 5434   4.734   4.528   0.746
 1087WAT    LP2 5435   4.831   4.587   0.760
 1088WAT     OW 5436   5.217   4.860   4.460
 1088WAT    HW1 5437   5.223   4.914   4.381
 1088WAT    HW2 5438   5.263   4.779   4.438
 1088WAT    LP1 5439   5.248   4.892   4.514
 1088WAT    LP2 5440   5.150   4.847   4.476
 1089WAT     OW 5441   2.758   3.165   1.386
 1089WAT    HW1 5442   2.681   3.202   1.343
 1089WAT    HW2 5443   2.796   3.106   1.321
 1089WAT    LP1 5444   2.803   3.215   1.404
 1089WAT    LP2 5445   2.739   3.129   1.444
 1090WAT     OW 5446   1.842   5.920   3.117
 1090WAT    HW1 5447   1.845   5.975   3.194
 1090WAT    HW2 5448   1.888   5.969   3.049
 1090WAT    LP1 5449   1.874   5.858   3.129
 1090WAT    LP2 5450   1.775   5.908   3.098
 1091WAT     OW 5451   4.629   2.268   1.913
 1091WAT    HW1 5452   4.537   2.292   1.914
 1091WAT    HW2 5453   4.649   2.247   2.004
 1091WAT    LP1 5454   4.640   2.212   1.872
 1091WAT    LP2 5455   4.669   2.321   1.891
 1092WAT     OW 5456   6.408   0.875   4.922
 1092WAT    HW1 5457   6.502   0.874   4.943
 1092WAT    HW2 5458   6.386   0.968   4.920
 1092WAT    LP1 5459   6.396   0.845   4.860
 1092WAT    LP2 5460   6.372   0.842   4.972
 1093WAT     OW 5461   2.722   6.333   1.317
 1093WAT    HW1 5462   2.750   6.289   1.237
 1093WAT    HW2 5463   2.799   6.381   1.347
 1093WAT    LP1 5464   2.669   6.377   1.304
 1093WAT    LP2 5465   2.702   6.286   1.365
 1094WAT     OW 5466   4.410   2.756   1.234
 1094WAT    HW1 5467   4.385   2.764   1.142
 1094WAT    HW2 5468   4.334   2.716   1.275
 1094WAT    LP1 5469   4.467   2.716   1.241
 1094WAT    LP2 5470   4.423   2.819   1.261
 1095WAT     OW 5471   5.272   2.191   5.504
 1095WAT    HW1 5472   5.327   2.117   5.529
 1095WAT    HW2 5473   5.270   2.247   5.582
 1095WAT    LP1 5474   5.300   2.225   5.450
 1095WAT    LP2 5475   5.208   2.170   5.487
 1096WAT     OW 5476   2.566   0.587   1.244
 1096WAT    HW1 5477   2.546   0.678   1.222
 1096WAT    HW2 5478   2.493   0.559   1.299
 1096WAT    LP1 5479   2.570   0.548   1.186
 1096WAT    LP2 5480   2.627   0.583   1.279
 1097WAT     OW 5481   1.518   3.808   6.063
 1097WAT    HW1 5482   1.521   3.800   6.158
 1097WAT    HW2 5483   1.435   3.766   6.038
 1097WAT    LP1 5484   1.518   3.875   6.043
 1097WAT    LP2 5485   1.572   3.774   6.034
 1098WAT     OW 5486   1.582   2.075   1.043
 1098WAT    HW1 5487   1.654   2.096   0.984
 1098WAT    HW2 5488   1.504   2.078   0.988
 1098WAT    LP1 5489   1.590   2.012   1.071
 1098WAT    LP2 5490   1.578   2.123   1.095
 1099WAT     OW 5491   2.111   6.167   5.770
 1099WAT    HW1 5492   2.131   6.202   5.856
 1099WAT    HW2 5493   2.172   6.212   5.711
 1099WAT    LP1 5494   2.122   6.098   5.768
 1099WAT    LP2 5495   2.045   6.181   5.751
 1100WAT     OW 5496   2.438   5.846   3.190
 1100WAT    HW1 5497   2.527   5.813   3.176
 1100WAT    HW2 5498   2.381   5.774   3.162
 1100WAT    LP1 5499   2.428   5.860   3.258
 1100WAT    LP2 5500   2.426   5.903   3.153
 1101WAT     OW 5501   1.213   2.324   2.229
 1101WAT    HW1 5502   1.125   2.301   2.199
 1101WAT    HW2 5503   1.228   2.266   2.304
 1101WAT    LP1 5504   1.260   2.312   2.179
 1101WAT    LP2 5505   1.216   2.391   2.248
 1102WAT     OW 5506   5.901   1.424   5.981
 1102WAT    HW1 5507   5.838   1.356   5.955
 1102WAT    HW2 5508   5.979   1.374   6.008
 1102WAT    LP1 5509   5.916   1.465   5.926
 1102WAT    LP2 5510   5.877   1.462   6.034
 1103WAT     OW 5511   2.644   4.536   0.457
 1103WAT    HW1 5512   2.621   4.621   0.496
 1103WAT    HW2 5513   2.562   4.486   0.459
 1103WAT    LP1 5514   2.666   4.544   0.392
 1103WAT    LP2 5515   2.693   4.504   0.495
 1104WAT     OW 5516   4.155   6.639   3.265
 1104WAT    HW1 5517   4.114   6.558   3.296
 1104WAT    HW2 5518   4.096   6.672   3.197
 1104WAT    LP1 5519   4.161   6.685   3.317
 1104WAT    LP2 5520   4.218   6.626   3.238
 1105WAT     OW 5521   4.255   1.362   0.350
 1105WAT    HW1 5522   4.215   1.426   0.409
 1105WAT    HW2 5523   4.230   1.391   0.262
 1105WAT    LP1 5524   4.325   1.361   0.357
 1105WAT    LP2 5525   4.230   1.297   0.363
 1106WAT     OW 5526   4.981   3.581   0.957
 1106WAT    HW1 5527   5.014   3.498   0.923
 1106WAT    HW2 5528   4.906   3.557   1.011
 1106WAT    LP1 5529   5.030   3.613   0.996
 1106WAT    LP2 5530   4.962   3.623   0.905
 1107WAT     OW 5531   3.764   1.824   4.449
 1107WAT    HW1 5532   3.757   1.733   4.420
 1107WAT    HW2 5533   3.857   1.845   4.441
 1107WAT    LP1 5534   3.726   1.866   4.408
 1107WAT    LP2 5535   3.743   1.831   4.515
 1108WAT     OW 5536   1.135   0.223   6.636
 1108WAT    HW1 5537   1.068   0.286   6.663
 1108WAT    HW2 5538   1.133   0.156   6.704
 1108WAT    LP1 5539   1.119   0.195   6.574
 1108WAT    LP2 5540   1.198   0.253   6.633
 1109WAT     OW 5541   0.179   1.977   6.302
 1109WAT    HW1 5542   0.185   2.056   6.248
 1109WAT    HW2 5543   0.132   1.915   6.248
 1109WAT    LP1 5544   0.243   1.954   6.317
 1109WAT    LP2 5545   0.144   1.990   6.361
 1110WAT     OW 5546   3.020   5.595   4.589
 1110WAT    HW1 5547   3.055   5.684   4.593
 1110WAT    HW2 5548   3.001   5.573   4.680
 1110WAT    LP1 5549   2.961   5.593   4.550
 1110WAT    LP2 5550   3.067   5.551   4.561
 1111WAT     OW 5551   3.173   3.366   4.733
 1111WAT    HW1 5552   3.218   3.292   4.774
 1111WAT    HW2 5553   3.119   3.327   4.664
 1111WAT    LP1 5554   3.133   3.400   4.780
 1111WAT    LP2 5555   3.219   3.411   4.706
 1112WAT     OW 5556   3.948   6.236   0.312
 1112WAT    HW1 5557   3.937   6.154   0.264
 1112WAT    HW2 5558   3.870   6.242   0.367
 1112WAT    LP1 5559   4.006   6.233   0.351
 1112WAT    LP2 5560   3.952   6.290   0.268
 1113WAT     OW 5561   1.558   2.908   2.655
 1113WAT    HW1 5562   1.548   2.872   2.744
 1113WAT    HW2 5563   1.652   2.899   2.637
 1113WAT    LP1 5564   1.521   2.871   2.609
 1113WAT    LP2 5565   1.539   2.975   2.653
 1114WAT     OW 5566   5.134   4.532   5.094
 1114WAT    HW1 5567   5.066   4.524   5.161
 1114WAT    HW2 5568   5.215   4.543   5.143
 1114WAT    LP1 5569   5.137   4.474   5.054
 1114WAT    LP2 5570   5.122   4.588   5.053
 1115WAT     OW 5571   3.703   4.725   0.805
 1115WAT    HW1 5572   3.633   4.783   0.835
 1115WAT    HW2 5573   3.666   4.637   0.812
 1115WAT    LP1 5574   3.720   4.739   0.739
 1115WAT    LP2 5575   3.759   4.731   0.846
 1116WAT     OW 5576   5.768   0.916   5.632
 1116WAT    HW1 5577   5.737   0.937   5.720
 1116WAT    HW2 5578   5.858   0.887   5.644
 1116WAT    LP1 5579   5.729   0.865   5.603
 1116WAT    LP2 5580   5.766   0.972   5.590
 1117WAT     OW 5581   2.736   2.789   1.342
 1117WAT    HW1 5582   2.775   2.809   1.427
 1117WAT    HW2 5583   2.770   2.702   1.320
 1117WAT    LP1 5584   2.666   2.788   1.346
 1117WAT    LP2 5585   2.756   2.836   1.294
 1118WAT     OW 5586   0.921   5.462   0.822
 1118WAT    HW1 5587   0.987   5.490   0.759
 1118WAT    HW2 5588   0.949   5.376   0.851
 1118WAT    LP1 5589   0.918   5.507   0.876
 1118WAT    LP2 5590   0.858   5.459   0.792
 1119WAT     OW 5591   0.530   3.710   3.682
 1119WAT    HW1 5592   0.560   3.749   3.600
 1119WAT    HW2 5593   0.476   3.635   3.654
 1119WAT    LP1 5594   0.584   3.689   3.720
 1119WAT    LP2 5595   0.492   3.756   3.718
 1120WAT     OW 5596   5.844   1.558   3.378
 1120WAT    HW1 5597   5.879   1.598   3.298
 1120WAT    HW2 5598   5.752   1.584   3.380
 1120WAT    LP1 5599   5.851   1.489   3.377
 1120WAT    LP2 5600   5.877   1.584   3.435
 1121WAT     OW 5601   4.969   3.360   2.825
 1121WAT    HW1 5602   5.051   3.331   2.864
 1121WAT    HW2 5603   4.901   3.309   2.869
 1121WAT    LP1 5604   4.960   3.429   2.836
 1121WAT    LP2 5605   4.969   3.348   2.756
 1122WAT     OW 5606   5.244   2.366   1.692
 1122WAT    HW1 5607   5.157   2.368   1.654
 1122WAT    HW2 5608   5.291   2.299   1.641
 1122WAT    LP1 5609   5.276   2.428   1.686
 1122WAT    LP2 5610   5.242   2.348   1.759
 1123WAT     OW 5611   3.219   5.081   2.523
 1123WAT    HW1 5612   3.189   5.160   2.477
 1123WAT    HW2 5613   3.313   5.078   2.505
 1123WAT    LP1 5614   3.207   5.087   2.591
 1123WAT    LP2 5615   3.187   5.024   2.498
 1124WAT     OW 5616   5.859   3.381   3.946
 1124WAT    HW1 5617   5.899   3.295   3.932
 1124WAT    HW2 5618   5.848   3.416   3.858
 1124WAT    LP1 5619   5.798   3.375   3.978
 1124WAT    LP2 5620   5.902   3.422   3.983
 1125WAT     OW 5621   2.313   2.010   0.403
 1125WAT    HW1 5622   2.239   1.959   0.436
 1125WAT    HW2 5623   2.338   1.965   0.322
 1125WAT    LP1 5624   2.293   2.076   0.389
 1125WAT    LP2 5625   2.365   2.010   0.449
 1126WAT     OW 5626   4.839   2.017   2.934
 1126WAT    HW1 5627   4.818   2.068   2.856
 1126WAT    HW2 5628   4.902   2.071   2.982
 1126WAT    LP1 5629   4.781   2.006   2.972
 1126WAT    LP2 5630   4.868   1.955   2.917
 1127WAT     OW 5631   0.859   0.965   5.408
 1127WAT    HW1 5632   0.835   1.057   5.419
 1127WAT    HW2 5633   0.865   0.931   5.497
 1127WAT    LP1 5634   0.811   0.931   5.371
 1127WAT    LP2 5635   0.921   0.960   5.376
 1128WAT     OW 5636   2.673   5.543   4.011
 1128WAT    HW1 5637   2.665   5.638   4.020
 1128WAT    HW2 5638   2.582   5.513   4.007
 1128WAT    LP1 5639   2.707   5.527   3.952
 1128WAT    LP2 5640   2.706   5.516   4.066
 1129WAT     OW 5641   4.723   6.609   1.884
 1129WAT    HW1 5642   4.690   6.699   1.874
 1129WAT    HW2 5643   4.743   6.581   1.795
 1129WAT    LP1 5644   4.780   6.608   1.925
 1129WAT    LP2 5645   4.674   6.568   1.913
 1130WAT     OW 5646   4.285   1.857   1.006
 1130WAT    HW1 5647   4.262   1.764   1.006
 1130WAT    HW2 5648   4.201   1.903   1.012
 1130WAT    LP1 5649   4.326   1.872   1.060
 1130WAT    LP2 5650   4.318   1.874   0.946
 1131WAT     OW 5651   3.211   0.918   0.994
 1131WAT    HW1 5652   3.123   0.897   1.025
 1131WAT    HW2 5653   3.198   0.956   0.907
 1131WAT    LP1 5654   3.242   0.965   1.036
 1131WAT    LP2 5655   3.251   0.861   0.990
 1132WAT     OW 5656   3.012   1.580   2.551
 1132WAT    HW1 5657   3.101   1.552   2.572
 1132WAT    HW2 5658   2.983   1.628   2.629
 1132WAT    LP1 5659   3.011   1.621   2.495
 1132WAT    LP2 5660   2.971   1.524   2.540
 1133WAT     OW 5661   3.386   4.803   5.069
 1133WAT    HW1 5662   3.391   4.863   5.144
 1133WAT    HW2 5663   3.374   4.717   5.107
 1133WAT    LP1 5664   3.332   4.820   5.027
 1133WAT    LP2 5665   3.445   4.806   5.031
 1134WAT     OW 5666   1.160   2.041   0.575
 1134WAT    HW1 5667   1.166   1.946   0.589
 1134WAT    HW2 5668   1.108   2.051   0.496
 1134WAT    LP1 5669   1.129   2.071   0.630
 1134WAT    LP2 5670   1.224   2.069   0.567
 1135WAT     OW 5671   3.488   5.992   0.563
 1135WAT    HW1 5672   3.504   6.085   0.578
 1135WAT    HW2 5673   3.553   5.947   0.616
 1135WAT    LP1 5674   3.423   5.975   0.583
 1135WAT    LP2 5675   3.496   5.976   0.495
 1136WAT     OW 5676   2.876   3.186   6.119
 1136WAT    HW1 5677   2.912   3.269   6.150
 1136WAT    HW2 5678   2.951   3.127   6.117
 1136WAT    LP1 5679   2.827   3.162   6.163
 1136WAT    LP2 5680   2.848   3.194   6.055
 1137WAT     OW 5681   2.445   5.491   5.215
 1137WAT    HW1 5682   2.530   5.530   5.197
 1137WAT    HW2 5683   2.387   5.565   5.232
 1137WAT    LP1 5684   2.423   5.454   5.159
 1137WAT    LP2 5685   2.448   5.448   5.270
 1138WAT     OW 5686   4.099   5.957   2.175
 1138WAT    HW1 5687   4.059   5.885   2.126
 1138WAT    HW2 5688   4.172   5.985   2.121
 1138WAT    LP1 5689   4.053   6.009   2.185
 1138WAT    LP2 5690   4.122   5.934   2.238
 1139WAT     OW 5691   4.625   5.211   5.899
 1139WAT    HW1 5692   4.601   5.125   5.864
 1139WAT    HW2 5693   4.576   5.274   5.845
 1139WAT    LP1 5694   4.607   5.216   5.966
 1139WAT    LP2 5695   4.694   5.222   5.893
 1140WAT     OW 5696   0.731   2.165   4.997
 1140WAT    HW1 5697   0.749   2.078   4.961
 1140WAT    HW2 5698   0.733   2.153   5.091
 1140WAT    LP1 5699   0.781   2.210   4.976
 1140WAT    LP2 5700   0.669   2.188   4.976
 1141WAT     OW 5701   1.863   0.559   0.957
 1141WAT    HW1 5702   1.837   0.594   0.872
 1141WAT    HW2 5703   1.782   0.521   0.993
 1141WAT    LP1 5704   1.912   0.509   0.949
 1141WAT    LP2 5705   1.887   0.610   0.999
 1142WAT     OW 5706   4.806   0.891   4.081
 1142WAT    HW1 5707   4.803   0.983   4.052
 1142WAT    HW2 5708   4.758   0.843   4.013
 1142WAT    LP1 5709   4.872   0.869   4.085
 1142WAT    LP2 5710   4.775   0.884   4.143
 1143WAT     OW 5711   1.671   6.145   4.554
 1143WAT    HW1 5712   1.716   6.219   4.514
 1143WAT    HW2 5713   1.727   6.070   4.534
 1143WAT    LP1 5714   1.665   6.154   4.624
 1143WAT    LP2 5715   1.607   6.136   4.527
 1144WAT     OW 5716   0.305   2.955   1.320
 1144WAT    HW1 5717   0.318   2.932   1.411
 1144WAT    HW2 5718   0.383   3.007   1.297
 1144WAT    LP1 5719   0.301   2.898   1.279
 1144WAT    LP2 5720   0.247   2.994   1.312
 1145WAT     OW 5721   3.186   0.144   0.699
 1145WAT    HW1 5722   3.162   0.051   0.706
 1145WAT    HW2 5723   3.262   0.153   0.755
 1145WAT    LP1 5724   3.201   0.160   0.633
 1145WAT    LP2 5725   3.133   0.184   0.722
 1146WAT     OW 5726   0.661   1.349   5.354
 1146WAT    HW1 5727   0.602   1.301   5.295
 1146WAT    HW2 5728   0.711   1.405   5.296
 1146WAT    LP1 5729   0.624   1.386   5.400
 1146WAT    LP2 5730   0.703   1.304   5.388
 1147WAT     OW 5731   3.471   1.144   2.832
 1147WAT    HW1 5732   3.469   1.214   2.897
 1147WAT    HW2 5733   3.562   1.114   2.832
 1147WAT    LP1 5734   3.427   1.092   2.850
 1147WAT    LP2 5735   3.453   1.168   2.769
 1148WAT     OW 5736   6.563   0.611   6.597
 1148WAT    HW1 5737   6.591   0.652   6.515
 1148WAT    HW2 5738   6.486   0.560   6.574
 1148WAT    LP1 5739   6.614   0.570   6.623
 1148WAT    LP2 5740   6.547   0.660   6.644
 1149WAT     OW 5741   3.353   6.684   3.639
 1149WAT    HW1 5742   3.426   6.738   3.667
 1149WAT    HW2 5743   3.389   6.628   3.570
 1149WAT    LP1 5744   3.329   6.645   3.692
 1149WAT    LP2 5745   3.301   6.724   3.614
 1150WAT     OW 5746   0.271   2.184   3.854
 1150WAT    HW1 5747   0.291   2.229   3.772
 1150WAT    HW2 5748   0.205   2.119   3.830
 1150WAT    LP1 5749   0.328   2.154   3.881
 1150WAT    LP2 5750   0.244   2.230   3.901
 1151WAT     OW 5751   2.555   0.368   4.363
 1151WAT    HW1 5752   2.648   0.391   4.369
 1151WAT    HW2 5753   2.547   0.284   4.408
 1151WAT    LP1 5754   2.516   0.417   4.395
 1151WAT    LP2 5755   2.535   0.363   4.296
 1152WAT     OW 5756   2.824   0.603   2.834
 1152WAT    HW1 5757   2.771   0.524   2.841
 1152WAT    HW2 5758   2.914   0.573   2.849
 1152WAT    LP1 5759   2.818   0.632   2.771
 1152WAT    LP2 5760   2.805   0.650   2.883
 1153WAT     OW 5761   3.872   3.219   0.365
 1153WAT    HW1 5762   3.898   3.177   0.447
 1153WAT    HW2 5763   3.800   3.277   0.389
 1153WAT    LP1 5764   3.926   3.256   0.339
 1153WAT    LP2 5765   3.852   3.171   0.318
 1154WAT     OW 5766   1.213   5.329   1.940
 1154WAT    HW1 5767   1.277   5.274   1.987
 1154WAT    HW2 5768   1.267   5.388   1.887
 1154WAT    LP1 5769   1.172   5.290   1.899
 1154WAT    LP2 5770   1.174   5.365   1.985
 1155WAT     OW 5771   3.397   1.863   2.341
 1155WAT    HW1 5772   3.473   1.921   2.335
 1155WAT    HW2 5773   3.377   1.859   2.435
 1155WAT    LP1 5774   3.343   1.888   2.305
 1155WAT    LP2 5775   3.413   1.799   2.317
 1156WAT     OW 5776   2.744   2.416   1.507
 1156WAT    HW1 5777   2.802   2.340   1.509
 1156WAT    HW2 5778   2.734   2.441   1.599
 1156WAT    LP1 5779   2.772   2.468   1.470
 1156WAT    LP2 5780   2.682   2.398   1.480
 1157WAT     OW 5781   4.419   0.079   0.583
 1157WAT    HW1 5782   4.391  -0.004   0.620
 1157WAT    HW2 5783   4.499   0.102   0.630
 1157WAT    LP1 5784   4.432   0.073   0.514
 1157WAT    LP2 5785   4.370   0.128   0.592
 1158WAT     OW 5786   2.532   0.055   0.910
 1158WAT    HW1 5787   2.564   0.032   0.998
 1158WAT    HW2 5788   2.473  -0.016   0.887
 1158WAT    LP1 5789   2.497   0.116   0.912
 1158WAT    LP2 5790   2.585   0.060   0.865
 1159WAT     OW 5791   3.677   3.706   1.579
 1159WAT    HW1 5792   3.589   3.703   1.618
 1159WAT    HW2 5793   3.707   3.615   1.580
 1159WAT    LP1 5794   3.675   3.731   1.514
 1159WAT    LP2 5795   3.720   3.746   1.618
 1160WAT     OW 5796   0.486   5.166   2.947
 1160WAT    HW1 5797   0.520   5.219   2.874
 1160WAT    HW2 5798   0.555   5.102   2.964
 1160WAT    LP1 5799   0.474   5.206   3.003
 1160WAT    LP2 5800   0.426   5.134   2.928
 1161WAT     OW 5801   5.192   3.830   1.456
 1161WAT    HW1 5802   5.252   3.756   1.463
 1161WAT    HW2 5803   5.174   3.855   1.546
 1161WAT    LP1 5804   5.223   3.883   1.421
 1161WAT    LP2 5805   5.133   3.812   1.423
 1162WAT     OW 5806   2.606   4.290   3.289
 1162WAT    HW1 5807   2.531   4.263   3.342
 1162WAT    HW2 5808   2.570   4.299   3.200
 1162WAT    LP1 5809   2.632   4.351   3.311
 1162WAT    LP2 5810   2.656   4.241   3.290
 1163WAT     OW 5811   3.286   0.976   0.294
 1163WAT    HW1 5812   3.369   0.974   0.248
 1163WAT    HW2 5813   3.269   0.885   0.318
 1163WAT    LP1 5814   3.289   1.017   0.351
 1163WAT    LP2 5815   3.235   1.000   0.251
 1164WAT     OW 5816   0.787   5.268   6.058
 1164WAT    HW1 5817   0.871   5.283   6.015
 1164WAT    HW2 5818   0.745   5.199   6.007
 1164WAT    LP1 5819   0.797   5.247   6.124
 1164WAT    LP2 5820   0.748   5.326   6.058
 1165WAT     OW 5821   3.293   4.279   4.604
 1165WAT    HW1 5822   3.370   4.280   4.547
 1165WAT    HW2 5823   3.300   4.198   4.653
 1165WAT    LP1 5824   3.293   4.335   4.647
 1165WAT    LP2 5825   3.234   4.280   4.566
 1166WAT     OW 5826   0.821   0.456   0.741
 1166WAT    HW1 5827   0.857   0.539   0.773
 1166WAT    HW2 5828   0.781   0.416   0.818
 1166WAT    LP1 5829   0.774   0.467   0.691
 1166WAT    LP2 5830   0.873   0.415   0.717
 1167WAT     OW 5831   2.691   4.435   2.255
 1167WAT    HW1 5832   2.778   4.393   2.254
 1167WAT    HW2 5833   2.633   4.368   2.219
 1167WAT    LP1 5834   2.672   4.451   2.321
 1167WAT    LP2 5835   2.691   4.492   2.216
 1168WAT     OW 5836   3.420   5.798   2.769
 1168WAT    HW1 5837   3.481   5.783   2.842
 1168WAT    HW2 5838   3.393   5.890   2.779
 1168WAT    LP1 5839   3.453   5.788   2.708
 1168WAT    LP2 5840   3.365   5.755   2.773
 1169WAT     OW 5841   5.170   0.217   1.473
 1169WAT    HW1 5842   5.252   0.181   1.507
 1169WAT    HW2 5843   5.102   0.156   1.503
 1169WAT    LP1 5844   5.159   0.281   1.500
 1169WAT    LP2 5845   5.171   0.221   1.403
 1170WAT     OW 5846   4.503   1.811   0.023
 1170WAT    HW1 5847   4.442   1.743  -0.005
 1170WAT    HW2 5848   4.447   1.880   0.058
 1170WAT    LP1 5849   4.546   1.787   0.073
 1170WAT    LP2 5850   4.541   1.834  -0.030
 1171WAT     OW 5851   1.998   2.709   3.023
 1171WAT    HW1 5852   2.086   2.691   3.054
 1171WAT    HW2 5853   1.941   2.679   3.093
 1171WAT    LP1 5854   1.989   2.777   3.011
 1171WAT    LP2 5855   1.985   2.673   2.964
 1172WAT     OW 5856   1.580   3.692   1.282
 1172WAT    HW1 5857   1.519   3.746   1.232
 1172WAT    HW2 5858   1.569   3.604   1.245
 1172WAT    LP1 5859   1.646   3.714   1.274
 1172WAT    LP2 5860   1.563   3.692   1.350
 1173WAT     OW 5861   5.141   3.044   5.332
 1173WAT    HW1 5862   5.107   2.981   5.268
 1173WAT    HW2 5863   5.144   2.995   5.414
 1173WAT    LP1 5864   5.205   3.065   5.314
 1173WAT    LP2 5865   5.098   3.099   5.338
 1174WAT     OW 5866   3.674   6.111   4.411
 1174WAT    HW1 5867   3.764   6.136   4.392
 1174WAT    HW2 5868   3.632   6.103   4.326
 1174WAT    LP1 5869   3.671   6.051   4.446
 1174WAT    LP2 5870   3.642   6.161   4.449
 1175WAT     OW 5871   4.049   3.125   5.432
 1175WAT    HW1 5872   4.039   3.211   5.473
 1175WAT    HW2 5873   4.078   3.144   5.343
 1175WAT    LP1 5874   4.097   3.087   5.466
 1175WAT    LP2 5875   3.988   3.091   5.432
 1176WAT     OW 5876   6.552   4.446   3.615
 1176WAT    HW1 5877   6.643   4.421   3.629
 1176WAT    HW2 5878   6.512   4.368   3.577
 1176WAT    LP1 5879   6.521   4.463   3.676
 1176WAT    LP2 5880   6.548   4.500   3.571
 1177WAT     OW 5881   4.488   2.508   2.923
 1177WAT    HW1 5882   4.454   2.509   2.833
 1177WAT    HW2 5883   4.538   2.426   2.929
 1177WAT    LP1 5884   4.530   2.563   2.934
 1177WAT    LP2 5885   4.436   2.509   2.969
 1178WAT     OW 5886   3.260   5.839   5.618
 1178WAT    HW1 5887   3.335   5.892   5.591
 1178WAT    HW2 5888   3.269   5.758   5.568
 1178WAT    LP1 5889   3.263   5.826   5.687
 1178WAT    LP2 5890   3.200   5.871   5.603
 1179WAT     OW 5891   0.957   4.944   2.530
 1179WAT    HW1 5892   1.039   4.895   2.524
 1179WAT    HW2 5893   0.974   5.025   2.481
 1179WAT    LP1 5894   0.904   4.909   2.501
 1179WAT    LP2 5895   0.941   4.959   2.597
 1180WAT     OW 5896   1.308   2.237   5.900
 1180WAT    HW1 5897   1.349   2.269   5.820
 1180WAT    HW2 5898   1.372   2.177   5.937
 1180WAT    LP1 5899   1.295   2.290   5.944
 1180WAT    LP2 5900   1.248   2.203   5.885
 1181WAT     OW 5901   6.785   4.336   5.417
 1181WAT    HW1 5902   6.802   4.425   5.388
 1181WAT    HW2 5903   6.807   4.336   5.511
 1181WAT    LP1 5904   6.718   4.319   5.408
 1181WAT    LP2 5905   6.826   4.291   5.383
 1182WAT     OW 5906   4.520   0.807   1.323
 1182WAT    HW1 5907   4.430   0.779   1.306
 1182WAT    HW2 5908   4.574   0.749   1.268
 1182WAT    LP1 5909   4.529   0.874   1.304
 1182WAT    LP2 5910   4.537   0.799   1.390
 1183WAT     OW 5911   0.317   5.857   4.831
 1183WAT    HW1 5912   0.300   5.765   4.851
 1183WAT    HW2 5913   0.241   5.885   4.780
 1183WAT    LP1 5914   0.322   5.895   4.890
 1183WAT    LP2 5915   0.375   5.864   4.793
 1184WAT     OW 5916   5.835   6.157   4.188
 1184WAT    HW1 5917   5.840   6.252   4.196
 1184WAT    HW2 5918   5.761   6.132   4.242
 1184WAT    LP1 5919   5.825   6.139   4.121
 1184WAT    LP2 5920   5.894   6.127   4.211
 1185WAT     OW 5921   0.749   4.297   4.905
 1185WAT    HW1 5922   0.825   4.324   4.853
 1185WAT    HW2 5923   0.710   4.379   4.935
 1185WAT    LP1 5924   0.704   4.261   4.865
 1185WAT    LP2 5925   0.769   4.258   4.959
 1186WAT     OW 5926   3.865   1.768   3.533
 1186WAT    HW1 5927   3.954   1.780   3.500
 1186WAT    HW2 5928   3.855   1.834   3.602
 1186WAT    LP1 5929   3.818   1.778   3.482
 1186WAT    LP2 5930   3.857   1.703   3.559
 1187WAT     OW 5931   6.169   3.721   0.462
 1187WAT    HW1 5932   6.092   3.714   0.405
 1187WAT    HW2 5933   6.136   3.696   0.549
 1187WAT    LP1 5934   6.219   3.678   0.442
 1187WAT    LP2 5935   6.193   3.787   0.463
 1188WAT     OW 5936   2.736   2.496   2.348
 1188WAT    HW1 5937   2.771   2.410   2.368
 1188WAT    HW2 5938   2.740   2.544   2.430
 1188WAT    LP1 5939   2.775   2.528   2.299
 1188WAT    LP2 5940   2.670   2.491   2.325
 1189WAT     OW 5941   3.686   4.823   2.728
 1189WAT    HW1 5942   3.742   4.900   2.730
 1189WAT    HW2 5943   3.747   4.749   2.727
 1189WAT    LP1 5944   3.646   4.821   2.785
 1189WAT    LP2 5945   3.646   4.823   2.671
 1190WAT     OW 5946   6.066   5.244   1.797
 1190WAT    HW1 5947   6.160   5.262   1.790
 1190WAT    HW2 5948   6.061   5.152   1.823
 1190WAT    LP1 5949   6.037   5.285   1.846
 1190WAT    LP2 5950   6.034   5.254   1.736
 1191WAT     OW 5951   6.342   1.565   3.434
 1191WAT    HW1 5952   6.294   1.647   3.423
 1191WAT    HW2 5953   6.370   1.566   3.525
 1191WAT    LP1 5954   6.300   1.510   3.422
 1191WAT    LP2 5955   6.397   1.562   3.390
 1192WAT     OW 5956   1.325   0.084   1.735
 1192WAT    HW1 5957   1.383   0.012   1.760
 1192WAT    HW2 5958   1.321   0.140   1.813
 1192WAT    LP1 5959   1.351   0.119   1.680
 1192WAT    LP2 5960   1.261   0.059   1.719
 1193WAT     OW 5961   4.245   3.158   2.382
 1193WAT    HW1 5962   4.289   3.197   2.308
 1193WAT    HW2 5963   4.162   3.125   2.347
 1193WAT    LP1 5964   4.283   3.105   2.409
 1193WAT    LP2 5965   4.233   3.205   2.433
 1194WAT     OW 5966   3.077   5.664   3.905
 1194WAT    HW1 5967   3.052   5.591   3.961
 1194WAT    HW2 5968   3.037   5.644   3.820
 1194WAT    LP1 5969   3.051   5.724   3.930
 1194WAT    LP2 5970   3.146   5.669   3.899
 1195WAT     OW 5971   3.597   4.560   4.343
 1195WAT    HW1 5972   3.522   4.618   4.336
 1195WAT    HW2 5973   3.567   4.487   4.398
 1195WAT    LP1 5974   3.616   4.537   4.280
 1195WAT    LP2 5975   3.651   4.592   4.373
 1196WAT     OW 5976   1.696   4.210   3.742
 1196WAT    HW1 5977   1.726   4.207   3.651
 1196WAT    HW2 5978   1.626   4.275   3.742
 1196WAT    LP1 5979   1.672   4.148   3.762
 1196WAT    LP2 5980   1.748   4.230   3.784
 1197WAT     OW 5981   6.368   0.206   5.501
 1197WAT    HW1 5982   6.396   0.289   5.463
 1197WAT    HW2 5983   6.415   0.140   5.450
 1197WAT    LP1 5984   6.385   0.202   5.569
 1197WAT    LP2 5985   6.299   0.198   5.494
 1198WAT     OW 5986   1.873   0.612   4.251
 1198WAT    HW1 5987   1.855   0.684   4.312
 1198WAT    HW2 5988   1.839   0.643   4.167
 1198WAT    LP1 5989   1.942   0.600   4.247
 1198WAT    LP2 5990   1.840   0.554   4.272
 1199WAT     OW 5991   1.071   0.422   6.295
 1199WAT    HW1 5992   1.063   0.423   6.200
 1199WAT    HW2 5993   1.081   0.329   6.317
 1199WAT    LP1 5994   1.127   0.458   6.316
 1199WAT    LP2 5995   1.013   0.448   6.325
 1200WAT     OW 5996   2.526   5.782   6.197
 1200WAT    HW1 5997   2.499   5.868   6.164
 1200WAT    HW2 5998   2.608   5.764   6.152
 1200WAT    LP1 5999   2.535   5.783   6.266
 1200WAT    LP2 6000   2.478   5.733   6.181
 1201WAT     OW 6001   0.395   6.015   6.014
 1201WAT    HW1 6002   0.442   6.087   5.973
 1201WAT    HW2 6003   0.320   6.056   6.057
 1201WAT    LP1 6004   0.373   5.969   5.965
 1201WAT    LP2 6005   0.435   5.982   6.061
 1202WAT     OW 6006   2.061   4.675   2.309
 1202WAT    HW1 6007   2.151   4.679   2.277
 1202WAT    HW2 6008   2.011   4.727   2.247
 1202WAT    LP1 6009   2.038   4.609   2.310
 1202WAT    LP2 6010   2.056   4.702   2.374
 1203WAT     OW 6011   5.070   2.178   5.862
 1203WAT    HW1 6012   5.053   2.230   5.940
 1203WAT    HW2 6013   5.146   2.220   5.821
 1203WAT    LP1 6014   5.084   2.112   5.879
 1203WAT    LP2 6015   5.015   2.180   5.819
 1204WAT     OW 6016   3.890   2.120   4.672
 1204WAT    HW1 6017   3.972   2.082   4.640
 1204WAT    HW2 6018   3.917   2.199   4.718
 1204WAT    LP1 6019   3.848   2.136   4.618
 1204WAT    LP2 6020   3.858   2.075   4.715
 1205WAT     OW 6021   1.105   2.392   5.344
 1205WAT    HW1 6022   1.025   2.436   5.314
 1205WAT    HW2 6023   1.174   2.457   5.333
 1205WAT    LP1 6024   1.099   2.373   5.411
 1205WAT    LP2 6025   1.117   2.335   5.304
 1206WAT     OW 6026   6.677   2.842   6.098
 1206WAT    HW1 6027   6.756   2.896   6.093
 1206WAT    HW2 6028   6.606   2.900   6.071
 1206WAT    LP1 6029   6.682   2.787   6.054
 1206WAT    LP2 6030   6.666   2.818   6.163
 1207WAT     OW 6031   1.110   1.345   0.253
 1207WAT    HW1 6032   1.191   1.350   0.304
 1207WAT    HW2 6033   1.133   1.384   0.168
 1207WAT    LP1 6034   1.090   1.279   0.244
 1207WAT    LP2 6035   1.059   1.382   0.284
 1208WAT     OW 6036   4.402   4.347   0.829
 1208WAT    HW1 6037   4.451   4.424   0.798
 1208WAT    HW2 6038   4.311   4.374   0.825
 1208WAT    LP1 6039   4.414   4.292   0.787
 1208WAT    LP2 6040   4.421   4.331   0.894
 1209WAT     OW 6041   0.614   4.147   4.591
 1209WAT    HW1 6042   0.604   4.084   4.663
 1209WAT    HW2 6043   0.596   4.232   4.632
 1209WAT    LP1 6044   0.679   4.145   4.565
 1209WAT    LP2 6045   0.568   4.134   4.540
 1210WAT     OW 6046   4.672   3.427   4.191
 1210WAT    HW1 6047   4.763   3.446   4.168
 1210WAT    HW2 6048   4.676   3.343   4.236
 1210WAT    LP1 6049   4.646   3.476   4.233
 1210WAT    LP2 6050   4.633   3.422   4.133
 1211WAT     OW 6051   0.245   5.751   1.041
 1211WAT    HW1 6052   0.300   5.809   0.988
 1211WAT    HW2 6053   0.253   5.785   1.130
 1211WAT    LP1 6054   0.178   5.754   1.019
 1211WAT    LP2 6055   0.267   5.685   1.037
 1212WAT     OW 6056   3.286   1.407   4.830
 1212WAT    HW1 6057   3.209   1.360   4.800
 1212WAT    HW2 6058   3.348   1.401   4.757
 1212WAT    LP1 6059   3.271   1.473   4.844
 1212WAT    LP2 6060   3.313   1.376   4.887
 1213WAT     OW 6061   2.108   2.112   0.754
 1213WAT    HW1 6062   2.197   2.143   0.772
 1213WAT    HW2 6063   2.063   2.189   0.718
 1213WAT    LP1 6064   2.109   2.060   0.707
 1213WAT    LP2 6065   2.077   2.091   0.813
 1214WAT     OW 6066   5.195   2.081   2.847
 1214WAT    HW1 6067   5.285   2.114   2.853
 1214WAT    HW2 6068   5.141   2.152   2.881
 1214WAT    LP1 6069   5.179   2.066   2.781
 1214WAT    LP2 6070   5.188   2.023   2.887
 1215WAT     OW 6071   0.461   6.514   2.207
 1215WAT    HW1 6072   0.492   6.506   2.117
 1215WAT    HW2 6073   0.479   6.428   2.246
 1215WAT    LP1 6074   0.497   6.564   2.241
 1215WAT    LP2 6075   0.393   6.528   2.209
 1216WAT     OW 6076   5.946   6.456   2.566
 1216WAT    HW1 6077   5.965   6.435   2.475
 1216WAT    HW2 6078   5.987   6.386   2.616
 1216WAT    LP1 6079   5.975   6.518   2.583
 1216WAT    LP2 6080   5.877   6.458   2.578
 1217WAT     OW 6081   3.884   3.078   3.034
 1217WAT    HW1 6082   3.972   3.074   3.072
 1217WAT    HW2 6083   3.849   2.989   3.045
 1217WAT    LP1 6084   3.844   3.124   3.069
 1217WAT    LP2 6085   3.886   3.095   2.967
 1218WAT     OW 6086   6.415   4.510   5.542
 1218WAT    HW1 6087   6.485   4.488   5.603
 1218WAT    HW2 6088   6.334   4.486   5.589
 1218WAT    LP1 6089   6.415   4.578   5.526
 1218WAT    LP2 6090   6.421   4.472   5.483
 1219WAT     OW 6091   4.057   0.216   0.763
 1219WAT    HW1 6092   3.974   0.198   0.717
 1219WAT    HW2 6093   4.031   0.267   0.840
 1219WAT    LP1 6094   4.087   0.156   0.783
 1219WAT    LP2 6095   4.100   0.252   0.722
 1220WAT     OW 6096   6.776   2.726   3.050
 1220WAT    HW1 6097   6.846   2.738   3.115
 1220WAT    HW2 6098   6.764   2.813   3.012
 1220WAT    LP1 6099   6.796   2.681   3.000
 1220WAT    LP2 6100   6.718   2.704   3.080
 1221WAT     OW 6101   0.597   3.170   2.966
 1221WAT    HW1 6102   0.691   3.173   2.951
 1221WAT    HW2 6103   0.587   3.121   3.047
 1221WAT    LP1 6104   0.571   3.235   2.973
 1221WAT    LP2 6105   0.564   3.138   2.913
 1222WAT     OW 6106   2.080   5.560   6.004
 1222WAT    HW1 6107   2.024   5.611   5.946
 1222WAT    HW2 6108   2.167   5.598   5.992
 1222WAT    LP1 6109   2.060   5.566   6.070
 1222WAT    LP2 6110   2.080   5.493   5.985
 1223WAT     OW 6111   4.150   2.079   4.968
 1223WAT    HW1 6112   4.134   2.007   4.907
 1223WAT    HW2 6113   4.211   2.043   5.032
 1223WAT    LP1 6114   4.178   2.134   4.935
 1223WAT    LP2 6115   4.090   2.099   4.999
 1224WAT     OW 6116   5.181   4.393   5.409
 1224WAT    HW1 6117   5.098   4.432   5.380
 1224WAT    HW2 6118   5.167   4.299   5.401
 1224WAT    LP1 6119   5.233   4.414   5.368
 1224WAT    LP2 6120   5.194   4.410   5.476
 1225WAT     OW 6121   0.845   5.703   3.157
 1225WAT    HW1 6122   0.913   5.700   3.089
 1225WAT    HW2 6123   0.893   5.687   3.238
 1225WAT    LP1 6124   0.814   5.766   3.158
 1225WAT    LP2 6125   0.797   5.653   3.146
 1226WAT     OW 6126   6.487   0.712   0.301
 1226WAT    HW1 6127   6.395   0.687   0.311
 1226WAT    HW2 6128   6.536   0.633   0.325
 1226WAT    LP1 6129   6.501   0.730   0.235
 1226WAT    LP2 6130   6.503   0.765   0.344
 1227WAT     OW 6131   2.353   1.139   5.222
 1227WAT    HW1 6132   2.436   1.185   5.210
 1227WAT    HW2 6133   2.293   1.206   5.257
 1227WAT    LP1 6134   2.329   1.114   5.162
 1227WAT    LP2 6135   2.360   1.087   5.268
 1228WAT     OW 6136   4.606   3.386   0.034
 1228WAT    HW1 6137   4.542   3.333  -0.013
 1228WAT    HW2 6138   4.575   3.386   0.125
 1228WAT    LP1 6139   4.670   3.357   0.031
 1228WAT    LP2 6140   4.609   3.451   0.009
 1229WAT     OW 6141   6.653   3.414   3.752
 1229WAT    HW1 6142   6.736   3.369   3.771
 1229WAT    HW2 6143   6.679   3.505   3.736
 1229WAT    LP1 6144   6.622   3.387   3.696
 1229WAT    LP2 6145   6.610   3.410   3.807
 1230WAT     OW 6146   2.543   1.042   1.360
 1230WAT    HW1 6147   2.527   1.125   1.317
 1230WAT    HW2 6148   2.631   1.051   1.397
 1230WAT    LP1 6149   2.496   1.030   1.411
 1230WAT    LP2 6150   2.541   0.989   1.314
 1231WAT     OW 6151   4.662   0.191   1.882
 1231WAT    HW1 6152   4.571   0.221   1.878
 1231WAT    HW2 6153   4.696   0.228   1.963
 1231WAT    LP1 6154   4.665   0.121   1.883
 1231WAT    LP2 6155   4.698   0.215   1.827
 1232WAT     OW 6156   0.182   1.064   4.260
 1232WAT    HW1 6157   0.257   1.093   4.311
 1232WAT    HW2 6158   0.138   1.001   4.316
 1232WAT    LP1 6159   0.140   1.118   4.245
 1232WAT    LP2 6160   0.203   1.034   4.200
 1233WAT     OW 6161   3.431   2.163   1.868
 1233WAT    HW1 6162   3.350   2.138   1.913
 1233WAT    HW2 6163   3.423   2.257   1.857
 1233WAT    LP1 6164   3.487   2.147   1.908
 1233WAT    LP2 6165   3.436   2.131   1.807
 1234WAT     OW 6166   4.528   2.892   0.821
 1234WAT    HW1 6167   4.616   2.868   0.849
 1234WAT    HW2 6168   4.533   2.987   0.806
 1234WAT    LP1 6169   4.511   2.859   0.762
 1234WAT    LP2 6170   4.481   2.878   0.871
 1235WAT     OW 6171   0.238   3.472   0.844
 1235WAT    HW1 6172   0.217   3.384   0.814
 1235WAT    HW2 6173   0.197   3.530   0.780
 1235WAT    LP1 6174   0.213   3.483   0.908
 1235WAT    LP2 6175   0.308   3.481   0.844
 1236WAT     OW 6176   3.620   1.879   3.883
 1236WAT    HW1 6177   3.650   1.808   3.940
 1236WAT    HW2 6178   3.557   1.837   3.824
 1236WAT    LP1 6179   3.589   1.929   3.921
 1236WAT    LP2 6180   3.674   1.906   3.847
 1237WAT     OW 6181   1.640   0.137   5.833
 1237WAT    HW1 6182   1.561   0.134   5.886
 1237WAT    HW2 6183   1.645   0.050   5.793
 1237WAT    LP1 6184   1.635   0.187   5.784
 1237WAT    LP2 6185   1.696   0.150   5.873
 1238WAT     OW 6186   2.213   2.728   1.286
 1238WAT    HW1 6187   2.213   2.637   1.317
 1238WAT    HW2 6188   2.306   2.753   1.287
 1238WAT    LP1 6189   2.188   2.731   1.221
 1238WAT    LP2 6190   2.176   2.769   1.328
 1239WAT     OW 6191   3.606   5.339   3.739
 1239WAT    HW1 6192   3.612   5.379   3.825
 1239WAT    HW2 6193   3.512   5.330   3.723
 1239WAT    LP1 6194   3.635   5.380   3.690
 1239WAT    LP2 6195   3.637   5.276   3.738
 1240WAT     OW 6196   0.770   6.002   0.306
 1240WAT    HW1 6197   0.742   5.954   0.228
 1240WAT    HW2 6198   0.832   5.943   0.350
 1240WAT    LP1 6199   0.802   6.062   0.287
 1240WAT    LP2 6200   0.716   6.017   0.347
 1241WAT     OW 6201   3.047   0.428   1.464
 1241WAT    HW1 6202   3.083   0.496   1.521
 1241WAT    HW2 6203   2.971   0.469   1.422
 1241WAT    LP1 6204   3.093   0.407   1.416
 1241WAT    LP2 6205   3.026   0.372   1.502
 1242WAT     OW 6206   3.029   4.099   1.205
 1242WAT    HW1 6207   3.034   4.188   1.240
 1242WAT    HW2 6208   3.087   4.047   1.261
 1242WAT    LP1 6209   2.963   4.075   1.208
 1242WAT    LP2 6210   3.051   4.097   1.139
 1243WAT     OW 6211   5.983   0.953   5.104
 1243WAT    HW1 6212   5.894   0.933   5.075
 1243WAT    HW2 6213   5.979   0.945   5.200
 1243WAT    LP1 6214   6.028   0.907   5.077
 1243WAT    LP2 6215   6.001   1.017   5.086
 1244WAT     OW 6216   1.556   1.651   3.140
 1244WAT    HW1 6217   1.481   1.599   3.112
 1244WAT    HW2 6218   1.631   1.592   3.133
 1244WAT    LP1 6219   1.565   1.707   3.098
 1244WAT    LP2 6220   1.548   1.673   3.206
 1245WAT     OW 6221   1.876   5.619   1.675
 1245WAT    HW1 6222   1.953   5.571   1.645
 1245WAT    HW2 6223   1.888   5.627   1.770
 1245WAT    LP1 6224   1.873   5.683   1.645
 1245WAT    LP2 6225   1.817   5.584   1.660
 1246WAT     OW 6226   6.268   4.443   3.236
 1246WAT    HW1 6227   6.173   4.446   3.243
 1246WAT    HW2 6228   6.300   4.493   3.311
 1246WAT    LP1 6229   6.291   4.376   3.239
 1246WAT    LP2 6230   6.290   4.471   3.176
 1247WAT     OW 6231   3.914   6.028   1.168
 1247WAT    HW1 6232   3.920   6.115   1.130
 1247WAT    HW2 6233   3.821   6.006   1.166
 1247WAT    LP1 6234   3.951   5.981   1.131
 1247WAT    LP2 6235   3.938   6.028   1.234
 1248WAT     OW 6236   1.951   5.668   3.143
 1248WAT    HW1 6237   1.901   5.617   3.080
 1248WAT    HW2 6238   1.916   5.757   3.136
 1248WAT    LP1 6239   1.941   5.643   3.208
 1248WAT    LP2 6240   2.019   5.667   3.128
 1249WAT     OW 6241   0.800   3.922   3.584
 1249WAT    HW1 6242   0.881   3.969   3.562
 1249WAT    HW2 6243   0.829   3.843   3.629
 1249WAT    LP1 6244   0.759   3.961   3.626
 1249WAT    LP2 6245   0.764   3.906   3.526
 1250WAT     OW 6246   1.966   0.260   5.576
 1250WAT    HW1 6247   1.874   0.281   5.596
 1250WAT    HW2 6248   1.963   0.171   5.542
 1250WAT    LP1 6249   1.991   0.304   5.528
 1250WAT    LP2 6250   2.005   0.264   5.634
 1251WAT     OW 6251   4.786   6.019   4.917
 1251WAT    HW1 6252   4.814   6.109   4.933
 1251WAT    HW2 6253   4.691   6.024   4.911
 1251WAT    LP1 6254   4.813   5.995   4.857
 1251WAT    LP2 6255   4.805   5.977   4.969
 1252WAT     OW 6256   5.171   5.512   5.829
 1252WAT    HW1 6257   5.116   5.563   5.889
 1252WAT    HW2 6258   5.228   5.461   5.887
 1252WAT    LP1 6259   5.132   5.470   5.789
 1252WAT    LP2 6260   5.209   5.555   5.788
 1253WAT     OW 6261   3.061   4.927   0.631
 1253WAT    HW1 6262   2.997   4.867   0.592
 1253WAT    HW2 6263   3.078   4.890   0.718
 1253WAT    LP1 6264   3.120   4.928   0.593
 1253WAT    LP2 6265   3.034   4.991   0.636
 1254WAT     OW 6266   4.454   2.544   2.653
 1254WAT    HW1 6267   4.394   2.613   2.624
 1254WAT    HW2 6268   4.437   2.471   2.593
 1254WAT    LP1 6269   4.520   2.565   2.649
 1254WAT    LP2 6270   4.439   2.525   2.719
 1255WAT     OW 6271   5.447   2.617   1.622
 1255WAT    HW1 6272   5.363   2.653   1.593
 1255WAT    HW2 6273   5.512   2.680   1.589
 1255WAT    LP1 6274   5.450   2.613   1.692
 1255WAT    LP2 6275   5.458   2.554   1.594
 1256WAT     OW 6276   0.794   3.358   0.461
 1256WAT    HW1 6277   0.754   3.287   0.513
 1256WAT    HW2 6278   0.863   3.392   0.517
 1256WAT    LP1 6279   0.820   3.332   0.402
 1256WAT    LP2 6280   0.747   3.407   0.447
 1257WAT     OW 6281   6.773   5.308   4.318
 1257WAT    HW1 6282   6.733   5.235   4.365
 1257WAT    HW2 6283   6.764   5.383   4.376
 1257WAT    LP1 6284   6.840   5.295   4.305
 1257WAT    LP2 6285   6.739   5.320   4.257
 1258WAT     OW 6286   1.265   3.211   6.555
 1258WAT    HW1 6287   1.277   3.266   6.478
 1258WAT    HW2 6288   1.226   3.269   6.621
 1258WAT    LP1 6289   1.222   3.157   6.541
 1258WAT    LP2 6290   1.326   3.186   6.578
 1259WAT     OW 6291   1.362   6.362   5.021
 1259WAT    HW1 6292   1.340   6.453   5.004
 1259WAT    HW2 6293   1.335   6.347   5.112
 1259WAT    LP1 6294   1.328   6.320   4.977
 1259WAT    LP2 6295   1.431   6.351   5.014
 1260WAT     OW 6296   6.739   2.547   0.384
 1260WAT    HW1 6297   6.785   2.566   0.302
 1260WAT    HW2 6298   6.670   2.612   0.389
 1260WAT    LP1 6299   6.713   2.482   0.383
 1260WAT    LP2 6300   6.783   2.553   0.438
 1261WAT     OW 6301   5.753   3.841   2.267
 1261WAT    HW1 6302   5.793   3.908   2.323
 1261WAT    HW2 6303   5.749   3.763   2.322
 1261WAT    LP1 6304   5.689   3.861   2.247
 1261WAT    LP2 6305   5.792   3.829   2.211
 1262WAT     OW 6306   4.708   1.067   0.730
 1262WAT    HW1 6307   4.792   1.111   0.723
 1262WAT    HW2 6308   4.697   1.051   0.824
 1262WAT    LP1 6309   4.656   1.108   0.706
 1262WAT    LP2 6310   4.709   1.006   0.695
 1263WAT     OW 6311   4.147   0.214   4.711
 1263WAT    HW1 6312   4.237   0.207   4.679
 1263WAT    HW2 6313   4.107   0.129   4.691
 1263WAT    LP1 6314   4.146   0.226   4.780
 1263WAT    LP2 6315   4.113   0.265   4.677
 1264WAT     OW 6316   3.301   1.422   0.487
 1264WAT    HW1 6317   3.294   1.518   0.486
 1264WAT    HW2 6318   3.292   1.397   0.395
 1264WAT    LP1 6319   3.363   1.402   0.512
 1264WAT    LP2 6320   3.249   1.394   0.526
 1265WAT     OW 6321   5.804   0.286   4.453
 1265WAT    HW1 6322   5.739   0.277   4.384
 1265WAT    HW2 6323   5.885   0.253   4.414
 1265WAT    LP1 6324   5.811   0.352   4.473
 1265WAT    LP2 6325   5.786   0.247   4.509
 1266WAT     OW 6326   0.857   0.182   4.015
 1266WAT    HW1 6327   0.805   0.102   4.015
 1266WAT    HW2 6328   0.846   0.219   4.103
 1266WAT    LP1 6329   0.925   0.167   4.003
 1266WAT    LP2 6330   0.834   0.227   3.966
 1267WAT     OW 6331   6.482   2.114   2.570
 1267WAT    HW1 6332   6.575   2.109   2.593
 1267WAT    HW2 6333   6.436   2.083   2.648
 1267WAT    LP1 6334   6.464   2.180   2.555
 1267WAT    LP2 6335   6.468   2.073   2.515
 1268WAT     OW 6336   6.747   5.558   1.244
 1268WAT    HW1 6337   6.746   5.642   1.290
 1268WAT    HW2 6338   6.838   5.528   1.252
 1268WAT    LP1 6339   6.703   5.513   1.273
 1268WAT    LP2 6340   6.731   5.567   1.176
 1269WAT     OW 6341   4.976   2.306   3.863
 1269WAT    HW1 6342   4.976   2.402   3.861
 1269WAT    HW2 6343   5.064   2.281   3.836
 1269WAT    LP1 6344   4.963   2.283   3.928
 1269WAT    LP2 6345   4.928   2.280   3.819
 1270WAT     OW 6346   6.381   5.353   2.588
 1270WAT    HW1 6347   6.428   5.278   2.553
 1270WAT    HW2 6348   6.289   5.335   2.567
 1270WAT    LP1 6349   6.390   5.359   2.657
 1270WAT    LP2 6350   6.402   5.412   2.556
 1271WAT     OW 6351   3.727   6.192   2.326
 1271WAT    HW1 6352   3.699   6.106   2.357
 1271WAT    HW2 6353   3.777   6.173   2.247
 1271WAT    LP1 6354   3.671   6.232   2.311
 1271WAT    LP2 6355   3.767   6.224   2.374
 1272WAT     OW 6356   2.812   4.009   5.928
 1272WAT    HW1 6357   2.846   4.037   5.843
 1272WAT    HW2 6358   2.879   4.038   5.990
 1272WAT    LP1 6359   2.751   4.040   5.942
 1272WAT    LP2 6360   2.805   3.940   5.930
 1273WAT     OW 6361   3.688   5.261   4.065
 1273WAT    HW1 6362   3.659   5.301   4.147
 1273WAT    HW2 6363   3.621   5.197   4.044
 1273WAT    LP1 6364   3.693   5.310   4.014
 1273WAT    LP2 6365   3.750   5.231   4.073
 1274WAT     OW 6366   1.790   4.523   5.460
 1274WAT    HW1 6367   1.827   4.457   5.401
 1274WAT    HW2 6368   1.865   4.557   5.508
 1274WAT    LP1 6369   1.759   4.574   5.423
 1274WAT    LP2 6370   1.743   4.494   5.503
 1275WAT     OW 6371   4.721   0.144   4.407
 1275WAT    HW1 6372   4.703   0.050   4.405
 1275WAT    HW2 6373   4.808   0.153   4.369
 1275WAT    LP1 6374   4.674   0.179   4.369
 1275WAT    LP2 6375   4.720   0.168   4.473
 1276WAT     OW 6376   3.295   3.666   5.991
 1276WAT    HW1 6377   3.373   3.633   6.034
 1276WAT    HW2 6378   3.256   3.727   6.054
 1276WAT    LP1 6379   3.312   3.700   5.932
 1276WAT    LP2 6380   3.251   3.614   5.976
 1277WAT     OW 6381   0.175   1.016   0.626
 1277WAT    HW1 6382   0.135   0.994   0.710
 1277WAT    HW2 6383   0.251   0.957   0.619
 1277WAT    LP1 6384   0.131   1.004   0.573
 1277WAT    LP2 6385   0.196   1.083   0.625
 1278WAT     OW 6386   1.959   1.993   1.242
 1278WAT    HW1 6387   1.886   1.944   1.207
 1278WAT    HW2 6388   2.019   2.003   1.168
 1278WAT    LP1 6389   1.938   2.056   1.265
 1278WAT    LP2 6390   1.991   1.959   1.294
 1279WAT     OW 6391   3.427   4.543   1.156
 1279WAT    HW1 6392   3.520   4.539   1.177
 1279WAT    HW2 6393   3.392   4.613   1.211
 1279WAT    LP1 6394   3.418   4.557   1.088
 1279WAT    LP2 6395   3.396   4.482   1.171
 1280WAT     OW 6396   0.469   0.085   6.514
 1280WAT    HW1 6397   0.449   0.014   6.575
 1280WAT    HW2 6398   0.521   0.044   6.445
 1280WAT    LP1 6399   0.410   0.113   6.488
 1280WAT    LP2 6400   0.506   0.135   6.546
 1281WAT     OW 6401   4.911   6.282   1.605
 1281WAT    HW1 6402   4.886   6.200   1.562
 1281WAT    HW2 6403   5.002   6.294   1.581
 1281WAT    LP1 6404   4.871   6.335   1.583
 1281WAT    LP2 6405   4.905   6.276   1.675
 1282WAT     OW 6406   6.182   4.619   5.898
 1282WAT    HW1 6407   6.245   4.690   5.886
 1282WAT    HW2 6408   6.189   4.596   5.991
 1282WAT    LP1 6409   6.117   4.640   5.883
 1282WAT    LP2 6410   6.199   4.564   5.859
 1283WAT     OW 6411   3.541   6.233   4.868
 1283WAT    HW1 6412   3.624   6.269   4.900
 1283WAT    HW2 6413   3.548   6.239   4.772
 1283WAT    LP1 6414   3.535   6.166   4.888
 1283WAT    LP2 6415   3.487   6.270   4.891
 1284WAT     OW 6416   5.480   4.643   1.821
 1284WAT    HW1 6417   5.386   4.657   1.810
 1284WAT    HW2 6418   5.518   4.670   1.737
 1284WAT    LP1 6419   5.506   4.682   1.873
 1284WAT    LP2 6420   5.494   4.575   1.833
 1285WAT     OW 6421   4.717   3.942   2.148
 1285WAT    HW1 6422   4.699   3.920   2.240
 1285WAT    HW2 6423   4.721   4.038   2.147
 1285WAT    LP1 6424   4.779   3.915   2.128
 1285WAT    LP2 6425   4.666   3.918   2.106
 1286WAT     OW 6426   1.540   0.643   1.748
 1286WAT    HW1 6427   1.520   0.726   1.791
 1286WAT    HW2 6428   1.455   0.602   1.733
 1286WAT    LP1 6429   1.574   0.654   1.688
 1286WAT    LP2 6430   1.579   0.603   1.790
 1287WAT     OW 6431   3.283   5.972   2.513
 1287WAT    HW1 6432   3.339   5.896   2.496
 1287WAT    HW2 6433   3.307   6.001   2.601
 1287WAT    LP1 6434   3.296   6.022   2.466
 1287WAT    LP2 6435   3.215   5.954   2.510
 1288WAT     OW 6436   2.063   4.441   3.780
 1288WAT    HW1 6437   2.145   4.474   3.818
 1288WAT    HW2 6438   2.049   4.495   3.703
 1288WAT    LP1 6439   2.069   4.374   3.763
 1288WAT    LP2 6440   2.010   4.449   3.826
 1289WAT     OW 6441   1.366   4.211   1.106
 1289WAT    HW1 6442   1.300   4.257   1.157
 1289WAT    HW2 6443   1.411   4.155   1.170
 1289WAT    LP1 6444   1.336   4.172   1.056
 1289WAT    LP2 6445   1.411   4.256   1.077
 1290WAT     OW 6446   0.502   0.770   4.763
 1290WAT    HW1 6447   0.591   0.783   4.729
 1290WAT    HW2 6448   0.513   0.763   4.857
 1290WAT    LP1 6449   0.461   0.825   4.747
 1290WAT    LP2 6450   0.474   0.712   4.736
 1291WAT     OW 6451   5.439   2.106   0.527
 1291WAT    HW1 6452   5.390   2.052   0.466
 1291WAT    HW2 6453   5.395   2.191   0.526
 1291WAT    LP1 6454   5.438   2.078   0.592
 1291WAT    LP2 6455   5.506   2.113   0.507
 1292WAT     OW 6456   5.066   1.010   3.501
 1292WAT    HW1 6457   5.022   1.075   3.446
 1292WAT    HW2 6458   5.130   0.968   3.443
 1292WAT    LP1 6459   5.098   1.041   3.555
 1292WAT    LP2 6460   5.020   0.963   3.525
 1293WAT     OW 6461   3.605   2.554   0.424
 1293WAT    HW1 6462   3.561   2.532   0.506
 1293WAT    HW2 6463   3.693   2.580   0.450
 1293WAT    LP1 6464   3.607   2.498   0.382
 1293WAT    LP2 6465   3.572   2.607   0.392
 1294WAT     OW 6466   3.427   2.717   1.586
 1294WAT    HW1 6467   3.374   2.674   1.654
 1294WAT    HW2 6468   3.395   2.807   1.583
 1294WAT    LP1 6469   3.495   2.715   1.603
 1294WAT    LP2 6470   3.418   2.685   1.524
 1295WAT     OW 6471   2.846   4.027   3.414
 1295WAT    HW1 6472   2.857   3.942   3.457
 1295WAT    HW2 6473   2.915   4.082   3.450
 1295WAT    LP1 6474   2.853   4.020   3.344
 1295WAT    LP2 6475   2.783   4.054   3.428
 1296WAT     OW 6476   4.274   3.270   1.925
 1296WAT    HW1 6477   4.189   3.313   1.936
 1296WAT    HW2 6478   4.320   3.326   1.863
 1296WAT    LP1 6479   4.308   3.267   1.986
 1296WAT    LP2 6480   4.266   3.206   1.899
 1297WAT     OW 6481   3.474   0.378   2.848
 1297WAT    HW1 6482   3.528   0.302   2.826
 1297WAT    HW2 6483   3.396   0.369   2.794
 1297WAT    LP1 6484   3.458   0.378   2.916
 1297WAT    LP2 6485   3.508   0.437   2.832
 1298WAT     OW 6486   0.026   2.479   1.099
 1298WAT    HW1 6487  -0.030   2.407   1.129
 1298WAT    HW2 6488   0.008   2.550   1.160
 1298WAT    LP1 6489   0.093   2.460   1.101
 1298WAT    LP2 6490   0.009   2.498   1.033
 1299WAT     OW 6491   5.350   0.722   2.366
 1299WAT    HW1 6492   5.285   0.737   2.434
 1299WAT    HW2 6493   5.425   0.683   2.413
 1299WAT    LP1 6494   5.326   0.677   2.318
 1299WAT    LP2 6495   5.369   0.782   2.336
 1300WAT     OW 6496   0.795   1.228   1.524
 1300WAT    HW1 6497   0.760   1.256   1.440
 1300WAT    HW2 6498   0.858   1.295   1.548
 1300WAT    LP1 6499   0.744   1.224   1.572
 1300WAT    LP2 6500   0.826   1.165   1.519
 1301WAT     OW 6501   3.916   0.420   1.333
 1301WAT    HW1 6502   3.821   0.414   1.323
 1301WAT    HW2 6503   3.950   0.343   1.288
 1301WAT    LP1 6504   3.941   0.479   1.304
 1301WAT    LP2 6505   3.934   0.419   1.401
 1302WAT     OW 6506   3.385   5.344   3.977
 1302WAT    HW1 6507   3.348   5.328   3.890
 1302WAT    HW2 6508   3.397   5.257   4.014
 1302WAT    LP1 6509   3.446   5.378   3.972
 1302WAT    LP2 6510   3.340   5.382   4.016
 1303WAT     OW 6511   1.122   6.134   3.619
 1303WAT    HW1 6512   1.090   6.060   3.568
 1303WAT    HW2 6513   1.043   6.183   3.643
 1303WAT    LP1 6514   1.156   6.113   3.676
 1303WAT    LP2 6515   1.165   6.174   3.580
 1304WAT     OW 6516   1.947   6.381   5.399
 1304WAT    HW1 6517   1.999   6.411   5.473
 1304WAT    HW2 6518   1.998   6.403   5.322
 1304WAT    LP1 6519   1.936   6.312   5.403
 1304WAT    LP2 6520   1.885   6.414   5.398
 1305WAT     OW 6521   6.641   3.423   4.208
 1305WAT    HW1 6522   6.554   3.398   4.241
 1305WAT    HW2 6523   6.629   3.511   4.172
 1305WAT    LP1 6524   6.688   3.423   4.260
 1305WAT    LP2 6525   6.661   3.379   4.158
 1306WAT     OW 6526   0.851   0.352   4.722
 1306WAT    HW1 6527   0.920   0.304   4.768
 1306WAT    HW2 6528   0.795   0.386   4.792
 1306WAT    LP1 6529   0.878   0.404   4.684
 1306WAT    LP2 6530   0.815   0.309   4.681
 1307WAT     OW 6531   1.276   1.057   0.427
 1307WAT    HW1 6532   1.282   1.152   0.416
 1307WAT    HW2 6533   1.340   1.022   0.366
 1307WAT    LP1 6534   1.291   1.039   0.493
 1307WAT    LP2 6535   1.211   1.035   0.411
 1308WAT     OW 6536   5.608   1.860   2.338
 1308WAT    HW1 6537   5.536   1.913   2.303
 1308WAT    HW2 6538   5.651   1.916   2.402
 1308WAT    LP1 6539   5.583   1.802   2.368
 1308WAT    LP2 6540   5.652   1.842   2.287
 1309WAT     OW 6541   4.651   3.921   3.713
 1309WAT    HW1 6542   4.569   3.886   3.748
 1309WAT    HW2 6543   4.700   3.843   3.684
 1309WAT    LP1 6544   4.639   3.964   3.659
 1309WAT    LP2 6545   4.687   3.955   3.762
 1310WAT     OW 6546   1.666   1.076   3.386
 1310WAT    HW1 6547   1.691   1.083   3.478
 1310WAT    HW2 6548   1.676   0.983   3.365
 1310WAT    LP1 6549   1.600   1.097   3.377
 1310WAT    LP2 6550   1.708   1.115   3.346
 1311WAT     OW 6551   2.341   4.247   6.462
 1311WAT    HW1 6552   2.255   4.228   6.424
 1311WAT    HW2 6553   2.325   4.314   6.527
 1311WAT    LP1 6554   2.368   4.189   6.491
 1311WAT    LP2 6555   2.385   4.270   6.412
 1312WAT     OW 6556   0.668   4.131   0.601
 1312WAT    HW1 6557   0.684   4.154   0.509
 1312WAT    HW2 6558   0.733   4.064   0.621
 1312WAT    LP1 6559   0.677   4.187   0.642
 1312WAT    LP2 6560   0.603   4.106   0.609
 1313WAT     OW 6561   5.314   1.130   0.378
 1313WAT    HW1 6562   5.274   1.091   0.455
 1313WAT    HW2 6563   5.387   1.072   0.357
 1313WAT    LP1 6564   5.268   1.132   0.325
 1313WAT    LP2 6565   5.337   1.195   0.391
 1314WAT     OW 6566   6.063   4.132   1.438
 1314WAT    HW1 6567   6.094   4.053   1.483
 1314WAT    HW2 6568   5.970   4.116   1.421
 1314WAT    LP1 6569   6.071   4.188   1.480
 1314WAT    LP2 6570   6.098   4.142   1.378
 1315WAT     OW 6571   6.232   1.692   3.983
 1315WAT    HW1 6572   6.161   1.753   4.005
 1315WAT    HW2 6573   6.205   1.654   3.900
 1315WAT    LP1 6574   6.292   1.726   3.976
 1315WAT    LP2 6575   6.238   1.643   4.032
 1316WAT     OW 6576   3.999   3.316   1.050
 1316WAT    HW1 6577   3.905   3.300   1.058
 1316WAT    HW2 6578   4.005   3.405   1.014
 1316WAT    LP1 6579   4.030   3.312   1.112
 1316WAT    LP2 6580   4.028   3.270   1.006
 1317WAT     OW 6581   2.251   1.150   6.506
 1317WAT    HW1 6582   2.323   1.180   6.450
 1317WAT    HW2 6583   2.293   1.096   6.573
 1317WAT    LP1 6584   2.217   1.204   6.535
 1317WAT    LP2 6585   2.205   1.112   6.468
 1318WAT     OW 6586   5.197   4.855   0.179
 1318WAT    HW1 6587   5.230   4.844   0.089
 1318WAT    HW2 6588   5.137   4.782   0.191
 1318WAT    LP1 6589   5.250   4.852   0.225
 1318WAT    LP2 6590   5.164   4.916   0.186
 1319WAT     OW 6591   2.215   0.797   6.306
 1319WAT    HW1 6592   2.243   0.746   6.230
 1319WAT    HW2 6593   2.149   0.742   6.348
 1319WAT    LP1 6594   2.268   0.809   6.348
 1319WAT    LP2 6595   2.186   0.857   6.285
 1320WAT     OW 6596   2.015   2.783   1.963
 1320WAT    HW1 6597   1.962   2.784   2.043
 1320WAT    HW2 6598   2.090   2.839   1.983
 1320WAT    LP1 6599   2.036   2.718   1.948
 1320WAT    LP2 6600   1.978   2.809   1.909
 1321WAT     OW 6601   5.004   3.189   1.822
 1321WAT    HW1 6602   5.075   3.150   1.873
 1321WAT    HW2 6603   4.961   3.115   1.780
 1321WAT    LP1 6604   4.960   3.223   1.864
 1321WAT    LP2 6605   5.030   3.233   1.774
 1322WAT     OW 6606   3.888   3.827   4.378
 1322WAT    HW1 6607   3.886   3.835   4.474
 1322WAT    HW2 6608   3.829   3.896   4.347
 1322WAT    LP1 6609   3.953   3.837   4.354
 1322WAT    LP2 6610   3.865   3.764   4.359
 1323WAT     OW 6611   3.335   6.345   5.215
 1323WAT    HW1 6612   3.429   6.348   5.235
 1323WAT    HW2 6613   3.329   6.372   5.123
 1323WAT    LP1 6614   3.310   6.280   5.224
 1323WAT    LP2 6615   3.299   6.390   5.256
 1324WAT     OW 6616   5.837   2.313   1.170
 1324WAT    HW1 6617   5.909   2.255   1.193
 1324WAT    HW2 6618   5.768   2.255   1.138
 1324WAT    LP1 6619   5.815   2.349   1.225
 1324WAT    LP2 6620   5.857   2.358   1.119
 1325WAT     OW 6621   6.481   1.179   3.405
 1325WAT    HW1 6622   6.484   1.265   3.364
 1325WAT    HW2 6623   6.554   1.131   3.366
 1325WAT    LP1 6624   6.489   1.184   3.474
 1325WAT    LP2 6625   6.420   1.147   3.391
 1326WAT     OW 6626   5.786   1.173   5.281
 1326WAT    HW1 6627   5.705   1.194   5.234
 1326WAT    HW2 6628   5.846   1.245   5.259
 1326WAT    LP1 6629   5.775   1.170   5.350
 1326WAT    LP2 6630   5.812   1.112   5.259
 1327WAT     OW 6631   3.871   3.172   2.781
 1327WAT    HW1 6632   3.865   3.141   2.871
 1327WAT    HW2 6633   3.793   3.136   2.739
 1327WAT    LP1 6634   3.871   3.242   2.778
 1327WAT    LP2 6635   3.929   3.147   2.750
 1328WAT     OW 6636   3.272   3.533   3.177
 1328WAT    HW1 6637   3.280   3.500   3.088
 1328WAT    HW2 6638   3.195   3.489   3.212
 1328WAT    LP1 6639   3.329   3.517   3.215
 1328WAT    LP2 6640   3.263   3.602   3.177
 1329WAT     OW 6641   6.759   0.617   3.728
 1329WAT    HW1 6642   6.713   0.558   3.669
 1329WAT    HW2 6643   6.745   0.580   3.815
 1329WAT    LP1 6644   6.827   0.618   3.713
 1329WAT    LP2 6645   6.733   0.682   3.724
 1330WAT     OW 6646   6.456   4.832   4.378
 1330WAT    HW1 6647   6.523   4.856   4.314
 1330WAT    HW2 6648   6.504   4.794   4.451
 1330WAT    LP1 6649   6.420   4.889   4.399
 1330WAT    LP2 6650   6.411   4.786   4.351
 1331WAT     OW 6651   0.634   3.520   3.864
 1331WAT    HW1 6652   0.661   3.483   3.780
 1331WAT    HW2 6653   0.604   3.608   3.843
 1331WAT    LP1 6654   0.581   3.483   3.892
 1331WAT    LP2 6655   0.687   3.522   3.909
 1332WAT     OW 6656   6.016   2.280   0.613
 1332WAT    HW1 6657   6.012   2.315   0.524
 1332WAT    HW2 6658   6.000   2.186   0.604
 1332WAT    LP1 6659   6.079   2.292   0.641
 1332WAT    LP2 6660   5.967   2.310   0.654
 1333WAT     OW 6661   3.748   3.963   3.496
 1333WAT    HW1 6662   3.818   3.940   3.558
 1333WAT    HW2 6663   3.698   3.882   3.485
 1333WAT    LP1 6664   3.708   4.014   3.523
 1333WAT    LP2 6665   3.775   3.985   3.435
 1334WAT     OW 6666   4.030   2.464   0.991
 1334WAT    HW1 6667   4.125   2.468   0.997
 1334WAT    HW2 6668   3.999   2.528   1.055
 1334WAT    LP1 6669   4.009   2.482   0.927
 1334WAT    LP2 6670   4.007   2.400   1.007
 1335WAT     OW 6671   2.858   5.135   0.908
 1335WAT    HW1 6672   2.826   5.064   0.964
 1335WAT    HW2 6673   2.783   5.194   0.900
 1335WAT    LP1 6674   2.912   5.168   0.938
 1335WAT    LP2 6675   2.877   5.111   0.846
 1336WAT     OW 6676   3.080   1.929   3.064
 1336WAT    HW1 6677   3.099   1.890   3.149
 1336WAT    HW2 6678   3.113   1.865   3.001
 1336WAT    LP1 6679   3.011   1.938   3.056
 1336WAT    LP2 6680   3.112   1.990   3.057
 1337WAT     OW 6681   2.226   2.194   5.991
 1337WAT    HW1 6682   2.252   2.236   5.909
 1337WAT    HW2 6683   2.245   2.259   6.059
 1337WAT    LP1 6684   2.158   2.179   5.991
 1337WAT    LP2 6685   2.263   2.135   6.002
 1338WAT     OW 6686   4.401   5.335   0.318
 1338WAT    HW1 6687   4.306   5.327   0.329
 1338WAT    HW2 6688   4.412   5.362   0.226
 1338WAT    LP1 6689   4.426   5.384   0.361
 1338WAT    LP2 6690   4.433   5.274   0.330
 1339WAT     OW 6691   4.729   0.240   1.623
 1339WAT    HW1 6692   4.703   0.157   1.582
 1339WAT    HW2 6693   4.708   0.229   1.716
 1339WAT    LP1 6694   4.797   0.252   1.614
 1339WAT    LP2 6695   4.692   0.293   1.596
 1340WAT     OW 6696   3.568   0.380   2.102
 1340WAT    HW1 6697   3.566   0.373   2.197
 1340WAT    HW2 6698   3.479   0.359   2.075
 1340WAT    LP1 6699   3.585   0.445   2.082
 1340WAT    LP2 6700   3.613   0.335   2.074
 1341WAT     OW 6701   6.132   2.038   2.724
 1341WAT    HW1 6702   6.113   2.127   2.753
 1341WAT    HW2 6703   6.220   2.020   2.757
 1341WAT    LP1 6704   6.086   1.992   2.750
 1341WAT    LP2 6705   6.131   2.033   2.654
 1342WAT     OW 6706   6.227   2.331   6.593
 1342WAT    HW1 6707   6.143   2.303   6.629
 1342WAT    HW2 6708   6.255   2.402   6.651
 1342WAT    LP1 6709   6.273   2.279   6.594
 1342WAT    LP2 6710   6.219   2.355   6.528
 1343WAT     OW 6711   4.514   2.021   3.340
 1343WAT    HW1 6712   4.572   1.990   3.270
 1343WAT    HW2 6713   4.534   2.114   3.349
 1343WAT    LP1 6714   4.447   2.013   3.321
 1343WAT    LP2 6715   4.526   1.987   3.400
 1344WAT     OW 6716   4.537   2.788   2.922
 1344WAT    HW1 6717   4.552   2.827   2.836
 1344WAT    HW2 6718   4.542   2.693   2.907
 1344WAT    LP1 6719   4.587   2.808   2.967
 1344WAT    LP2 6720   4.474   2.806   2.947
 1345WAT     OW 6721   6.261   3.963   4.008
 1345WAT    HW1 6722   6.185   3.923   4.049
 1345WAT    HW2 6723   6.326   3.969   4.078
 1345WAT    LP1 6724   6.284   3.923   3.955
 1345WAT    LP2 6725   6.245   4.027   3.984
 1346WAT     OW 6726   3.935   5.787   0.322
 1346WAT    HW1 6727   3.985   5.716   0.283
 1346WAT    HW2 6728   3.984   5.811   0.401
 1346WAT    LP1 6729   3.931   5.842   0.278
 1346WAT    LP2 6730   3.871   5.766   0.339
 1347WAT     OW 6731   3.540   0.631   2.930
 1347WAT    HW1 6732   3.590   0.619   3.011
 1347WAT    HW2 6733   3.530   0.543   2.895
 1347WAT    LP1 6734   3.478   0.660   2.943
 1347WAT    LP2 6735   3.575   0.672   2.885
 1348WAT     OW 6736   2.958   5.103   3.661
 1348WAT    HW1 6737   2.897   5.168   3.627
 1348WAT    HW2 6738   3.012   5.077   3.586
 1348WAT    LP1 6739   2.999   5.131   3.711
 1348WAT    LP2 6740   2.924   5.048   3.687
 1349WAT     OW 6741   6.481   1.727   2.202
 1349WAT    HW1 6742   6.392   1.752   2.226
 1349WAT    HW2 6743   6.474   1.635   2.174
 1349WAT    LP1 6744   6.504   1.767   2.149
 1349WAT    LP2 6745   6.524   1.733   2.256
 1350WAT     OW 6746   0.428   3.853   3.890
 1350WAT    HW1 6747   0.453   3.811   3.808
 1350WAT    HW2 6748   0.510   3.887   3.926
 1350WAT    LP1 6749   0.383   3.906   3.878
 1350WAT    LP2 6750   0.399   3.807   3.934
 1351WAT     OW 6751   3.474   0.382   4.170
 1351WAT    HW1 6752   3.398   0.348   4.217
 1351WAT    HW2 6753   3.537   0.404   4.239
 1351WAT    LP1 6754   3.501   0.333   4.127
 1351WAT    LP2 6755   3.457   0.438   4.132
 1352WAT     OW 6756   6.194   3.729   5.439
 1352WAT    HW1 6757   6.103   3.739   5.467
 1352WAT    HW2 6758   6.213   3.636   5.451
 1352WAT    LP1 6759   6.201   3.747   5.371
 1352WAT    LP2 6760   6.237   3.768   5.478
 1353WAT     OW 6761   6.785   5.534   1.734
 1353WAT    HW1 6762   6.705   5.544   1.682
 1353WAT    HW2 6763   6.789   5.615   1.786
 1353WAT    LP1 6764   6.781   5.478   1.776
 1353WAT    LP2 6765   6.841   5.529   1.693
 1354WAT     OW 6766   3.214   3.202   5.410
 1354WAT    HW1 6767   3.237   3.287   5.373
 1354WAT    HW2 6768   3.257   3.200   5.495
 1354WAT    LP1 6769   3.144   3.197   5.418
 1354WAT    LP2 6770   3.237   3.150   5.369
 1355WAT     OW 6771   0.691   1.716   1.575
 1355WAT    HW1 6772   0.770   1.696   1.525
 1355WAT    HW2 6773   0.629   1.646   1.550
 1355WAT    LP1 6774   0.703   1.714   1.644
 1355WAT    LP2 6775   0.665   1.779   1.558
 1356WAT     OW 6776   6.397   3.165   0.184
 1356WAT    HW1 6777   6.312   3.122   0.195
 1356WAT    HW2 6778   6.387   3.220   0.107
 1356WAT    LP1 6779   6.412   3.203   0.240
 1356WAT    LP2 6780   6.447   3.117   0.174
 1357WAT     OW 6781   0.094   2.295   4.470
 1357WAT    HW1 6782   0.070   2.205   4.492
 1357WAT    HW2 6783   0.162   2.318   4.533
 1357WAT    LP1 6784   0.118   2.299   4.405
 1357WAT    LP2 6785   0.039   2.338   4.477
 1358WAT     OW 6786   2.149   4.754   0.721
 1358WAT    HW1 6787   2.069   4.711   0.752
 1358WAT    HW2 6788   2.171   4.708   0.640
 1358WAT    LP1 6789   2.137   4.822   0.709
 1358WAT    LP2 6790   2.200   4.747   0.769
 1359WAT     OW 6791   0.749   6.383   2.124
 1359WAT    HW1 6792   0.808   6.412   2.193
 1359WAT    HW2 6793   0.771   6.438   2.049
 1359WAT    LP1 6794   0.761   6.315   2.108
 1359WAT    LP2 6795   0.683   6.392   2.142
 1360WAT     OW 6796   3.018   0.811   6.067
 1360WAT    HW1 6797   2.988   0.745   6.005
 1360WAT    HW2 6798   2.989   0.778   6.152
 1360WAT    LP1 6799   3.087   0.817   6.065
 1360WAT    LP2 6800   2.988   0.873   6.054
 1361WAT     OW 6801   0.692   1.285   2.832
 1361WAT    HW1 6802   0.649   1.330   2.760
 1361WAT    HW2 6803   0.760   1.347   2.862
 1361WAT    LP1 6804   0.647   1.271   2.884
 1361WAT    LP2 6805   0.721   1.225   2.810
 1362WAT     OW 6806   3.236   1.672   1.533
 1362WAT    HW1 6807   3.299   1.608   1.500
 1362WAT    HW2 6808   3.215   1.642   1.621
 1362WAT    LP1 6809   3.264   1.736   1.534
 1362WAT    LP2 6810   3.178   1.673   1.493
 1363WAT     OW 6811   4.791   4.645   6.019
 1363WAT    HW1 6812   4.707   4.598   6.016
 1363WAT    HW2 6813   4.785   4.697   6.099
 1363WAT    LP1 6814   4.844   4.600   6.023
 1363WAT    LP2 6815   4.798   4.686   5.963
 1364WAT     OW 6816   2.139   5.219   0.849
 1364WAT    HW1 6817   2.081   5.294   0.858
 1364WAT    HW2 6818   2.207   5.248   0.788
 1364WAT    LP1 6819   2.167   5.201   0.911
 1364WAT    LP2 6820   2.105   5.164   0.822
 1365WAT     OW 6821   4.058   5.303   1.558
 1365WAT    HW1 6822   3.971   5.304   1.598
 1365WAT    HW2 6823   4.045   5.259   1.474
 1365WAT    LP1 6824   4.081   5.369   1.549
 1365WAT    LP2 6825   4.103   5.268   1.598
 1366WAT     OW 6826   2.902   0.357   2.147
 1366WAT    HW1 6827   2.904   0.364   2.052
 1366WAT    HW2 6828   2.812   0.334   2.168
 1366WAT    LP1 6829   2.946   0.308   2.169
 1366WAT    LP2 6830   2.920   0.418   2.177
 1367WAT     OW 6831   0.959   4.813   0.318
 1367WAT    HW1 6832   0.994   4.848   0.236
 1367WAT    HW2 6833   1.004   4.863   0.386
 1367WAT    LP1 6834   0.890   4.823   0.322
 1367WAT    LP2 6835   0.973   4.745   0.324
 1368WAT     OW 6836   1.387   5.975   1.583
 1368WAT    HW1 6837   1.307   6.028   1.588
 1368WAT    HW2 6838   1.400   5.944   1.672
 1368WAT    LP1 6839   1.378   5.921   1.539
 1368WAT    LP2 6840   1.441   6.013   1.561
 1369WAT     OW 6841   5.488   2.545   0.246
 1369WAT    HW1 6842   5.472   2.518   0.156
 1369WAT    HW2 6843   5.409   2.519   0.293
 1369WAT    LP1 6844   5.544   2.512   0.272
 1369WAT    LP2 6845   5.498   2.614   0.250
 1370WAT     OW 6846   3.216   5.465   5.901
 1370WAT    HW1 6847   3.299   5.437   5.939
 1370WAT    HW2 6848   3.230   5.460   5.806
 1370WAT    LP1 6849   3.164   5.422   5.920
 1370WAT    LP2 6850   3.200   5.530   5.920
 1371WAT     OW 6851   4.549   4.176   1.701
 1371WAT    HW1 6852   4.459   4.160   1.730
 1371WAT    HW2 6853   4.587   4.089   1.689
 1371WAT    LP1 6854   4.549   4.212   1.641
 1371WAT    LP2 6855   4.584   4.212   1.749
 1372WAT     OW 6856   5.946   3.898   5.129
 1372WAT    HW1 6857   5.923   3.914   5.220
 1372WAT    HW2 6858   6.006   3.969   5.106
 1372WAT    LP1 6859   5.977   3.836   5.121
 1372WAT    LP2 6860   5.889   3.900   5.088
 1373WAT     OW 6861   0.863   4.079   2.261
 1373WAT    HW1 6862   0.907   4.164   2.262
 1373WAT    HW2 6863   0.803   4.082   2.335
 1373WAT    LP1 6864   0.827   4.071   2.201
 1373WAT    LP2 6865   0.909   4.028   2.268
 1374WAT     OW 6866   6.611   6.639   2.697
 1374WAT    HW1 6867   6.586   6.570   2.758
 1374WAT    HW2 6868   6.609   6.596   2.611
 1374WAT    LP1 6869   6.565   6.692   2.699
 1374WAT    LP2 6870   6.675   6.663   2.711
 1375WAT     OW 6871   4.680   2.403   4.073
 1375WAT    HW1 6872   4.754   2.464   4.080
 1375WAT    HW2 6873   4.721   2.316   4.072
 1375WAT    LP1 6874   4.638   2.409   4.128
 1375WAT    LP2 6875   4.644   2.414   4.014
 1376WAT     OW 6876   6.213   3.350   2.559
 1376WAT    HW1 6877   6.236   3.337   2.651
 1376WAT    HW2 6878   6.269   3.287   2.512
 1376WAT    LP1 6879   6.146   3.336   2.548
 1376WAT    LP2 6880   6.227   3.415   2.539
 1377WAT     OW 6881   3.885   1.375   1.235
 1377WAT    HW1 6882   3.828   1.401   1.308
 1377WAT    HW2 6883   3.875   1.280   1.229
 1377WAT    LP1 6884   3.865   1.407   1.176
 1377WAT    LP2 6885   3.952   1.392   1.249
 1378WAT     OW 6886   4.336   0.535   4.611
 1378WAT    HW1 6887   4.283   0.464   4.574
 1378WAT    HW2 6888   4.353   0.507   4.701
 1378WAT    LP1 6889   4.397   0.541   4.576
 1378WAT    LP2 6890   4.302   0.596   4.610
 1379WAT     OW 6891   4.317   1.570   1.510
 1379WAT    HW1 6892   4.226   1.569   1.541
 1379WAT    HW2 6893   4.344   1.479   1.512
 1379WAT    LP1 6894   4.321   1.596   1.445
 1379WAT    LP2 6895   4.357   1.609   1.553
 1380WAT     OW 6896   3.211   2.832   1.263
 1380WAT    HW1 6897   3.216   2.926   1.247
 1380WAT    HW2 6898   3.144   2.801   1.203
 1380WAT    LP1 6899   3.273   2.801   1.249
 1380WAT    LP2 6900   3.193   2.819   1.329
 1381WAT     OW 6901   0.666   0.830   1.264
 1381WAT    HW1 6902   0.581   0.867   1.286
 1381WAT    HW2 6903   0.710   0.898   1.214
 1381WAT    LP1 6904   0.702   0.814   1.322
 1381WAT    LP2 6905   0.658   0.772   1.226
 1382WAT     OW 6906   6.159   5.344   3.970
 1382WAT    HW1 6907   6.226   5.392   3.920
 1382WAT    HW2 6908   6.197   5.257   3.982
 1382WAT    LP1 6909   6.148   5.375   4.032
 1382WAT    LP2 6910   6.099   5.341   3.935
 1383WAT     OW 6911   0.569   5.031   1.295
 1383WAT    HW1 6912   0.577   4.942   1.329
 1383WAT    HW2 6913   0.501   5.072   1.349
 1383WAT    LP1 6914   0.629   5.066   1.300
 1383WAT    LP2 6915   0.549   5.030   1.227
 1384WAT     OW 6916   4.138   1.537   0.523
 1384WAT    HW1 6917   4.164   1.629   0.530
 1384WAT    HW2 6918   4.146   1.503   0.612
 1384WAT    LP1 6919   4.072   1.532   0.501
 1384WAT    LP2 6920   4.181   1.503   0.480
 1385WAT     OW 6921   3.521   3.120   4.595
 1385WAT    HW1 6922   3.509   3.203   4.641
 1385WAT    HW2 6923   3.586   3.073   4.648
 1385WAT    LP1 6924   3.461   3.084   4.591
 1385WAT    LP2 6925   3.546   3.131   4.530
 1386WAT     OW 6926   1.468   6.479   2.820
 1386WAT    HW1 6927   1.391   6.441   2.777
 1386WAT    HW2 6928   1.432   6.547   2.877
 1386WAT    LP1 6929   1.501   6.430   2.857
 1386WAT    LP2 6930   1.512   6.506   2.773
 1387WAT     OW 6931   3.510   4.144   3.001
 1387WAT    HW1 6932   3.448   4.105   3.062
 1387WAT    HW2 6933   3.499   4.239   3.012
 1387WAT    LP1 6934   3.575   4.125   3.016
 1387WAT    LP2 6935   3.495   4.125   2.935
 1388WAT     OW 6936   4.043   1.168   2.295
 1388WAT    HW1 6937   4.061   1.113   2.219
 1388WAT    HW2 6938   4.120   1.158   2.350
 1388WAT    LP1 6939   4.034   1.234   2.277
 1388WAT    LP2 6940   3.986   1.145   2.329
 1389WAT     OW 6941   5.770   0.777   2.657
 1389WAT    HW1 6942   5.729   0.863   2.672
 1389WAT    HW2 6943   5.806   0.753   2.742
 1389WAT    LP1 6944   5.722   0.730   2.636
 1389WAT    LP2 6945   5.821   0.782   2.609
 1390WAT     OW 6946   2.685   1.733   2.936
 1390WAT    HW1 6947   2.696   1.757   3.028
 1390WAT    HW2 6948   2.607   1.780   2.909
 1390WAT    LP1 6949   2.741   1.753   2.899
 1390WAT    LP2 6950   2.677   1.664   2.930
 1391WAT     OW 6951   2.239   0.685   4.037
 1391WAT    HW1 6952   2.234   0.780   4.046
 1391WAT    HW2 6953   2.204   0.652   4.120
 1391WAT    LP1 6954   2.199   0.664   3.983
 1391WAT    LP2 6955   2.305   0.664   4.028
 1392WAT     OW 6956   4.978   3.341   6.041
 1392WAT    HW1 6957   5.012   3.261   6.001
 1392WAT    HW2 6958   5.055   3.397   6.050
 1392WAT    LP1 6959   4.930   3.371   5.999
 1392WAT    LP2 6960   4.949   3.327   6.103
 1393WAT     OW 6961   4.248   2.770   3.650
 1393WAT    HW1 6962   4.249   2.706   3.721
 1393WAT    HW2 6963   4.307   2.735   3.584
 1393WAT    LP1 6964   4.183   2.777   3.624
 1393WAT    LP2 6965   4.270   2.833   3.672
 1394WAT     OW 6966   2.345   1.167   0.996
 1394WAT    HW1 6967   2.265   1.114   0.998
 1394WAT    HW2 6968   2.414   1.104   0.977
 1394WAT    LP1 6969   2.341   1.215   0.945
 1394WAT    LP2 6970   2.356   1.198   1.057
 1395WAT     OW 6971   0.868   4.836   5.924
 1395WAT    HW1 6972   0.937   4.816   5.988
 1395WAT    HW2 6973   0.821   4.753   5.913
 1395WAT    LP1 6974   0.826   4.885   5.949
 1395WAT    LP2 6975   0.896   4.857   5.864
 1396WAT     OW 6976   1.486   0.417   1.515
 1396WAT    HW1 6977   1.553   0.476   1.549
 1396WAT    HW2 6978   1.507   0.332   1.552
 1396WAT    LP1 6979   1.422   0.438   1.535
 1396WAT    LP2 6980   1.489   0.415   1.445
 1397WAT     OW 6981   6.380   5.943   1.507
 1397WAT    HW1 6982   6.424   5.958   1.591
 1397WAT    HW2 6983   6.450   5.934   1.443
 1397WAT    LP1 6984   6.341   5.885   1.510
 1397WAT    LP2 6985   6.339   5.998   1.492
 1398WAT     OW 6986   2.071   6.536   0.170
 1398WAT    HW1 6987   2.158   6.572   0.155
 1398WAT    HW2 6988   2.035   6.522   0.082
 1398WAT    LP1 6989   2.074   6.476   0.206
 1398WAT    LP2 6990   2.031   6.582   0.205
 1399WAT     OW 6991   6.261   3.593   2.437
 1399WAT    HW1 6992   6.181   3.637   2.405
 1399WAT    HW2 6993   6.230   3.508   2.469
 1399WAT    LP1 6994   6.307   3.585   2.385
 1399WAT    LP2 6995   6.290   3.630   2.489
 1400WAT     OW 6996   3.553   1.392   4.226
 1400WAT    HW1 6997   3.522   1.305   4.252
 1400WAT    HW2 6998   3.473   1.440   4.201
 1400WAT    LP1 6999   3.585   1.424   4.279
 1400WAT    LP2 7000   3.597   1.388   4.172
 1401WAT     OW 7001   2.460   1.118   4.185
 1401WAT    HW1 7002   2.472   1.204   4.226
 1401WAT    HW2 7003   2.482   1.055   4.254
 1401WAT    LP1 7004   2.394   1.109   4.164
 1401WAT    LP2 7005   2.504   1.111   4.131
 1402WAT     OW 7006   2.534   3.042   4.078
 1402WAT    HW1 7007   2.466   3.043   4.012
 1402WAT    HW2 7008   2.499   2.986   4.148
 1402WAT    LP1 7009   2.593   3.014   4.052
 1402WAT    LP2 7010   2.548   3.106   4.102
 1403WAT     OW 7011   5.073   2.957   4.858
 1403WAT    HW1 7012   5.161   2.986   4.835
 1403WAT    HW2 7013   5.015   3.023   4.820
 1403WAT    LP1 7014   5.060   2.894   4.830
 1403WAT    LP2 7015   5.065   2.954   4.927
 1404WAT     OW 7016   4.721   2.824   0.297
 1404WAT    HW1 7017   4.811   2.857   0.293
 1404WAT    HW2 7018   4.725   2.738   0.256
 1404WAT    LP1 7019   4.700   2.819   0.364
 1404WAT    LP2 7020   4.678   2.866   0.262
 1405WAT     OW 7021   3.747   3.443   1.604
 1405WAT    HW1 7022   3.723   3.421   1.694
 1405WAT    HW2 7023   3.690   3.388   1.550
 1405WAT    LP1 7024   3.736   3.510   1.591
 1405WAT    LP2 7025   3.815   3.427   1.592
 1406WAT     OW 7026   5.087   4.480   4.280
 1406WAT    HW1 7027   5.022   4.478   4.350
 1406WAT    HW2 7028   5.119   4.390   4.275
 1406WAT    LP1 7029   5.058   4.500   4.220
 1406WAT    LP2 7030   5.139   4.524   4.296
 1407WAT     OW 7031   4.086   3.703   3.182
 1407WAT    HW1 7032   4.107   3.689   3.090
 1407WAT    HW2 7033   4.069   3.797   3.189
 1407WAT    LP1 7034   4.029   3.667   3.201
 1407WAT    LP2 7035   4.139   3.685   3.223
 1408WAT     OW 7036   0.283   6.410   5.850
 1408WAT    HW1 7037   0.215   6.404   5.782
 1408WAT    HW2 7038   0.327   6.493   5.832
 1408WAT    LP1 7039   0.254   6.411   5.914
 1408WAT    LP2 7040   0.327   6.356   5.845
 1409WAT     OW 7041   2.567   3.911   1.009
 1409WAT    HW1 7042   2.602   3.877   0.927
 1409WAT    HW2 7043   2.632   3.974   1.039
 1409WAT    LP1 7044   2.505   3.943   0.998
 1409WAT    LP2 7045   2.559   3.860   1.056
 1410WAT     OW 7046   0.154   6.120   1.667
 1410WAT    HW1 7047   0.207   6.200   1.666
 1410WAT    HW2 7048   0.075   6.145   1.715
 1410WAT    LP1 7049   0.138   6.100   1.602
 1410WAT    LP2 7050   0.188   6.069   1.700
 1411WAT     OW 7051   5.960   1.506   0.517
 1411WAT    HW1 7052   6.003   1.424   0.539
 1411WAT    HW2 7053   5.876   1.503   0.562
 1411WAT    LP1 7054   5.998   1.561   0.539
 1411WAT    LP2 7055   5.950   1.512   0.447
 1412WAT     OW 7056   2.469   1.423   4.756
 1412WAT    HW1 7057   2.452   1.329   4.747
 1412WAT    HW2 7058   2.563   1.432   4.740
 1412WAT    LP1 7059   2.432   1.459   4.708
 1412WAT    LP2 7060   2.452   1.445   4.820
 1413WAT     OW 7061   0.820   4.416   5.288
 1413WAT    HW1 7062   0.872   4.436   5.365
 1413WAT    HW2 7063   0.798   4.323   5.297
 1413WAT    LP1 7064   0.762   4.455   5.286
 1413WAT    LP2 7065   0.857   4.426   5.229
 1414WAT     OW 7066   2.589   3.081   0.680
 1414WAT    HW1 7067   2.611   3.046   0.766
 1414WAT    HW2 7068   2.518   3.143   0.696
 1414WAT    LP1 7069   2.644   3.113   0.651
 1414WAT    LP2 7070   2.568   3.029   0.637
 1415WAT     OW 7071   0.314   5.564   2.262
 1415WAT    HW1 7072   0.243   5.538   2.204
 1415WAT    HW2 7073   0.294   5.522   2.346
 1415WAT    LP1 7074   0.376   5.540   2.238
 1415WAT    LP2 7075   0.317   5.633   2.269
 1416WAT     OW 7076   0.659   6.010   3.666
 1416WAT    HW1 7077   0.701   6.014   3.581
 1416WAT    HW2 7078   0.611   5.926   3.666
 1416WAT    LP1 7079   0.707   6.011   3.718
 1416WAT    LP2 7080   0.614   6.063   3.675
 1417WAT     OW 7081   6.113   2.919   2.564
 1417WAT    HW1 7082   6.047   2.967   2.614
 1417WAT    HW2 7083   6.094   2.827   2.582
 1417WAT    LP1 7084   6.107   2.932   2.496
 1417WAT    LP2 7085   6.177   2.935   2.586
 1418WAT     OW 7086   3.283   1.941   1.563
 1418WAT    HW1 7087   3.275   1.852   1.529
 1418WAT    HW2 7088   3.247   1.936   1.652
 1418WAT    LP1 7089   3.350   1.961   1.565
 1418WAT    LP2 7090   3.246   1.985   1.524
 1419WAT     OW 7091   4.977   5.356   3.685
 1419WAT    HW1 7092   4.919   5.291   3.645
 1419WAT    HW2 7093   5.014   5.312   3.761
 1419WAT    LP1 7094   5.027   5.375   3.640
 1419WAT    LP2 7095   4.941   5.412   3.704
 1420WAT     OW 7096   3.577   1.190   4.930
 1420WAT    HW1 7097   3.543   1.228   4.849
 1420WAT    HW2 7098   3.506   1.202   4.993
 1420WAT    LP1 7099   3.592   1.123   4.921
 1420WAT    LP2 7100   3.635   1.224   4.951
 1421WAT     OW 7101   6.283   5.095   3.959
 1421WAT    HW1 7102   6.374   5.086   3.985
 1421WAT    HW2 7103   6.282   5.074   3.866
 1421WAT    LP1 7104   6.242   5.050   3.995
 1421WAT    LP2 7105   6.260   5.160   3.970
 1422WAT     OW 7106   5.666   4.586   6.079
 1422WAT    HW1 7107   5.578   4.606   6.045
 1422WAT    HW2 7108   5.697   4.515   6.023
 1422WAT    LP1 7109   5.707   4.642   6.073
 1422WAT    LP2 7110   5.663   4.566   6.146
 1423WAT     OW 7111   3.179   4.376   2.956
 1423WAT    HW1 7112   3.124   4.453   2.970
 1423WAT    HW2 7113   3.163   4.352   2.865
 1423WAT    LP1 7114   3.246   4.392   2.966
 1423WAT    LP2 7115   3.160   4.324   2.999
 1424WAT     OW 7116   4.813   6.332   4.492
 1424WAT    HW1 7117   4.830   6.356   4.583
 1424WAT    HW2 7118   4.886   6.275   4.468
 1424WAT    LP1 7119   4.752   6.298   4.487
 1424WAT    LP2 7120   4.812   6.388   4.451
 1425WAT     OW 7121   1.968   0.226   0.609
 1425WAT    HW1 7122   2.059   0.238   0.582
 1425WAT    HW2 7123   1.918   0.234   0.527
 1425WAT    LP1 7124   1.958   0.163   0.638
 1425WAT    LP2 7125   1.949   0.276   0.654
 1426WAT     OW 7126   3.926   6.451   0.148
 1426WAT    HW1 7127   3.942   6.372   0.200
 1426WAT    HW2 7128   3.937   6.423   0.057
 1426WAT    LP1 7129   3.860   6.474   0.159
 1426WAT    LP2 7130   3.971   6.502   0.165
 1427WAT     OW 7131   2.789   5.026   4.631
 1427WAT    HW1 7132   2.727   4.955   4.613
 1427WAT    HW2 7133   2.859   5.014   4.568
 1427WAT    LP1 7134   2.758   5.089   4.623
 1427WAT    LP2 7135   2.813   5.021   4.697
 1428WAT     OW 7136   4.680   3.262   1.003
 1428WAT    HW1 7137   4.703   3.352   1.026
 1428WAT    HW2 7138   4.630   3.230   1.078
 1428WAT    LP1 7139   4.641   3.260   0.945
 1428WAT    LP2 7140   4.738   3.223   0.993
 1429WAT     OW 7141   5.357   3.996   4.005
 1429WAT    HW1 7142   5.452   3.982   4.002
 1429WAT    HW2 7143   5.326   3.934   4.072
 1429WAT    LP1 7144   5.342   4.061   4.024
 1429WAT    LP2 7145   5.328   3.982   3.943
 1430WAT     OW 7146   4.282   4.505   5.019
 1430WAT    HW1 7147   4.188   4.522   5.015
 1430WAT    HW2 7148   4.321   4.572   4.963
 1430WAT    LP1 7149   4.306   4.510   5.085
 1430WAT    LP2 7150   4.296   4.441   4.995
 1431WAT     OW 7151   5.672   3.478   2.220
 1431WAT    HW1 7152   5.627   3.394   2.231
 1431WAT    HW2 7153   5.760   3.453   2.191
 1431WAT    LP1 7154   5.640   3.517   2.172
 1431WAT    LP2 7155   5.675   3.512   2.281
 1432WAT     OW 7156   1.695   3.940   1.025
 1432WAT    HW1 7157   1.749   3.887   1.084
 1432WAT    HW2 7158   1.607   3.905   1.035
 1432WAT    LP1 7159   1.697   4.007   1.043
 1432WAT    LP2 7160   1.717   3.933   0.959
 1433WAT     OW 7161   1.017   0.651   1.125
 1433WAT    HW1 7162   0.993   0.594   1.198
 1433WAT    HW2 7163   1.015   0.740   1.163
 1433WAT    LP1 7164   1.082   0.636   1.102
 1433WAT    LP2 7165   0.972   0.646   1.073
 1434WAT     OW 7166   0.217   0.947   4.019
 1434WAT    HW1 7167   0.126   0.937   3.990
 1434WAT    HW2 7168   0.211   0.991   4.104
 1434WAT    LP1 7169   0.248   0.885   4.026
 1434WAT    LP2 7170   0.254   0.986   3.974
 1435WAT     OW 7171   3.752   1.672   3.131
 1435WAT    HW1 7172   3.734   1.748   3.185
 1435WAT    HW2 7173   3.697   1.683   3.054
 1435WAT    LP1 7174   3.820   1.670   3.113
 1435WAT    LP2 7175   3.736   1.613   3.165
 1436WAT     OW 7176   2.579   6.615   5.329
 1436WAT    HW1 7177   2.606   6.525   5.308
 1436WAT    HW2 7178   2.612   6.668   5.257
 1436WAT    LP1 7179   2.509   6.619   5.333
 1436WAT    LP2 7180   2.606   6.636   5.390
 1437WAT     OW 7181   2.743   0.962   5.902
 1437WAT    HW1 7182   2.755   0.980   5.995
 1437WAT    HW2 7183   2.688   0.883   5.900
 1437WAT    LP1 7184   2.711   1.015   5.870
 1437WAT    LP2 7185   2.805   0.950   5.871
 1438WAT     OW 7186   4.164   6.236   4.749
 1438WAT    HW1 7187   4.131   6.169   4.688
 1438WAT    HW2 7188   4.103   6.233   4.823
 1438WAT    LP1 7189   4.229   6.220   4.770
 1438WAT    LP2 7190   4.163   6.299   4.719
 1439WAT     OW 7191   4.746   1.457   1.547
 1439WAT    HW1 7192   4.730   1.550   1.532
 1439WAT    HW2 7193   4.718   1.414   1.466
 1439WAT    LP1 7194   4.814   1.445   1.558
 1439WAT    LP2 7195   4.708   1.433   1.601
 1440WAT     OW 7196   1.867   4.814   6.564
 1440WAT    HW1 7197   1.896   4.863   6.487
 1440WAT    HW2 7198   1.821   4.738   6.528
 1440WAT    LP1 7199   1.921   4.794   6.603
 1440WAT    LP2 7200   1.823   4.853   6.602
 1441WAT     OW 7201   2.747   0.016   3.879
 1441WAT    HW1 7202   2.833  -0.011   3.846
 1441WAT    HW2 7203   2.759   0.109   3.899
 1441WAT    LP1 7204   2.698   0.008   3.830
 1441WAT    LP2 7205   2.730  -0.020   3.936
 1442WAT     OW 7206   4.932   3.799   3.265
 1442WAT    HW1 7207   4.988   3.842   3.201
 1442WAT    HW2 7208   4.898   3.870   3.320
 1442WAT    LP1 7209   4.880   3.764   3.234
 1442WAT    LP2 7210   4.970   3.754   3.304
 1443WAT     OW 7211   4.962   6.078   2.466
 1443WAT    HW1 7212   4.880   6.115   2.431
 1443WAT    HW2 7213   4.984   6.008   2.405
 1443WAT    LP1 7214   5.012   6.127   2.467
 1443WAT    LP2 7215   4.952   6.053   2.531
 1444WAT     OW 7216   1.674   1.575   1.005
 1444WAT    HW1 7217   1.645   1.559   1.095
 1444WAT    HW2 7218   1.768   1.559   1.007
 1444WAT    LP1 7219   1.642   1.532   0.961
 1444WAT    LP2 7220   1.661   1.641   0.986
 1445WAT     OW 7221   5.620   6.200   1.526
 1445WAT    HW1 7222   5.566   6.227   1.600
 1445WAT    HW2 7223   5.567   6.136   1.479
 1445WAT    LP1 7224   5.635   6.254   1.485
 1445WAT    LP2 7225   5.680   6.171   1.549
 1446WAT     OW 7226   2.203   6.314   4.953
 1446WAT    HW1 7227   2.118   6.313   4.910
 1446WAT    HW2 7228   2.248   6.236   4.919
 1446WAT    LP1 7229   2.239   6.372   4.937
 1446WAT    LP2 7230   2.196   6.309   5.023
 1447WAT     OW 7231   0.367   5.566   0.087
 1447WAT    HW1 7232   0.403   5.650   0.116
 1447WAT    HW2 7233   0.381   5.507   0.161
 1447WAT    LP1 7234   0.299   5.572   0.072
 1447WAT    LP2 7235   0.402   5.544   0.030
 1448WAT     OW 7236   2.923   3.408   0.686
 1448WAT    HW1 7237   2.943   3.434   0.597
 1448WAT    HW2 7238   3.006   3.415   0.733
 1448WAT    LP1 7239   2.875   3.450   0.715
 1448WAT    LP2 7240   2.899   3.342   0.688
 1449WAT     OW 7241   1.755   3.344   6.316
 1449WAT    HW1 7242   1.738   3.291   6.393
 1449WAT    HW2 7243   1.795   3.424   6.350
 1449WAT    LP1 7244   1.799   3.311   6.272
 1449WAT    LP2 7245   1.695   3.358   6.282
 1450WAT     OW 7246   2.676   2.261   5.495
 1450WAT    HW1 7247   2.632   2.205   5.431
 1450WAT    HW2 7248   2.709   2.335   5.443
 1450WAT    LP1 7249   2.632   2.283   5.544
 1450WAT    LP2 7250   2.729   2.227   5.526
 1451WAT     OW 7251   1.471   1.273   4.426
 1451WAT    HW1 7252   1.564   1.297   4.430
 1451WAT    HW2 7253   1.466   1.189   4.473
 1451WAT    LP1 7254   1.431   1.321   4.457
 1451WAT    LP2 7255   1.451   1.265   4.359
 1452WAT     OW 7256   3.580   2.374   3.169
 1452WAT    HW1 7257   3.577   2.319   3.247
 1452WAT    HW2 7258   3.499   2.426   3.173
 1452WAT    LP1 7259   3.636   2.416   3.170
 1452WAT    LP2 7260   3.580   2.335   3.111
 1453WAT     OW 7261   0.868   2.771   0.705
 1453WAT    HW1 7262   0.876   2.859   0.669
 1453WAT    HW2 7263   0.790   2.775   0.760
 1453WAT    LP1 7264   0.860   2.724   0.654
 1453WAT    LP2 7265   0.924   2.754   0.743
 1454WAT     OW 7266   5.994   2.871   4.782
 1454WAT    HW1 7267   5.991   2.912   4.696
 1454WAT    HW2 7268   6.026   2.939   4.841
 1454WAT    LP1 7269   5.930   2.850   4.802
 1454WAT    LP2 7270   6.037   2.816   4.783
 1455WAT     OW 7271   6.583   4.895   2.331
 1455WAT    HW1 7272   6.556   4.857   2.248
 1455WAT    HW2 7273   6.590   4.820   2.391
 1455WAT    LP1 7274   6.645   4.927   2.325
 1455WAT    LP2 7275   6.536   4.941   2.355
 1456WAT     OW 7276   2.864   1.762   1.872
 1456WAT    HW1 7277   2.847   1.680   1.825
 1456WAT    HW2 7278   2.955   1.754   1.901
 1456WAT    LP1 7279   2.857   1.817   1.829
 1456WAT    LP2 7280   2.822   1.769   1.927
 1457WAT     OW 7281   6.155   1.151   1.340
 1457WAT    HW1 7282   6.225   1.121   1.398
 1457WAT    HW2 7283   6.127   1.234   1.378
 1457WAT    LP1 7284   6.179   1.160   1.275
 1457WAT    LP2 7285   6.102   1.105   1.340
 1458WAT     OW 7286   5.228   4.137   3.382
 1458WAT    HW1 7287   5.222   4.041   3.386
 1458WAT    HW2 7288   5.306   4.158   3.433
 1458WAT    LP1 7289   5.234   4.158   3.316
 1458WAT    LP2 7290   5.171   4.166   3.411
 1459WAT     OW 7291   6.095   1.735   0.189
 1459WAT    HW1 7292   6.090   1.742   0.284
 1459WAT    HW2 7293   6.169   1.676   0.173
 1459WAT    LP1 7294   6.036   1.709   0.162
 1459WAT    LP2 7295   6.108   1.798   0.161
 1460WAT     OW 7296   3.223   0.592   2.563
 1460WAT    HW1 7297   3.246   0.643   2.640
 1460WAT    HW2 7298   3.223   0.501   2.594
 1460WAT    LP1 7299   3.159   0.610   2.540
 1460WAT    LP2 7300   3.270   0.601   2.512
 1461WAT     OW 7301   6.544   3.846   4.315
 1461WAT    HW1 7302   6.624   3.839   4.366
 1461WAT    HW2 7303   6.476   3.810   4.372
 1461WAT    LP1 7304   6.530   3.913   4.299
 1461WAT    LP2 7305   6.549   3.809   4.256
 1462WAT     OW 7306   3.375   1.906   0.843
 1462WAT    HW1 7307   3.310   1.840   0.865
 1462WAT    HW2 7308   3.411   1.877   0.759
 1462WAT    LP1 7309   3.345   1.969   0.837
 1462WAT    LP2 7310   3.425   1.908   0.892
 1463WAT     OW 7311   5.770   2.329   5.862
 1463WAT    HW1 7312   5.851   2.361   5.822
 1463WAT    HW2 7313   5.793   2.313   5.954
 1463WAT    LP1 7314   5.719   2.377   5.857
 1463WAT    LP2 7315   5.750   2.269   5.831
 1464WAT     OW 7316   4.957   1.165   1.554
 1464WAT    HW1 7317   4.863   1.147   1.556
 1464WAT    HW2 7318   4.973   1.201   1.467
 1464WAT    LP1 7319   4.975   1.211   1.604
 1464WAT    LP2 7320   4.994   1.106   1.564
 1465WAT     OW 7321   3.237   4.812   3.363
 1465WAT    HW1 7322   3.333   4.820   3.359
 1465WAT    HW2 7323   3.223   4.728   3.408
 1465WAT    LP1 7324   3.209   4.864   3.399
 1465WAT    LP2 7325   3.210   4.810   3.299
 1466WAT     OW 7326   1.060   3.464   2.438
 1466WAT    HW1 7327   1.039   3.397   2.373
 1466WAT    HW2 7328   0.980   3.473   2.490
 1466WAT    LP1 7329   1.113   3.443   2.479
 1466WAT    LP2 7330   1.077   3.525   2.408
 1467WAT     OW 7331   4.627   5.480   6.259
 1467WAT    HW1 7332   4.627   5.386   6.274
 1467WAT    HW2 7333   4.535   5.506   6.269
 1467WAT    LP1 7334   4.667   5.513   6.305
 1467WAT    LP2 7335   4.649   5.495   6.194
 1468WAT     OW 7336   4.645   5.914   2.258
 1468WAT    HW1 7337   4.583   5.984   2.236
 1468WAT    HW2 7338   4.726   5.939   2.215
 1468WAT    LP1 7339   4.654   5.910   2.328
 1468WAT    LP2 7340   4.622   5.853   2.234
 1469WAT     OW 7341   6.611   4.522   4.399
 1469WAT    HW1 7342   6.518   4.496   4.397
 1469WAT    HW2 7343   6.614   4.593   4.464
 1469WAT    LP1 7344   6.651   4.469   4.419
 1469WAT    LP2 7345   6.631   4.546   4.336
 1470WAT     OW 7346   1.903   0.005   5.496
 1470WAT    HW1 7347   1.942  -0.058   5.556
 1470WAT    HW2 7348   1.812  -0.021   5.488
 1470WAT    LP1 7349   1.908   0.070   5.521
 1470WAT    LP2 7350   1.935   0.003   5.433
 1471WAT     OW 7351   4.858   4.844   4.981
 1471WAT    HW1 7352   4.910   4.924   4.969
 1471WAT    HW2 7353   4.822   4.852   5.069
 1471WAT    LP1 7354   4.807   4.840   4.933
 1471WAT    LP2 7355   4.899   4.787   4.976
 1472WAT     OW 7356   5.920   4.686   4.955
 1472WAT    HW1 7357   5.948   4.698   4.864
 1472WAT    HW2 7358   5.993   4.639   4.997
 1472WAT    LP1 7359   5.909   4.748   4.986
 1472WAT    LP2 7360   5.861   4.647   4.958
 1473WAT     OW 7361   5.434   3.687   3.939
 1473WAT    HW1 7362   5.364   3.706   3.877
 1473WAT    HW2 7363   5.392   3.693   4.025
 1473WAT    LP1 7364   5.460   3.623   3.929
 1473WAT    LP2 7365   5.486   3.734   3.933
 1474WAT     OW 7366   4.814   3.530   6.286
 1474WAT    HW1 7367   4.892   3.526   6.341
 1474WAT    HW2 7368   4.791   3.438   6.269
 1474WAT    LP1 7369   4.762   3.562   6.319
 1474WAT    LP2 7370   4.827   3.563   6.226
 1475WAT     OW 7371   6.589   5.411   1.423
 1475WAT    HW1 7372   6.635   5.452   1.351
 1475WAT    HW2 7373   6.628   5.324   1.431
 1475WAT    LP1 7374   6.598   5.448   1.482
 1475WAT    LP2 7375   6.520   5.406   1.409
 1476WAT     OW 7376   2.091   1.090   6.032
 1476WAT    HW1 7377   2.086   1.085   6.128
 1476WAT    HW2 7378   2.163   1.033   6.009
 1476WAT    LP1 7379   2.031   1.068   6.004
 1476WAT    LP2 7380   2.103   1.156   6.012
 1477WAT     OW 7381   4.874   3.494   5.661
 1477WAT    HW1 7382   4.816   3.561   5.623
 1477WAT    HW2 7383   4.826   3.463   5.738
 1477WAT    LP1 7384   4.885   3.442   5.615
 1477WAT    LP2 7385   4.935   3.522   5.679
 1478WAT     OW 7386   3.358   2.885   3.682
 1478WAT    HW1 7387   3.412   2.961   3.705
 1478WAT    HW2 7388   3.271   2.908   3.716
 1478WAT    LP1 7389   3.356   2.875   3.613
 1478WAT    LP2 7390   3.382   2.827   3.713
 1479WAT     OW 7391   1.485   6.536   2.424
 1479WAT    HW1 7392   1.476   6.574   2.337
 1479WAT    HW2 7393   1.402   6.490   2.439
 1479WAT    LP1 7394   1.538   6.491   2.426
 1479WAT    LP2 7395   1.495   6.586   2.472
 1480WAT     OW 7396   3.669   4.409   2.851
 1480WAT    HW1 7397   3.605   4.442   2.915
 1480WAT    HW2 7398   3.704   4.488   2.810
 1480WAT    LP1 7399   3.720   4.373   2.883
 1480WAT    LP2 7400   3.638   4.368   2.804
 1481WAT     OW 7401   2.765   0.052   2.696
 1481WAT    HW1 7402   2.857   0.048   2.668
 1481WAT    HW2 7403   2.769   0.079   2.788
 1481WAT    LP1 7404   2.729   0.098   2.658
 1481WAT    LP2 7405   2.735  -0.011   2.690
 1482WAT     OW 7406   5.298   1.533   1.755
 1482WAT    HW1 7407   5.314   1.472   1.683
 1482WAT    HW2 7408   5.279   1.478   1.830
 1482WAT    LP1 7409   5.355   1.573   1.766
 1482WAT    LP2 7410   5.244   1.575   1.740
 1483WAT     OW 7411   4.168   0.157   6.510
 1483WAT    HW1 7412   4.094   0.212   6.536
 1483WAT    HW2 7413   4.245   0.212   6.528
 1483WAT    LP1 7414   4.170   0.098   6.548
 1483WAT    LP2 7415   4.164   0.141   6.442
 1484WAT     OW 7416   6.024   1.450   2.984
 1484WAT    HW1 7417   5.931   1.438   3.005
 1484WAT    HW2 7418   6.041   1.541   3.007
 1484WAT    LP1 7419   6.064   1.407   3.022
 1484WAT    LP2 7420   6.036   1.439   2.916
 1485WAT     OW 7421   6.727   5.541   3.889
 1485WAT    HW1 7422   6.716   5.602   3.962
 1485WAT    HW2 7423   6.712   5.454   3.928
 1485WAT    LP1 7424   6.681   5.554   3.839
 1485WAT    LP2 7425   6.792   5.545   3.863
 1486WAT     OW 7426   6.305   3.331   4.788
 1486WAT    HW1 7427   6.332   3.242   4.768
 1486WAT    HW2 7428   6.211   3.332   4.775
 1486WAT    LP1 7429   6.321   3.348   4.854
 1486WAT    LP2 7430   6.336   3.376   4.744
 1487WAT     OW 7431   4.504   3.039   4.206
 1487WAT    HW1 7432   4.466   2.982   4.272
 1487WAT    HW2 7433   4.558   3.101   4.255
 1487WAT    LP1 7434   4.543   3.003   4.161
 1487WAT    LP2 7435   4.453   3.073   4.171
 1488WAT     OW 7436   3.433   5.862   1.486
 1488WAT    HW1 7437   3.421   5.875   1.392
 1488WAT    HW2 7438   3.428   5.950   1.523
 1488WAT    LP1 7439   3.382   5.821   1.512
 1488WAT    LP2 7440   3.495   5.833   1.499
 1489WAT     OW 7441   3.378   5.316   2.261
 1489WAT    HW1 7442   3.321   5.385   2.227
 1489WAT    HW2 7443   3.381   5.251   2.190
 1489WAT    LP1 7444   3.442   5.341   2.274
 1489WAT    LP2 7445   3.352   5.288   2.319
 1490WAT     OW 7446   2.872   0.397   4.650
 1490WAT    HW1 7447   2.840   0.326   4.706
 1490WAT    HW2 7448   2.963   0.410   4.677
 1490WAT    LP1 7449   2.868   0.378   4.582
 1490WAT    LP2 7450   2.834   0.455   4.660
 1491WAT     OW 7451   0.597   5.618   1.496
 1491WAT    HW1 7452   0.543   5.622   1.574
 1491WAT    HW2 7453   0.643   5.702   1.494
 1491WAT    LP1 7454   0.643   5.565   1.500
 1491WAT    LP2 7455   0.558   5.609   1.439
 1492WAT     OW 7456   5.583   6.305   5.061
 1492WAT    HW1 7457   5.578   6.258   5.144
 1492WAT    HW2 7458   5.645   6.377   5.078
 1492WAT    LP1 7459   5.607   6.264   5.011
 1492WAT    LP2 7460   5.521   6.330   5.043
 1493WAT     OW 7461   2.801   3.732   2.072
 1493WAT    HW1 7462   2.733   3.726   2.005
 1493WAT    HW2 7463   2.793   3.821   2.106
 1493WAT    LP1 7464   2.791   3.685   2.123
 1493WAT    LP2 7465   2.865   3.722   2.044
 1494WAT     OW 7466   3.910   5.266   0.076
 1494WAT    HW1 7467   3.873   5.193   0.126
 1494WAT    HW2 7468   3.998   5.237   0.052
 1494WAT    LP1 7469   3.871   5.278   0.018
 1494WAT    LP2 7470   3.912   5.324   0.115
 1495WAT     OW 7471   3.592   0.894   6.448
 1495WAT    HW1 7472   3.577   0.844   6.528
 1495WAT    HW2 7473   3.509   0.937   6.430
 1495WAT    LP1 7474   3.644   0.941   6.456
 1495WAT    LP2 7475   3.609   0.850   6.395
 1496WAT     OW 7476   1.727   2.153   3.571
 1496WAT    HW1 7477   1.638   2.158   3.536
 1496WAT    HW2 7478   1.770   2.086   3.518
 1496WAT    LP1 7479   1.759   2.215   3.564
 1496WAT    LP2 7480   1.726   2.135   3.638
 1497WAT     OW 7481   3.076   5.540   1.948
 1497WAT    HW1 7482   3.127   5.520   1.870
 1497WAT    HW2 7483   3.026   5.619   1.924
 1497WAT    LP1 7484   3.032   5.488   1.964
 1497WAT    LP2 7485   3.118   5.553   2.002
 1498WAT     OW 7486   5.898   3.419   0.126
 1498WAT    HW1 7487   5.988   3.416   0.160
 1498WAT    HW2 7488   5.846   3.450   0.200
 1498WAT    LP1 7489   5.893   3.463   0.072
 1498WAT    LP2 7490   5.877   3.355   0.107
 1499WAT     OW 7491   5.842   2.409   2.117
 1499WAT    HW1 7492   5.760   2.365   2.096
 1499WAT    HW2 7493   5.816   2.494   2.152
 1499WAT    LP1 7494   5.878   2.373   2.165
 1499WAT    LP2 7495   5.882   2.417   2.060
 1500WAT     OW 7496   5.037   6.652   2.789
 1500WAT    HW1 7497   5.110   6.713   2.777
 1500WAT    HW2 7498   5.037   6.634   2.883
 1500WAT    LP1 7499   4.977   6.682   2.770
 1500WAT    LP2 7500   5.048   6.594   2.753
 1501WAT     OW 7501   3.218   0.603   4.278
 1501WAT    HW1 7502   3.293   0.654   4.249
 1501WAT    HW2 7503   3.156   0.609   4.206
 1501WAT    LP1 7504   3.236   0.537   4.290
 1501WAT    LP2 7505   3.191   0.630   4.337
 1502WAT     OW 7506   3.234   5.532   2.176
 1502WAT    HW1 7507   3.176   5.537   2.101
 1502WAT    HW2 7508   3.183   5.568   2.248
 1502WAT    LP1 7509   3.252   5.465   2.189
 1502WAT    LP2 7510   3.292   5.569   2.165
 1503WAT     OW 7511   4.811   6.255   1.861
 1503WAT    HW1 7512   4.876   6.269   1.931
 1503WAT    HW2 7513   4.856   6.279   1.781
 1503WAT    LP1 7514   4.790   6.188   1.860
 1503WAT    LP2 7515   4.755   6.296   1.871
 1504WAT     OW 7516   3.406   0.010   1.497
 1504WAT    HW1 7517   3.344  -0.062   1.485
 1504WAT    HW2 7518   3.486  -0.031   1.530
 1504WAT    LP1 7519   3.418   0.042   1.435
 1504WAT    LP2 7520   3.382   0.057   1.543
 1505WAT     OW 7521   0.432   5.649   1.283
 1505WAT    HW1 7522   0.383   5.729   1.303
 1505WAT    HW2 7523   0.489   5.635   1.358
 1505WAT    LP1 7524   0.388   5.595   1.275
 1505WAT    LP2 7525   0.469   5.657   1.224
 1506WAT     OW 7526   2.826   0.223   5.579
 1506WAT    HW1 7527   2.862   0.181   5.656
 1506WAT    HW2 7528   2.741   0.181   5.566
 1506WAT    LP1 7529   2.818   0.292   5.590
 1506WAT    LP2 7530   2.867   0.213   5.523
 1507WAT     OW 7531   6.135   3.607   4.772
 1507WAT    HW1 7532   6.102   3.632   4.859
 1507WAT    HW2 7533   6.230   3.617   4.779
 1507WAT    LP1 7534   6.118   3.541   4.757
 1507WAT    LP2 7535   6.110   3.650   4.723
 1508WAT     OW 7536   6.741   3.329   0.211
 1508WAT    HW1 7537   6.776   3.413   0.242
 1508WAT    HW2 7538   6.662   3.315   0.264
 1508WAT    LP1 7539   6.724   3.333   0.143
 1508WAT    LP2 7540   6.787   3.278   0.220
 1509WAT     OW 7541   1.184   1.469   1.372
 1509WAT    HW1 7542   1.114   1.427   1.421
 1509WAT    HW2 7543   1.139   1.518   1.303
 1509WAT    LP1 7544   1.221   1.512   1.413
 1509WAT    LP2 7545   1.227   1.421   1.344
 1510WAT     OW 7546   5.391   1.008   5.753
 1510WAT    HW1 7547   5.345   1.087   5.779
 1510WAT    HW2 7548   5.332   0.936   5.779
 1510WAT    LP1 7549   5.402   1.007   5.684
 1510WAT    LP2 7550   5.452   1.003   5.787
 1511WAT     OW 7551   2.718   2.777   0.634
 1511WAT    HW1 7552   2.780   2.807   0.701
 1511WAT    HW2 7553   2.747   2.820   0.554
 1511WAT    LP1 7554   2.722   2.707   0.628
 1511WAT    LP2 7555   2.653   2.796   0.650
 1512WAT     OW 7556   2.702   5.233   0.518
 1512WAT    HW1 7557   2.645   5.164   0.553
 1512WAT    HW2 7558   2.788   5.211   0.553
 1512WAT    LP1 7559   2.702   5.231   0.448
 1512WAT    LP2 7560   2.681   5.296   0.540
 1513WAT     OW 7561   1.622   4.211   3.226
 1513WAT    HW1 7562   1.541   4.259   3.211
 1513WAT    HW2 7563   1.601   4.121   3.203
 1513WAT    LP1 7564   1.674   4.236   3.185
 1513WAT    LP2 7565   1.641   4.215   3.293
 1514WAT     OW 7566   4.823   3.550   0.384
 1514WAT    HW1 7567   4.852   3.492   0.314
 1514WAT    HW2 7568   4.903   3.576   0.429
 1514WAT    LP1 7569   4.789   3.605   0.358
 1514WAT    LP2 7570   4.780   3.516   0.429
 1515WAT     OW 7571   5.906   0.858   6.171
 1515WAT    HW1 7572   5.882   0.951   6.176
 1515WAT    HW2 7573   5.991   0.853   6.215
 1515WAT    LP1 7574   5.858   0.819   6.203
 1515WAT    LP2 7575   5.911   0.838   6.104
 1516WAT     OW 7576   5.514   4.271   4.653
 1516WAT    HW1 7577   5.577   4.283   4.582
 1516WAT    HW2 7578   5.568   4.252   4.730
 1516WAT    LP1 7579   5.476   4.329   4.663
 1516WAT    LP2 7580   5.471   4.217   4.639
 1517WAT     OW 7581   1.726   1.873   1.160
 1517WAT    HW1 7582   1.684   1.840   1.239
 1517WAT    HW2 7583   1.664   1.936   1.124
 1517WAT    LP1 7584   1.787   1.904   1.176
 1517WAT    LP2 7585   1.738   1.821   1.115
 1518WAT     OW 7586   4.111   1.436   0.116
 1518WAT    HW1 7587   4.020   1.407   0.125
 1518WAT    HW2 7588   4.105   1.531   0.116
 1518WAT    LP1 7589   4.149   1.414   0.170
 1518WAT    LP2 7590   4.139   1.413   0.056
 1519WAT     OW 7591   0.281   2.409   5.503
 1519WAT    HW1 7592   0.322   2.442   5.583
 1519WAT    HW2 7593   0.342   2.436   5.433
 1519WAT    LP1 7594   0.274   2.340   5.505
 1519WAT    LP2 7595   0.218   2.439   5.493
 1520WAT     OW 7596   2.356   4.429   2.316
 1520WAT    HW1 7597   2.347   4.519   2.284
 1520WAT    HW2 7598   2.413   4.386   2.252
 1520WAT    LP1 7599   2.385   4.428   2.379
 1520WAT    LP2 7600   2.294   4.397   2.318
 1521WAT     OW 7601   5.677   4.451   4.238
 1521WAT    HW1 7602   5.642   4.408   4.160
 1521WAT    HW2 7603   5.763   4.483   4.211
 1521WAT    LP1 7604   5.636   4.505   4.257
 1521WAT    LP2 7605   5.683   4.406   4.291
 1522WAT     OW 7606   3.860   2.736   5.622
 1522WAT    HW1 7607   3.781   2.686   5.602
 1522WAT    HW2 7608   3.859   2.747   5.717
 1522WAT    LP1 7609   3.917   2.702   5.601
 1522WAT    LP2 7610   3.858   2.799   5.590
 1523WAT     OW 7611   2.579   4.650   4.784
 1523WAT    HW1 7612   2.563   4.726   4.728
 1523WAT    HW2 7613   2.562   4.682   4.873
 1523WAT    LP1 7614   2.535   4.598   4.768
 1523WAT    LP2 7615   2.645   4.628   4.778
 1524WAT     OW 7616   3.602   0.216   3.997
 1524WAT    HW1 7617   3.683   0.266   3.985
 1524WAT    HW2 7618   3.546   0.274   4.048
 1524WAT    LP1 7619   3.572   0.202   3.935
 1524WAT    LP2 7620   3.614   0.156   4.031
 1525WAT     OW 7621   4.769   2.485   6.424
 1525WAT    HW1 7622   4.813   2.535   6.493
 1525WAT    HW2 7623   4.737   2.552   6.363
 1525WAT    LP1 7624   4.813   2.442   6.392
 1525WAT    LP2 7625   4.715   2.449   6.451
 1526WAT     OW 7626   3.526   2.336   4.667
 1526WAT    HW1 7627   3.455   2.296   4.616
 1526WAT    HW2 7628   3.557   2.265   4.724
 1526WAT    LP1 7629   3.578   2.357   4.625
 1526WAT    LP2 7630   3.503   2.390   4.705
 1527WAT     OW 7631   2.633   6.324   3.851
 1527WAT    HW1 7632   2.679   6.316   3.935
 1527WAT    HW2 7633   2.678   6.264   3.792
 1527WAT    LP1 7634   2.566   6.306   3.858
 1527WAT    LP2 7635   2.637   6.390   3.827
 1528WAT     OW 7636   1.881   4.685   1.586
 1528WAT    HW1 7637   1.837   4.650   1.509
 1528WAT    HW2 7638   1.974   4.669   1.571
 1528WAT    LP1 7639   1.869   4.754   1.592
 1528WAT    LP2 7640   1.859   4.653   1.644
 1529WAT     OW 7641   5.725   6.208   0.322
 1529WAT    HW1 7642   5.757   6.165   0.401
 1529WAT    HW2 7643   5.736   6.302   0.339
 1529WAT    LP1 7644   5.762   6.188   0.266
 1529WAT    LP2 7645   5.657   6.193   0.311
 1530WAT     OW 7646   3.863   5.967   3.967
 1530WAT    HW1 7647   3.802   6.013   3.910
 1530WAT    HW2 7648   3.808   5.922   4.031
 1530WAT    LP1 7649   3.901   5.921   3.930
 1530WAT    LP2 7650   3.907   6.012   3.999
 1531WAT     OW 7651   3.387   2.530   2.528
 1531WAT    HW1 7652   3.455   2.513   2.463
 1531WAT    HW2 7653   3.320   2.580   2.480
 1531WAT    LP1 7654   3.360   2.471   2.553
 1531WAT    LP2 7655   3.412   2.569   2.581
 1532WAT     OW 7656   5.583   1.255   0.693
 1532WAT    HW1 7657   5.625   1.339   0.677
 1532WAT    HW2 7658   5.611   1.200   0.619
 1532WAT    LP1 7659   5.604   1.227   0.754
 1532WAT    LP2 7660   5.513   1.261   0.693
 1533WAT     OW 7661   3.767   5.224   5.053
 1533WAT    HW1 7662   3.799   5.268   5.132
 1533WAT    HW2 7663   3.695   5.279   5.022
 1533WAT    LP1 7664   3.818   5.220   5.004
 1533WAT    LP2 7665   3.745   5.160   5.068
 1534WAT     OW 7666   1.802   3.434   2.632
 1534WAT    HW1 7667   1.841   3.480   2.706
 1534WAT    HW2 7668   1.758   3.502   2.582
 1534WAT    LP1 7669   1.852   3.403   2.593
 1534WAT    LP2 7670   1.757   3.385   2.654
 1535WAT     OW 7671   5.986   4.707   4.686
 1535WAT    HW1 7672   5.977   4.796   4.652
 1535WAT    HW2 7673   6.070   4.676   4.652
 1535WAT    LP1 7674   5.986   4.707   4.756
 1535WAT    LP2 7675   5.934   4.666   4.663
 1536WAT     OW 7676   5.233   0.632   3.351
 1536WAT    HW1 7677   5.317   0.586   3.342
 1536WAT    HW2 7678   5.177   0.593   3.284
 1536WAT    LP1 7679   5.207   0.622   3.415
 1536WAT    LP2 7680   5.241   0.700   3.340
 1537WAT     OW 7681   5.022   2.814   3.479
 1537WAT    HW1 7682   5.079   2.885   3.450
 1537WAT    HW2 7683   4.937   2.832   3.438
 1537WAT    LP1 7684   5.047   2.752   3.457
 1537WAT    LP2 7685   5.016   2.813   3.549
 1538WAT     OW 7686   0.512   1.244   0.735
 1538WAT    HW1 7687   0.543   1.330   0.705
 1538WAT    HW2 7688   0.417   1.253   0.740
 1538WAT    LP1 7689   0.529   1.194   0.689
 1538WAT    LP2 7690   0.539   1.228   0.797
 1539WAT     OW 7691   2.252   2.431   4.830
 1539WAT    HW1 7692   2.205   2.500   4.782
 1539WAT    HW2 7693   2.197   2.412   4.905
 1539WAT    LP1 7694   2.260   2.374   4.790
 1539WAT    LP2 7695   2.315   2.454   4.850
 1540WAT     OW 7696   4.600   6.060   2.671
 1540WAT    HW1 7697   4.521   6.080   2.621
 1540WAT    HW2 7698   4.649   6.142   2.674
 1540WAT    LP1 7699   4.584   6.038   2.736
 1540WAT    LP2 7700   4.637   6.010   2.639
 1541WAT     OW 7701   0.228   4.027   1.355
 1541WAT    HW1 7702   0.166   3.955   1.364
 1541WAT    HW2 7703   0.263   4.039   1.444
 1541WAT    LP1 7704   0.279   4.011   1.311
 1541WAT    LP2 7705   0.196   4.085   1.334
 1542WAT     OW 7706   2.136   2.892   4.547
 1542WAT    HW1 7707   2.080   2.905   4.623
 1542WAT    HW2 7708   2.108   2.960   4.485
 1542WAT    LP1 7709   2.203   2.901   4.564
 1542WAT    LP2 7710   2.127   2.828   4.520
 1543WAT     OW 7711   5.720   2.866   2.359
 1543WAT    HW1 7712   5.720   2.860   2.454
 1543WAT    HW2 7713   5.768   2.946   2.339
 1543WAT    LP1 7714   5.752   2.810   2.331
 1543WAT    LP2 7715   5.655   2.870   2.334
 1544WAT     OW 7716   3.261   4.889   6.507
 1544WAT    HW1 7717   3.281   4.801   6.537
 1544WAT    HW2 7718   3.168   4.886   6.484
 1544WAT    LP1 7719   3.272   4.936   6.558
 1544WAT    LP2 7720   3.300   4.906   6.452
 1545WAT     OW 7721   0.589   3.723   3.407
 1545WAT    HW1 7722   0.515   3.672   3.373
 1545WAT    HW2 7723   0.666   3.667   3.392
 1545WAT    LP1 7724   0.596   3.783   3.373
 1545WAT    LP2 7725   0.581   3.735   3.475
 1546WAT     OW 7726   0.276   1.506   3.546
 1546WAT    HW1 7727   0.321   1.556   3.614
 1546WAT    HW2 7728   0.246   1.427   3.591
 1546WAT    LP1 7729   0.221   1.542   3.521
 1546WAT    LP2 7730   0.319   1.490   3.494
 1547WAT     OW 7731   4.180   4.578   3.233
 1547WAT    HW1 7732   4.198   4.484   3.240
 1547WAT    HW2 7733   4.251   4.612   3.179
 1547WAT    LP1 7734   4.118   4.589   3.202
 1547WAT    LP2 7735   4.180   4.607   3.296
 1548WAT     OW 7736   5.761   6.003   2.457
 1548WAT    HW1 7737   5.698   6.010   2.529
 1548WAT    HW2 7738   5.714   6.038   2.382
 1548WAT    LP1 7739   5.818   6.040   2.471
 1548WAT    LP2 7740   5.779   5.936   2.447
 1549WAT     OW 7741   6.732   6.649   1.457
 1549WAT    HW1 7742   6.679   6.569   1.447
 1549WAT    HW2 7743   6.711   6.680   1.545
 1549WAT    LP1 7744   6.800   6.634   1.451
 1549WAT    LP2 7745   6.714   6.696   1.409
 1550WAT     OW 7746   0.655   5.276   3.856
 1550WAT    HW1 7747   0.611   5.229   3.785
 1550WAT    HW2 7748   0.641   5.368   3.835
 1550WAT    LP1 7749   0.626   5.260   3.918
 1550WAT    LP2 7750   0.723   5.261   3.857
 1551WAT     OW 7751   3.997   2.265   2.236
 1551WAT    HW1 7752   4.090   2.287   2.241
 1551WAT    HW2 7753   3.990   2.209   2.159
 1551WAT    LP1 7754   3.976   2.231   2.293
 1551WAT    LP2 7755   3.958   2.323   2.228
 1552WAT     OW 7756   6.147   0.039   2.279
 1552WAT    HW1 7757   6.226   0.082   2.245
 1552WAT    HW2 7758   6.174   0.005   2.364
 1552WAT    LP1 7759   6.095   0.085   2.285
 1552WAT    LP2 7760   6.128  -0.013   2.236
 1553WAT     OW 7761   1.264   1.609   2.798
 1553WAT    HW1 7762   1.296   1.698   2.810
 1553WAT    HW2 7763   1.174   1.611   2.830
 1553WAT    LP1 7764   1.266   1.591   2.731
 1553WAT    LP2 7765   1.302   1.564   2.836
 1554WAT     OW 7766   1.520   4.439   2.386
 1554WAT    HW1 7767   1.522   4.412   2.478
 1554WAT    HW2 7768   1.584   4.381   2.343
 1554WAT    LP1 7769   1.456   4.429   2.359
 1554WAT    LP2 7770   1.538   4.506   2.379
 1555WAT     OW 7771   6.627   0.288   5.185
 1555WAT    HW1 7772   6.610   0.304   5.278
 1555WAT    HW2 7773   6.564   0.344   5.139
 1555WAT    LP1 7774   6.693   0.305   5.168
 1555WAT    LP2 7775   6.616   0.221   5.169
 1556WAT     OW 7776   3.068   4.563   0.488
 1556WAT    HW1 7777   3.118   4.583   0.409
 1556WAT    HW2 7778   3.134   4.556   0.557
 1556WAT    LP1 7779   3.023   4.615   0.503
 1556WAT    LP2 7780   3.034   4.503   0.481
 1557WAT     OW 7781   5.890   2.004   0.340
 1557WAT    HW1 7782   5.947   1.999   0.417
 1557WAT    HW2 7783   5.951   2.019   0.267
 1557WAT    LP1 7784   5.855   1.944   0.331
 1557WAT    LP2 7785   5.845   2.057   0.346
 1558WAT     OW 7786   0.576   4.159   6.392
 1558WAT    HW1 7787   0.567   4.096   6.320
 1558WAT    HW2 7788   0.548   4.243   6.355
 1558WAT    LP1 7789   0.535   4.141   6.446
 1558WAT    LP2 7790   0.643   4.163   6.413
 1559WAT     OW 7791   0.111   6.520   4.764
 1559WAT    HW1 7792   0.116   6.565   4.848
 1559WAT    HW2 7793   0.091   6.589   4.701
 1559WAT    LP1 7794   0.172   6.490   4.748
 1559WAT    LP2 7795   0.061   6.472   4.765
 1560WAT     OW 7796   1.848   6.240   5.748
 1560WAT    HW1 7797   1.935   6.201   5.755
 1560WAT    HW2 7798   1.809   6.226   5.834
 1560WAT    LP1 7799   1.852   6.308   5.733
 1560WAT    LP2 7800   1.810   6.207   5.699
 1561WAT     OW 7801   5.261   5.648   5.613
 1561WAT    HW1 7802   5.298   5.576   5.562
 1561WAT    HW2 7803   5.232   5.607   5.694
 1561WAT    LP1 7804   5.309   5.697   5.625
 1561WAT    LP2 7805   5.207   5.677   5.579
 1562WAT     OW 7806   2.768   6.343   0.855
 1562WAT    HW1 7807   2.676   6.352   0.830
 1562WAT    HW2 7808   2.806   6.290   0.784
 1562WAT    LP1 7809   2.799   6.405   0.859
 1562WAT    LP2 7810   2.774   6.310   0.916
 1563WAT     OW 7811   6.573   5.150   1.752
 1563WAT    HW1 7812   6.621   5.143   1.835
 1563WAT    HW2 7813   6.641   5.169   1.687
 1563WAT    LP1 7814   6.541   5.089   1.737
 1563WAT    LP2 7815   6.526   5.201   1.754
 1564WAT     OW 7816   3.588   6.685   4.176
 1564WAT    HW1 7817   3.587   6.760   4.116
 1564WAT    HW2 7818   3.649   6.710   4.245
 1564WAT    LP1 7819   3.525   6.673   4.202
 1564WAT    LP2 7820   3.611   6.628   4.143
 1565WAT     OW 7821   4.911   5.254   4.816
 1565WAT    HW1 7822   4.954   5.255   4.731
 1565WAT    HW2 7823   4.829   5.207   4.801
 1565WAT    LP1 7824   4.950   5.221   4.864
 1565WAT    LP2 7825   4.898   5.320   4.838
 1566WAT     OW 7826   1.259   0.116   0.704
 1566WAT    HW1 7827   1.220   0.107   0.791
 1566WAT    HW2 7828   1.270   0.210   0.693
 1566WAT    LP1 7829   1.321   0.083   0.701
 1566WAT    LP2 7830   1.217   0.090   0.655
 1567WAT     OW 7831   6.677   3.087   4.374
 1567WAT    HW1 7832   6.714   3.067   4.460
 1567WAT    HW2 7833   6.737   3.151   4.336
 1567WAT    LP1 7834   6.674   3.029   4.335
 1567WAT    LP2 7835   6.613   3.114   4.380
 1568WAT     OW 7836   2.602   5.098   0.100
 1568WAT    HW1 7837   2.654   5.147   0.037
 1568WAT    HW2 7838   2.563   5.026   0.050
 1568WAT    LP1 7839   2.642   5.073   0.152
 1568WAT    LP2 7840   2.552   5.139   0.128
 1569WAT     OW 7841   2.171   1.872   2.364
 1569WAT    HW1 7842   2.237   1.853   2.430
 1569WAT    HW2 7843   2.088   1.841   2.403
 1569WAT    LP1 7844   2.168   1.940   2.351
 1569WAT    LP2 7845   2.184   1.837   2.305
 1570WAT     OW 7846   0.059   0.605   5.169
 1570WAT    HW1 7847   0.075   0.513   5.147
 1570WAT    HW2 7848   0.071   0.652   5.086
 1570WAT    LP1 7849  -0.006   0.614   5.192
 1570WAT    LP2 7850   0.104   0.627   5.217
 1571WAT     OW 7851   0.054   1.004   6.104
 1571WAT    HW1 7852   0.032   1.079   6.160
 1571WAT    HW2 7853   0.127   1.035   6.051
 1571WAT    LP1 7854   0.072   0.949   6.142
 1571WAT    LP2 7855  -0.001   0.988   6.063
 1572WAT     OW 7856   3.492   5.606   2.111
 1572WAT    HW1 7857   3.501   5.697   2.139
 1572WAT    HW2 7858   3.405   5.580   2.142
 1572WAT    LP1 7859   3.496   5.601   2.041
 1572WAT    LP2 7860   3.542   5.566   2.139
 1573WAT     OW 7861   4.041   5.006   5.767
 1573WAT    HW1 7862   3.963   5.011   5.822
 1573WAT    HW2 7863   4.112   4.986   5.828
 1573WAT    LP1 7864   4.035   4.955   5.720
 1573WAT    LP2 7865   4.053   5.066   5.734
 1574WAT     OW 7866   4.705   5.716   1.550
 1574WAT    HW1 7867   4.642   5.786   1.534
 1574WAT    HW2 7868   4.687   5.651   1.481
 1574WAT    LP1 7869   4.770   5.740   1.545
 1574WAT    LP2 7870   4.695   5.687   1.613
 1575WAT     OW 7871   6.132   2.648   4.833
 1575WAT    HW1 7872   6.066   2.602   4.885
 1575WAT    HW2 7873   6.089   2.727   4.803
 1575WAT    LP1 7874   6.188   2.663   4.873
 1575WAT    LP2 7875   6.153   2.609   4.779
 1576WAT     OW 7876   5.490   6.304   2.604
 1576WAT    HW1 7877   5.562   6.365   2.590
 1576WAT    HW2 7878   5.436   6.312   2.525
 1576WAT    LP1 7879   5.514   6.238   2.610
 1576WAT    LP2 7880   5.453   6.321   2.661
 1577WAT     OW 7881   6.554   4.533   0.583
 1577WAT    HW1 7882   6.597   4.565   0.662
 1577WAT    HW2 7883   6.520   4.447   0.607
 1577WAT    LP1 7884   6.502   4.577   0.564
 1577WAT    LP2 7885   6.600   4.528   0.530
 1578WAT     OW 7886   6.393   3.048   4.348
 1578WAT    HW1 7887   6.486   3.067   4.364
 1578WAT    HW2 7888   6.393   2.967   4.297
 1578WAT    LP1 7889   6.358   3.040   4.408
 1578WAT    LP2 7890   6.364   3.100   4.311
 1579WAT     OW 7891   5.939   4.872   2.237
 1579WAT    HW1 7892   5.918   4.963   2.216
 1579WAT    HW2 7893   5.915   4.863   2.329
 1579WAT    LP1 7894   5.903   4.828   2.197
 1579WAT    LP2 7895   6.008   4.861   2.228
 1580WAT     OW 7896   1.091   2.197   3.387
 1580WAT    HW1 7897   1.122   2.113   3.353
 1580WAT    HW2 7898   1.104   2.258   3.314
 1580WAT    LP1 7899   1.023   2.193   3.404
 1580WAT    LP2 7900   1.128   2.216   3.443
 1581WAT     OW 7901   4.235   0.927   5.178
 1581WAT    HW1 7902   4.318   0.881   5.187
 1581WAT    HW2 7903   4.252   0.994   5.111
 1581WAT    LP1 7904   4.185   0.884   5.158
 1581WAT    LP2 7905   4.217   0.958   5.239
 1582WAT     OW 7906   4.404   3.116   0.197
 1582WAT    HW1 7907   4.431   3.195   0.244
 1582WAT    HW2 7908   4.395   3.144   0.106
 1582WAT    LP1 7909   4.452   3.066   0.203
 1582WAT    LP2 7910   4.343   3.093   0.222
 1583WAT     OW 7911   5.050   1.641   5.850
 1583WAT    HW1 7912   5.067   1.732   5.873
 1583WAT    HW2 7913   5.124   1.616   5.794
 1583WAT    LP1 7914   5.048   1.601   5.907
 1583WAT    LP2 7915   4.990   1.635   5.815
 1584WAT     OW 7916   2.379   1.540   2.612
 1584WAT    HW1 7917   2.366   1.540   2.707
 1584WAT    HW2 7918   2.375   1.632   2.587
 1584WAT    LP1 7919   2.442   1.513   2.596
 1584WAT    LP2 7920   2.329   1.503   2.580
 1585WAT     OW 7921   0.437   5.016   1.884
 1585WAT    HW1 7922   0.469   5.033   1.796
 1585WAT    HW2 7923   0.390   5.095   1.909
 1585WAT    LP1 7924   0.393   4.961   1.884
 1585WAT    LP2 7925   0.490   5.004   1.928
 1586WAT     OW 7926   5.887   4.845   1.498
 1586WAT    HW1 7927   5.845   4.783   1.437
 1586WAT    HW2 7928   5.948   4.895   1.444
 1586WAT    LP1 7929   5.839   4.887   1.527
 1586WAT    LP2 7930   5.921   4.810   1.548
 1587WAT     OW 7931   3.293   0.165   1.694
 1587WAT    HW1 7932   3.331   0.123   1.617
 1587WAT    HW2 7933   3.363   0.221   1.728
 1587WAT    LP1 7934   3.237   0.203   1.677
 1587WAT    LP2 7935   3.274   0.117   1.742
 1588WAT     OW 7936   5.370   4.505   5.251
 1588WAT    HW1 7937   5.312   4.464   5.316
 1588WAT    HW2 7938   5.422   4.567   5.302
 1588WAT    LP1 7939   5.410   4.457   5.220
 1588WAT    LP2 7940   5.332   4.538   5.203
 1589WAT     OW 7941   3.858   5.261   0.779
 1589WAT    HW1 7942   3.799   5.275   0.705
 1589WAT    HW2 7943   3.873   5.348   0.816
 1589WAT    LP1 7944   3.828   5.219   0.827
 1589WAT    LP2 7945   3.918   5.233   0.758
 1590WAT     OW 7946   5.180   4.920   5.758
 1590WAT    HW1 7947   5.094   4.961   5.758
 1590WAT    HW2 7948   5.234   4.978   5.704
 1590WAT    LP1 7949   5.206   4.917   5.823
 1590WAT    LP2 7950   5.178   4.856   5.731
 1591WAT     OW 7951   0.081   5.705   6.384
 1591WAT    HW1 7952   0.092   5.795   6.354
 1591WAT    HW2 7953  -0.009   5.683   6.359
 1591WAT    LP1 7954   0.126   5.662   6.352
 1591WAT    LP2 7955   0.089   5.700   6.453
 1592WAT     OW 7956   3.104   1.395   0.695
 1592WAT    HW1 7957   3.167   1.387   0.624
 1592WAT    HW2 7958   3.067   1.483   0.685
 1592WAT    LP1 7959   3.054   1.346   0.691
 1592WAT    LP2 7960   3.136   1.390   0.757
 1593WAT     OW 7961   2.312   6.093   4.823
 1593WAT    HW1 7962   2.243   6.027   4.817
 1593WAT    HW2 7963   2.358   6.088   4.739
 1593WAT    LP1 7964   2.284   6.157   4.832
 1593WAT    LP2 7965   2.355   6.079   4.876
 1594WAT     OW 7966   3.493   1.622   2.672
 1594WAT    HW1 7967   3.412   1.583   2.641
 1594WAT    HW2 7968   3.562   1.561   2.644
 1594WAT    LP1 7969   3.503   1.685   2.643
 1594WAT    LP2 7970   3.493   1.628   2.742
 1595WAT     OW 7971   3.691   5.576   4.804
 1595WAT    HW1 7972   3.775   5.548   4.765
 1595WAT    HW2 7973   3.694   5.672   4.800
 1595WAT    LP1 7974   3.638   5.552   4.766
 1595WAT    LP2 7975   3.686   5.555   4.870
 1596WAT     OW 7976   0.506   0.356   0.376
 1596WAT    HW1 7977   0.595   0.360   0.411
 1596WAT    HW2 7978   0.481   0.264   0.384
 1596WAT    LP1 7979   0.462   0.397   0.414
 1596WAT    LP2 7980   0.504   0.376   0.309
 1597WAT     OW 7981   1.389   6.454   1.209
 1597WAT    HW1 7982   1.351   6.509   1.140
 1597WAT    HW2 7983   1.451   6.512   1.253
 1597WAT    LP1 7984   1.339   6.433   1.254
 1597WAT    LP2 7985   1.421   6.399   1.182
 1598WAT     OW 7986   2.947   0.866   1.065
 1598WAT    HW1 7987   2.897   0.941   1.033
 1598WAT    HW2 7988   2.928   0.863   1.159
 1598WAT    LP1 7989   2.926   0.807   1.034
 1598WAT    LP2 7990   3.016   0.875   1.054
 1599WAT     OW 7991   1.158   1.040   3.151
 1599WAT    HW1 7992   1.205   0.957   3.147
 1599WAT    HW2 7993   1.185   1.079   3.234
 1599WAT    LP1 7994   1.177   1.081   3.097
 1599WAT    LP2 7995   1.089   1.030   3.150
 1600WAT     OW 7996   3.586   5.786   3.009
 1600WAT    HW1 7997   3.560   5.694   3.001
 1600WAT    HW2 7998   3.671   5.783   3.051
 1600WAT    LP1 7999   3.590   5.816   2.945
 1600WAT    LP2 8000   3.540   5.821   3.048
 1601WAT     OW 8001   4.588   6.495   3.626
 1601WAT    HW1 8002   4.656   6.450   3.575
 1601WAT    HW2 8003   4.506   6.464   3.589
 1601WAT    LP1 8004   4.593   6.479   3.694
 1601WAT    LP2 8005   4.594   6.565   3.618
 1602WAT     OW 8006   3.922   5.435   0.453
 1602WAT    HW1 8007   3.962   5.493   0.517
 1602WAT    HW2 8008   3.849   5.394   0.500
 1602WAT    LP1 8009   3.898   5.471   0.398
 1602WAT    LP2 8010   3.968   5.386   0.432
 1603WAT     OW 8011   2.368   2.683   2.117
 1603WAT    HW1 8012   2.282   2.668   2.154
 1603WAT    HW2 8013   2.420   2.606   2.143
 1603WAT    LP1 8014   2.365   2.688   2.047
 1603WAT    LP2 8015   2.397   2.742   2.143
 1604WAT     OW 8016   6.216   4.148   3.808
 1604WAT    HW1 8017   6.239   4.086   3.876
 1604WAT    HW2 8018   6.243   4.233   3.843
 1604WAT    LP1 8019   6.250   4.134   3.748
 1604WAT    LP2 8020   6.147   4.147   3.796
 1605WAT     OW 8021   3.205   2.090   3.958
 1605WAT    HW1 8022   3.139   2.145   4.000
 1605WAT    HW2 8023   3.217   2.017   4.019
 1605WAT    LP1 8024   3.183   2.067   3.896
 1605WAT    LP2 8025   3.265   2.125   3.950
 1606WAT     OW 8026   5.816   5.515   2.831
 1606WAT    HW1 8027   5.794   5.528   2.739
 1606WAT    HW2 8028   5.838   5.602   2.863
 1606WAT    LP1 8029   5.762   5.488   2.866
 1606WAT    LP2 8030   5.871   5.472   2.837
 1607WAT     OW 8031   2.595   0.795   5.073
 1607WAT    HW1 8032   2.619   0.705   5.050
 1607WAT    HW2 8033   2.575   0.791   5.166
 1607WAT    LP1 8034   2.648   0.839   5.061
 1607WAT    LP2 8035   2.539   0.816   5.036
 1608WAT     OW 8036   5.499   3.306   5.131
 1608WAT    HW1 8037   5.488   3.364   5.206
 1608WAT    HW2 8038   5.446   3.229   5.153
 1608WAT    LP1 8039   5.475   3.336   5.073
 1608WAT    LP2 8040   5.566   3.288   5.123
 1609WAT     OW 8041   3.993   0.444   5.665
 1609WAT    HW1 8042   4.048   0.473   5.592
 1609WAT    HW2 8043   3.904   0.442   5.628
 1609WAT    LP1 8044   4.012   0.380   5.686
 1609WAT    LP2 8045   3.996   0.489   5.718
 1610WAT     OW 8046   5.600   4.900   3.602
 1610WAT    HW1 8047   5.539   4.835   3.638
 1610WAT    HW2 8048   5.571   4.983   3.638
 1610WAT    LP1 8049   5.666   4.886   3.622
 1610WAT    LP2 8050   5.597   4.901   3.532
 1611WAT     OW 8051   5.614   4.529   6.588
 1611WAT    HW1 8052   5.624   4.527   6.493
 1611WAT    HW2 8053   5.581   4.442   6.611
 1611WAT    LP1 8054   5.675   4.541   6.619
 1611WAT    LP2 8055   5.568   4.579   6.607
 1612WAT     OW 8056   1.870   6.003   4.773
 1612WAT    HW1 8057   1.857   5.981   4.681
 1612WAT    HW2 8058   1.795   5.966   4.818
 1612WAT    LP1 8059   1.930   5.975   4.797
 1612WAT    LP2 8060   1.872   6.073   4.782
 1613WAT     OW 8061   2.128   3.766   3.436
 1613WAT    HW1 8062   2.047   3.724   3.466
 1613WAT    HW2 8063   2.101   3.816   3.359
 1613WAT    LP1 8064   2.153   3.809   3.486
 1613WAT    LP2 8065   2.176   3.719   3.420
 1614WAT     OW 8066   2.244   4.449   6.627
 1614WAT    HW1 8067   2.198   4.400   6.695
 1614WAT    HW2 8068   2.173   4.483   6.571
 1614WAT    LP1 8069   2.281   4.501   6.654
 1614WAT    LP2 8070   2.286   4.407   6.590
 1615WAT     OW 8071   1.815   5.011   3.521
 1615WAT    HW1 8072   1.760   5.028   3.444
 1615WAT    HW2 8073   1.786   5.076   3.585
 1615WAT    LP1 8074   1.805   4.947   3.545
 1615WAT    LP2 8075   1.883   5.020   3.505
 1616WAT     OW 8076   6.204   0.376   2.944
 1616WAT    HW1 8077   6.274   0.362   3.007
 1616WAT    HW2 8078   6.142   0.305   2.961
 1616WAT    LP1 8079   6.174   0.439   2.954
 1616WAT    LP2 8080   6.228   0.373   2.878
 1617WAT     OW 8081   2.931   0.462   3.880
 1617WAT    HW1 8082   2.852   0.414   3.907
 1617WAT    HW2 8083   2.907   0.503   3.797
 1617WAT    LP1 8084   2.948   0.510   3.928
 1617WAT    LP2 8085   2.985   0.418   3.870
 1618WAT     OW 8086   3.481   4.100   1.568
 1618WAT    HW1 8087   3.431   4.171   1.528
 1618WAT    HW2 8088   3.487   4.034   1.499
 1618WAT    LP1 8089   3.544   4.122   1.587
 1618WAT    LP2 8090   3.447   4.074   1.624
 1619WAT     OW 8091   0.600   2.053   6.257
 1619WAT    HW1 8092   0.583   1.993   6.184
 1619WAT    HW2 8093   0.612   1.995   6.333
 1619WAT    LP1 8094   0.657   2.091   6.245
 1619WAT    LP2 8095   0.545   2.095   6.267
 1620WAT     OW 8096   5.885   6.254   2.892
 1620WAT    HW1 8097   5.934   6.218   2.966
 1620WAT    HW2 8098   5.945   6.247   2.818
 1620WAT    LP1 8099   5.826   6.218   2.880
 1620WAT    LP2 8100   5.868   6.321   2.904
 1621WAT     OW 8101   0.192   1.655   6.494
 1621WAT    HW1 8102   0.215   1.649   6.587
 1621WAT    HW2 8103   0.259   1.711   6.456
 1621WAT    LP1 8104   0.193   1.591   6.465
 1621WAT    LP2 8105   0.128   1.683   6.486
 1622WAT     OW 8106   2.359   2.215   0.807
 1622WAT    HW1 8107   2.410   2.191   0.729
 1622WAT    HW2 8108   2.399   2.164   0.878
 1622WAT    LP1 8109   2.364   2.283   0.820
 1622WAT    LP2 8110   2.292   2.197   0.799
 1623WAT     OW 8111   5.828   0.700   5.378
 1623WAT    HW1 8112   5.868   0.650   5.450
 1623WAT    HW2 8113   5.829   0.639   5.304
 1623WAT    LP1 8114   5.762   0.718   5.394
 1623WAT    LP2 8115   5.866   0.757   5.364
 1624WAT     OW 8116   4.471   3.715   0.184
 1624WAT    HW1 8117   4.411   3.772   0.136
 1624WAT    HW2 8118   4.414   3.651   0.228
 1624WAT    LP1 8119   4.515   3.683   0.140
 1624WAT    LP2 8120   4.507   3.752   0.231
 1625WAT     OW 8121   1.568   2.624   1.004
 1625WAT    HW1 8122   1.588   2.704   1.053
 1625WAT    HW2 8123   1.652   2.595   0.970
 1625WAT    LP1 8124   1.540   2.576   1.046
 1625WAT    LP2 8125   1.523   2.638   0.952
 1626WAT     OW 8126   0.103   3.262   2.135
 1626WAT    HW1 8127   0.027   3.291   2.186
 1626WAT    HW2 8128   0.162   3.225   2.200
 1626WAT    LP1 8129   0.084   3.213   2.088
 1626WAT    LP2 8130   0.132   3.316   2.102
 1627WAT     OW 8131   3.405   0.888   2.506
 1627WAT    HW1 8132   3.450   0.840   2.576
 1627WAT    HW2 8133   3.315   0.895   2.537
 1627WAT    LP1 8134   3.434   0.951   2.498
 1627WAT    LP2 8135   3.408   0.852   2.446
 1628WAT     OW 8136   4.549   6.266   4.508
 1628WAT    HW1 8137   4.641   6.279   4.488
 1628WAT    HW2 8138   4.532   6.324   4.582
 1628WAT    LP1 8139   4.509   6.284   4.453
 1628WAT    LP2 8140   4.536   6.200   4.526
 1629WAT     OW 8141   3.883   2.407   1.797
 1629WAT    HW1 8142   3.842   2.428   1.713
 1629WAT    HW2 8143   3.864   2.314   1.811
 1629WAT    LP1 8144   3.952   2.418   1.795
 1629WAT    LP2 8145   3.855   2.445   1.849
 1630WAT     OW 8146   1.746   2.792   4.048
 1630WAT    HW1 8147   1.782   2.844   4.120
 1630WAT    HW2 8148   1.793   2.823   3.971
 1630WAT    LP1 8149   1.758   2.724   4.059
 1630WAT    LP2 8150   1.677   2.803   4.042
 1631WAT     OW 8151   5.741   1.995   6.497
 1631WAT    HW1 8152   5.727   1.900   6.500
 1631WAT    HW2 8153   5.711   2.026   6.583
 1631WAT    LP1 8154   5.809   2.010   6.488
 1631WAT    LP2 8155   5.704   2.024   6.446
 1632WAT     OW 8156   2.838   4.822   4.020
 1632WAT    HW1 8157   2.775   4.750   4.029
 1632WAT    HW2 8158   2.817   4.862   3.935
 1632WAT    LP1 8159   2.829   4.868   4.072
 1632WAT    LP2 8160   2.904   4.798   4.021
 1633WAT     OW 8161   2.618   2.511   0.274
 1633WAT    HW1 8162   2.688   2.564   0.312
 1633WAT    HW2 8163   2.543   2.571   0.271
 1633WAT    LP1 8164   2.635   2.489   0.210
 1633WAT    LP2 8165   2.604   2.456   0.315
 1634WAT     OW 8166   0.530   2.318   4.238
 1634WAT    HW1 8167   0.609   2.370   4.255
 1634WAT    HW2 8168   0.472   2.376   4.190
 1634WAT    LP1 8169   0.546   2.261   4.201
 1634WAT    LP2 8170   0.501   2.298   4.299
 1635WAT     OW 8171   3.003   0.404   0.004
 1635WAT    HW1 8172   3.032   0.313  -0.009
 1635WAT    HW2 8173   2.912   0.404  -0.026
 1635WAT    LP1 8174   3.008   0.422   0.071
 1635WAT    LP2 8175   3.042   0.447  -0.035
 1636WAT     OW 8176   5.238   1.801   2.841
 1636WAT    HW1 8177   5.212   1.891   2.862
 1636WAT    HW2 8178   5.323   1.811   2.798
 1636WAT    LP1 8179   5.245   1.763   2.900
 1636WAT    LP2 8180   5.192   1.771   2.799
 1637WAT     OW 8181   2.050   3.783   2.790
 1637WAT    HW1 8182   1.987   3.734   2.843
 1637WAT    HW2 8183   2.024   3.767   2.700
 1637WAT    LP1 8184   2.046   3.852   2.805
 1637WAT    LP2 8185   2.115   3.761   2.802
 1638WAT     OW 8186   6.246   2.151   1.506
 1638WAT    HW1 8187   6.265   2.245   1.499
 1638WAT    HW2 8188   6.202   2.130   1.423
 1638WAT    LP1 8189   6.305   2.114   1.513
 1638WAT    LP2 8190   6.204   2.138   1.560
 1639WAT     OW 8191   4.867   3.319   6.631
 1639WAT    HW1 8192   4.897   3.322   6.721
 1639WAT    HW2 8193   4.775   3.344   6.635
 1639WAT    LP1 8194   4.903   3.365   6.591
 1639WAT    LP2 8195   4.874   3.255   6.604
 1640WAT     OW 8196   1.918   2.727   5.269
 1640WAT    HW1 8197   1.973   2.801   5.296
 1640WAT    HW2 8198   1.945   2.655   5.327
 1640WAT    LP1 8199   1.850   2.742   5.278
 1640WAT    LP2 8200   1.930   2.710   5.202
 1641WAT     OW 8201   2.527   3.696   1.166
 1641WAT    HW1 8202   2.486   3.638   1.101
 1641WAT    HW2 8203   2.549   3.775   1.117
 1641WAT    LP1 8204   2.483   3.710   1.218
 1641WAT    LP2 8205   2.585   3.667   1.192
 1642WAT     OW 8206   3.567   2.868   1.019
 1642WAT    HW1 8207   3.561   2.963   1.031
 1642WAT    HW2 8208   3.609   2.836   1.098
 1642WAT    LP1 8209   3.503   2.840   1.011
 1642WAT    LP2 8210   3.606   2.853   0.962
 1643WAT     OW 8211   3.561   4.755   5.377
 1643WAT    HW1 8212   3.585   4.675   5.331
 1643WAT    HW2 8213   3.511   4.725   5.453
 1643WAT    LP1 8214   3.618   4.790   5.398
 1643WAT    LP2 8215   3.522   4.797   5.336
 1644WAT     OW 8216   1.886   2.293   6.228
 1644WAT    HW1 8217   1.833   2.321   6.154
 1644WAT    HW2 8218   1.822   2.270   6.296
 1644WAT    LP1 8219   1.925   2.237   6.211
 1644WAT    LP2 8220   1.928   2.345   6.250
 1645WAT     OW 8221   4.490   5.808   6.461
 1645WAT    HW1 8222   4.473   5.882   6.519
 1645WAT    HW2 8223   4.507   5.735   6.520
 1645WAT    LP1 8224   4.435   5.796   6.420
 1645WAT    LP2 8225   4.546   5.821   6.421
 1646WAT     OW 8226   5.989   5.264   5.171
 1646WAT    HW1 8227   6.015   5.356   5.165
 1646WAT    HW2 8228   6.069   5.217   5.192
 1646WAT    LP1 8229   5.941   5.255   5.222
 1646WAT    LP2 8230   5.962   5.241   5.111
 1647WAT     OW 8231   3.149   0.381   2.260
 1647WAT    HW1 8232   3.061   0.355   2.232
 1647WAT    HW2 8233   3.141   0.474   2.283
 1647WAT    LP1 8234   3.170   0.344   2.315
 1647WAT    LP2 8235   3.195   0.373   2.208
 1648WAT     OW 8236   6.457   5.470   6.327
 1648WAT    HW1 8237   6.365   5.460   6.305
 1648WAT    HW2 8238   6.498   5.391   6.292
 1648WAT    LP1 8239   6.484   5.527   6.297
 1648WAT    LP2 8240   6.466   5.474   6.396
 1649WAT     OW 8241   1.816   1.056   1.324
 1649WAT    HW1 8242   1.893   1.105   1.352
 1649WAT    HW2 8243   1.776   1.025   1.406
 1649WAT    LP1 8244   1.771   1.097   1.289
 1649WAT    LP2 8245   1.834   1.002   1.283
 1650WAT     OW 8246   0.851   1.464   0.670
 1650WAT    HW1 8247   0.889   1.423   0.593
 1650WAT    HW2 8248   0.758   1.469   0.652
 1650WAT    LP1 8249   0.864   1.426   0.727
 1650WAT    LP2 8250   0.878   1.529   0.679
 1651WAT     OW 8251   6.287   4.340   2.485
 1651WAT    HW1 8252   6.289   4.257   2.436
 1651WAT    HW2 8253   6.240   4.318   2.566
 1651WAT    LP1 8254   6.352   4.362   2.499
 1651WAT    LP2 8255   6.253   4.389   2.449
 1652WAT     OW 8256   6.117   4.372   0.375
 1652WAT    HW1 8257   6.098   4.429   0.300
 1652WAT    HW2 8258   6.212   4.363   0.374
 1652WAT    LP1 8259   6.096   4.402   0.434
 1652WAT    LP2 8260   6.085   4.310   0.367
 1653WAT     OW 8261   1.500   4.390   3.697
 1653WAT    HW1 8262   1.425   4.388   3.757
 1653WAT    HW2 8263   1.461   4.378   3.610
 1653WAT    LP1 8264   1.533   4.452   3.700
 1653WAT    LP2 8265   1.545   4.339   3.711
 1654WAT     OW 8266   0.543   4.061   1.974
 1654WAT    HW1 8267   0.536   4.014   1.891
 1654WAT    HW2 8268   0.575   4.148   1.950
 1654WAT    LP1 8269   0.481   4.066   2.006
 1654WAT    LP2 8270   0.589   4.029   2.016
 1655WAT     OW 8271   4.472   5.069   1.800
 1655WAT    HW1 8272   4.450   5.076   1.892
 1655WAT    HW2 8273   4.398   5.107   1.754
 1655WAT    LP1 8274   4.531   5.105   1.786
 1655WAT    LP2 8275   4.481   5.002   1.781
 1656WAT     OW 8276   3.794   0.418   3.983
 1656WAT    HW1 8277   3.723   0.477   3.956
 1656WAT    HW2 8278   3.873   0.460   3.951
 1656WAT    LP1 8279   3.796   0.412   4.053
 1656WAT    LP2 8280   3.786   0.355   3.955
 1657WAT     OW 8281   1.434   1.982   3.893
 1657WAT    HW1 8282   1.391   1.979   3.807
 1657WAT    HW2 8283   1.518   2.025   3.878
 1657WAT    LP1 8284   1.395   2.019   3.939
 1657WAT    LP2 8285   1.443   1.917   3.918
 1658WAT     OW 8286   1.736   4.060   2.724
 1658WAT    HW1 8287   1.704   4.046   2.635
 1658WAT    HW2 8288   1.707   3.983   2.772
 1658WAT    LP1 8289   1.806   4.064   2.724
 1658WAT    LP2 8290   1.709   4.118   2.752
 1659WAT     OW 8291   6.676   6.276   6.231
 1659WAT    HW1 8292   6.703   6.296   6.142
 1659WAT    HW2 8293   6.642   6.359   6.265
 1659WAT    LP1 8294   6.626   6.227   6.232
 1659WAT    LP2 8295   6.731   6.255   6.270
 1660WAT     OW 8296   6.290   5.900   4.310
 1660WAT    HW1 8297   6.237   5.961   4.258
 1660WAT    HW2 8298   6.257   5.909   4.399
 1660WAT    LP1 8299   6.281   5.835   4.287
 1660WAT    LP2 8300   6.358   5.917   4.307
 1661WAT     OW 8301   1.974   2.123   5.863
 1661WAT    HW1 8302   2.046   2.151   5.920
 1661WAT    HW2 8303   2.018   2.094   5.783
 1661WAT    LP1 8304   1.939   2.070   5.892
 1661WAT    LP2 8305   1.931   2.176   5.850
 1662WAT     OW 8306   0.794   1.760   5.279
 1662WAT    HW1 8307   0.704   1.792   5.285
 1662WAT    HW2 8308   0.786   1.672   5.242
 1662WAT    LP1 8309   0.832   1.801   5.238
 1662WAT    LP2 8310   0.823   1.757   5.343
 1663WAT     OW 8311   3.560   1.776   0.179
 1663WAT    HW1 8312   3.642   1.758   0.224
 1663WAT    HW2 8313   3.528   1.689   0.153
 1663WAT    LP1 8314   3.514   1.807   0.221
 1663WAT    LP2 8315   3.571   1.816   0.122
 1664WAT     OW 8316   2.997   2.374   0.256
 1664WAT    HW1 8317   3.020   2.463   0.230
 1664WAT    HW2 8318   2.926   2.349   0.197
 1664WAT    LP1 8319   3.051   2.331   0.249
 1664WAT    LP2 8320   2.975   2.372   0.323
 1665WAT     OW 8321   4.099   0.558   4.883
 1665WAT    HW1 8322   4.194   0.546   4.879
 1665WAT    HW2 8323   4.088   0.646   4.920
 1665WAT    LP1 8324   4.071   0.554   4.819
 1665WAT    LP2 8325   4.069   0.510   4.924
 1666WAT     OW 8326   1.078   1.465   4.147
 1666WAT    HW1 8327   1.154   1.406   4.149
 1666WAT    HW2 8328   1.049   1.463   4.056
 1666WAT    LP1 8329   1.028   1.441   4.189
 1666WAT    LP2 8330   1.096   1.530   4.165
 1667WAT     OW 8331   1.625   5.422   3.114
 1667WAT    HW1 8332   1.696   5.361   3.134
 1667WAT    HW2 8333   1.585   5.442   3.199
 1667WAT    LP1 8334   1.650   5.480   3.084
 1667WAT    LP2 8335   1.579   5.391   3.071
 1668WAT     OW 8336   0.933   3.693   1.887
 1668WAT    HW1 8337   0.961   3.709   1.977
 1668WAT    HW2 8338   1.001   3.733   1.833
 1668WAT    LP1 8339   0.929   3.624   1.875
 1668WAT    LP2 8340   0.871   3.722   1.875
 1669WAT     OW 8341   0.296   2.754   1.138
 1669WAT    HW1 8342   0.241   2.790   1.068
 1669WAT    HW2 8343   0.294   2.820   1.207
 1669WAT    LP1 8344   0.271   2.693   1.160
 1669WAT    LP2 8345   0.362   2.745   1.115
 1670WAT     OW 8346   3.981   3.435   2.826
 1670WAT    HW1 8347   3.923   3.489   2.773
 1670WAT    HW2 8348   3.959   3.345   2.802
 1670WAT    LP1 8349   4.048   3.449   2.812
 1670WAT    LP2 8350   3.969   3.446   2.894
 1671WAT     OW 8351   2.941   5.841   1.161
 1671WAT    HW1 8352   2.934   5.777   1.090
 1671WAT    HW2 8353   2.854   5.842   1.201
 1671WAT    LP1 8354   2.989   5.821   1.207
 1671WAT    LP2 8355   2.957   5.904   1.136
 1672WAT     OW 8356   1.653   6.613   4.224
 1672WAT    HW1 8357   1.654   6.646   4.134
 1672WAT    HW2 8358   1.744   6.621   4.253
 1672WAT    LP1 8359   1.611   6.652   4.264
 1672WAT    LP2 8360   1.632   6.547   4.225
 1673WAT     OW 8361   3.602   1.992   5.740
 1673WAT    HW1 8362   3.597   2.053   5.814
 1673WAT    HW2 8363   3.695   1.979   5.725
 1673WAT    LP1 8364   3.571   1.931   5.757
 1673WAT    LP2 8365   3.571   2.018   5.684
 1674WAT     OW 8366   2.094   0.282   2.055
 1674WAT    HW1 8367   1.999   0.270   2.062
 1674WAT    HW2 8368   2.113   0.356   2.112
 1674WAT    LP1 8369   2.128   0.224   2.076
 1674WAT    LP2 8370   2.112   0.296   1.988
 1675WAT     OW 8371   6.558   3.953   6.098
 1675WAT    HW1 8372   6.593   3.875   6.054
 1675WAT    HW2 8373   6.470   3.928   6.124
 1675WAT    LP1 8374   6.597   3.969   6.153
 1675WAT    LP2 8375   6.557   4.007   6.053
 1676WAT     OW 8376   0.870   3.308   0.191
 1676WAT    HW1 8377   0.844   3.309   0.283
 1676WAT    HW2 8378   0.855   3.218   0.163
 1676WAT    LP1 8379   0.830   3.353   0.154
 1676WAT    LP2 8380   0.937   3.326   0.183
 1677WAT     OW 8381   2.153   0.561   4.262
 1677WAT    HW1 8382   2.168   0.468   4.242
 1677WAT    HW2 8383   2.058   0.569   4.271
 1677WAT    LP1 8384   2.185   0.579   4.321
 1677WAT    LP2 8385   2.176   0.601   4.210
 1678WAT     OW 8386   1.215   0.629   4.803
 1678WAT    HW1 8387   1.201   0.639   4.709
 1678WAT    HW2 8388   1.234   0.536   4.816
 1678WAT    LP1 8389   1.269   0.668   4.825
 1678WAT    LP2 8390   1.158   0.648   4.839
 1679WAT     OW 8391   5.561   2.935   1.962
 1679WAT    HW1 8392   5.652   2.905   1.963
 1679WAT    HW2 8393   5.527   2.909   2.048
 1679WAT    LP1 8394   5.557   3.004   1.954
 1679WAT    LP2 8395   5.525   2.903   1.911
 1680WAT     OW 8396   3.646   0.441   5.821
 1680WAT    HW1 8397   3.714   0.389   5.863
 1680WAT    HW2 8398   3.659   0.428   5.727
 1680WAT    LP1 8399   3.582   0.418   5.841
 1680WAT    LP2 8400   3.652   0.508   5.838
 1681WAT     OW 8401   0.160   3.807   6.045
 1681WAT    HW1 8402   0.068   3.780   6.042
 1681WAT    HW2 8403   0.171   3.846   6.132
 1681WAT    LP1 8404   0.202   3.752   6.037
 1681WAT    LP2 8405   0.173   3.854   5.995
 1682WAT     OW 8406   3.880   2.270   4.287
 1682WAT    HW1 8407   3.832   2.283   4.205
 1682WAT    HW2 8408   3.821   2.218   4.341
 1682WAT    LP1 8409   3.940   2.236   4.276
 1682WAT    LP2 8410   3.893   2.332   4.318
 1683WAT     OW 8411   3.217   5.964   0.559
 1683WAT    HW1 8412   3.313   5.971   0.562
 1683WAT    HW2 8413   3.187   6.031   0.621
 1683WAT    LP1 8414   3.193   5.977   0.495
 1683WAT    LP2 8415   3.196   5.901   0.579
 1684WAT     OW 8416   6.076   1.132   3.612
 1684WAT    HW1 8417   6.127   1.119   3.691
 1684WAT    HW2 8418   6.048   1.223   3.615
 1684WAT    LP1 8419   6.115   1.120   3.555
 1684WAT    LP2 8420   6.020   1.089   3.611
 1685WAT     OW 8421   0.130   6.636   5.009
 1685WAT    HW1 8422   0.187   6.697   5.055
 1685WAT    HW2 8423   0.041   6.668   5.027
 1685WAT    LP1 8424   0.143   6.636   4.941
 1685WAT    LP2 8425   0.138   6.571   5.034
 1686WAT     OW 8426   1.458   2.718   5.406
 1686WAT    HW1 8427   1.499   2.641   5.445
 1686WAT    HW2 8428   1.527   2.760   5.357
 1686WAT    LP1 8429   1.405   2.699   5.364
 1686WAT    LP2 8430   1.433   2.760   5.456
 1687WAT     OW 8431   0.924   1.034   6.057
 1687WAT    HW1 8432   0.922   1.058   5.965
 1687WAT    HW2 8433   0.918   0.939   6.058
 1687WAT    LP1 8434   0.983   1.056   6.088
 1687WAT    LP2 8435   0.869   1.062   6.091
 1688WAT     OW 8436   1.539   1.347   1.805
 1688WAT    HW1 8437   1.467   1.348   1.741
 1688WAT    HW2 8438   1.495   1.355   1.890
 1688WAT    LP1 8439   1.575   1.287   1.801
 1688WAT    LP2 8440   1.582   1.401   1.794
 1689WAT     OW 8441   3.555   6.271   4.600
 1689WAT    HW1 8442   3.596   6.212   4.537
 1689WAT    HW2 8443   3.582   6.359   4.571
 1689WAT    LP1 8444   3.486   6.265   4.599
 1689WAT    LP2 8445   3.579   6.258   4.665
 1690WAT     OW 8446   2.688   1.076   1.789
 1690WAT    HW1 8447   2.733   0.991   1.788
 1690WAT    HW2 8448   2.605   1.059   1.832
 1690WAT    LP1 8449   2.725   1.123   1.825
 1690WAT    LP2 8450   2.678   1.099   1.724
 1691WAT     OW 8451   2.057   4.132   5.880
 1691WAT    HW1 8452   2.079   4.225   5.873
 1691WAT    HW2 8453   2.082   4.108   5.970
 1691WAT    LP1 8454   1.989   4.122   5.870
 1691WAT    LP2 8455   2.094   4.094   5.834
 1692WAT     OW 8456   0.351   5.131   1.427
 1692WAT    HW1 8457   0.349   5.196   1.498
 1692WAT    HW2 8458   0.282   5.159   1.367
 1692WAT    LP1 8459   0.413   5.131   1.396
 1692WAT    LP2 8460   0.337   5.067   1.452
 1693WAT     OW 8461   3.667   1.590   5.708
 1693WAT    HW1 8462   3.734   1.572   5.774
 1693WAT    HW2 8463   3.641   1.503   5.676
 1693WAT    LP1 8464   3.612   1.622   5.738
 1693WAT    LP2 8465   3.692   1.629   5.656
 1694WAT     OW 8466   0.448   5.448   6.501
 1694WAT    HW1 8467   0.419   5.493   6.580
 1694WAT    HW2 8468   0.390   5.480   6.432
 1694WAT    LP1 8469   0.515   5.464   6.486
 1694WAT    LP2 8470   0.442   5.378   6.508
 1695WAT     OW 8471   4.661   1.158   5.335
 1695WAT    HW1 8472   4.701   1.245   5.337
 1695WAT    HW2 8473   4.734   1.098   5.349
 1695WAT    LP1 8474   4.613   1.152   5.386
 1695WAT    LP2 8475   4.631   1.147   5.273
 1696WAT     OW 8476   4.048   1.858   0.320
 1696WAT    HW1 8477   4.082   1.815   0.242
 1696WAT    HW2 8478   3.959   1.826   0.329
 1696WAT    LP1 8479   4.086   1.841   0.376
 1696WAT    LP2 8480   4.049   1.928   0.312
 1697WAT     OW 8481   3.639   0.767   0.935
 1697WAT    HW1 8482   3.649   0.862   0.931
 1697WAT    HW2 8483   3.631   0.741   0.843
 1697WAT    LP1 8484   3.694   0.737   0.964
 1697WAT    LP2 8485   3.581   0.750   0.970
 1698WAT     OW 8486   0.547   2.712   2.430
 1698WAT    HW1 8487   0.605   2.737   2.502
 1698WAT    HW2 8488   0.543   2.616   2.435
 1698WAT    LP1 8489   0.483   2.740   2.438
 1698WAT    LP2 8490   0.574   2.732   2.368
 1699WAT     OW 8491   5.050   6.319   4.212
 1699WAT    HW1 8492   4.966   6.287   4.180
 1699WAT    HW2 8493   5.112   6.296   4.142
 1699WAT    LP1 8494   5.048   6.389   4.221
 1699WAT    LP2 8495   5.068   6.288   4.272
 1700WAT     OW 8496   2.411   1.929   4.657
 1700WAT    HW1 8497   2.485   1.868   4.654
 1700WAT    HW2 8498   2.347   1.887   4.714
 1700WAT    LP1 8499   2.430   1.991   4.682
 1700WAT    LP2 8500   2.384   1.938   4.592
 1701WAT     OW 8501   0.583   1.810   4.728
 1701WAT    HW1 8502   0.502   1.778   4.768
 1701WAT    HW2 8503   0.554   1.865   4.656
 1701WAT    LP1 8504   0.621   1.846   4.774
 1701WAT    LP2 8505   0.621   1.756   4.704
 1702WAT     OW 8506   1.559   3.147   4.673
 1702WAT    HW1 8507   1.636   3.123   4.621
 1702WAT    HW2 8508   1.551   3.241   4.661
 1702WAT    LP1 8509   1.502   3.114   4.649
 1702WAT    LP2 8510   1.569   3.130   4.740
 1703WAT     OW 8511   2.155   0.776   4.707
 1703WAT    HW1 8512   2.192   0.815   4.627
 1703WAT    HW2 8513   2.220   0.796   4.775
 1703WAT    LP1 8514   2.093   0.806   4.722
 1703WAT    LP2 8515   2.147   0.707   4.700
 1704WAT     OW 8516   4.415   6.638   4.468
 1704WAT    HW1 8517   4.503   6.605   4.449
 1704WAT    HW2 8518   4.369   6.565   4.509
 1704WAT    LP1 8519   4.418   6.693   4.512
 1704WAT    LP2 8520   4.383   6.658   4.409
 1705WAT     OW 8521   6.298   3.869   6.140
 1705WAT    HW1 8522   6.276   3.820   6.062
 1705WAT    HW2 8523   6.234   3.941   6.142
 1705WAT    LP1 8524   6.291   3.829   6.197
 1705WAT    LP2 8525   6.363   3.894   6.137
 1706WAT     OW 8526   6.077   1.561   2.096
 1706WAT    HW1 8527   6.018   1.514   2.156
 1706WAT    HW2 8528   6.132   1.492   2.058
 1706WAT    LP1 8529   6.041   1.594   2.047
 1706WAT    LP2 8530   6.116   1.607   2.132
 1707WAT     OW 8531   5.434   2.084   2.016
 1707WAT    HW1 8532   5.380   2.157   1.984
 1707WAT    HW2 8533   5.384   2.005   1.994
 1707WAT    LP1 8534   5.496   2.083   1.984
 1707WAT    LP2 8535   5.443   2.089   2.085
 1708WAT     OW 8536   6.058   2.883   5.374
 1708WAT    HW1 8537   6.098   2.941   5.439
 1708WAT    HW2 8538   6.127   2.868   5.309
 1708WAT    LP1 8539   6.039   2.822   5.404
 1708WAT    LP2 8540   6.002   2.913   5.345
 1709WAT     OW 8541   6.057   3.998   1.004
 1709WAT    HW1 8542   6.109   4.033   1.077
 1709WAT    HW2 8543   6.115   3.935   0.961
 1709WAT    LP1 8544   5.999   3.966   1.028
 1709WAT    LP2 8545   6.039   4.049   0.960
 1710WAT     OW 8546   1.178   4.492   3.081
 1710WAT    HW1 8547   1.153   4.487   2.989
 1710WAT    HW2 8548   1.100   4.467   3.129
 1710WAT    LP1 8549   1.231   4.447   3.095
 1710WAT    LP2 8550   1.198   4.557   3.098
 1711WAT     OW 8551   1.079   3.795   0.207
 1711WAT    HW1 8552   1.084   3.707   0.245
 1711WAT    HW2 8553   1.051   3.781   0.117
 1711WAT    LP1 8554   1.032   3.834   0.242
 1711WAT    LP2 8555   1.141   3.826   0.210
 1712WAT     OW 8556   6.113   5.544   5.711
 1712WAT    HW1 8557   6.042   5.539   5.774
 1712WAT    HW2 8558   6.181   5.486   5.747
 1712WAT    LP1 8559   6.093   5.522   5.648
 1712WAT    LP2 8560   6.137   5.610   5.706
 1713WAT     OW 8561   2.018   1.465   2.756
 1713WAT    HW1 8562   1.937   1.493   2.799
 1713WAT    HW2 8563   2.032   1.376   2.788
 1713WAT    LP1 8564   2.010   1.466   2.686
 1713WAT    LP2 8565   2.071   1.507   2.774
 1714WAT     OW 8566   4.499   4.160   5.846
 1714WAT    HW1 8567   4.432   4.160   5.914
 1714WAT    HW2 8568   4.555   4.086   5.866
 1714WAT    LP1 8569   4.470   4.153   5.782
 1714WAT    LP2 8570   4.535   4.220   5.847
 1715WAT     OW 8571   5.138   1.660   4.155
 1715WAT    HW1 8572   5.104   1.679   4.243
 1715WAT    HW2 8573   5.233   1.661   4.166
 1715WAT    LP1 8574   5.117   1.597   4.134
 1715WAT    LP2 8575   5.118   1.709   4.110
 1716WAT     OW 8576   1.154   0.350   3.298
 1716WAT    HW1 8577   1.209   0.428   3.289
 1716WAT    HW2 8578   1.064   0.383   3.295
 1716WAT    LP1 8579   1.166   0.305   3.245
 1716WAT    LP2 8580   1.167   0.317   3.359
 1717WAT     OW 8581   5.037   2.631   0.452
 1717WAT    HW1 8582   4.967   2.571   0.424
 1717WAT    HW2 8583   5.021   2.711   0.403
 1717WAT    LP1 8584   5.034   2.642   0.521
 1717WAT    LP2 8585   5.100   2.604   0.436
 1718WAT     OW 8586   1.575   2.480   2.436
 1718WAT    HW1 8587   1.645   2.415   2.432
 1718WAT    HW2 8588   1.513   2.444   2.499
 1718WAT    LP1 8589   1.599   2.542   2.457
 1718WAT    LP2 8590   1.544   2.487   2.373
 1719WAT     OW 8591   5.837   6.102   0.551
 1719WAT    HW1 8592   5.766   6.065   0.604
 1719WAT    HW2 8593   5.901   6.031   0.543
 1719WAT    LP1 8594   5.813   6.121   0.488
 1719WAT    LP2 8595   5.865   6.157   0.583
 1720WAT     OW 8596   0.070   1.658   3.162
 1720WAT    HW1 8597   0.051   1.633   3.252
 1720WAT    HW2 8598   0.116   1.742   3.168
 1720WAT    LP1 8599   0.111   1.610   3.131
 1720WAT    LP2 8600   0.011   1.665   3.125
 1721WAT     OW 8601   4.283   1.013   0.607
 1721WAT    HW1 8602   4.343   1.082   0.637
 1721WAT    HW2 8603   4.287   0.947   0.676
 1721WAT    LP1 8604   4.218   1.038   0.601
 1721WAT    LP2 8605   4.304   0.987   0.546
 1722WAT     OW 8606   4.117   6.187   2.658
 1722WAT    HW1 8607   4.072   6.103   2.650
 1722WAT    HW2 8608   4.079   6.241   2.589
 1722WAT    LP1 8609   4.105   6.215   2.721
 1722WAT    LP2 8610   4.186   6.179   2.649
 1723WAT     OW 8611   5.939   1.641   6.624
 1723WAT    HW1 8612   6.001   1.680   6.562
 1723WAT    HW2 8613   5.975   1.663   6.710
 1723WAT    LP1 8614   5.875   1.669   6.616
 1723WAT    LP2 8615   5.936   1.572   6.615
 1724WAT     OW 8616   4.567   0.716   5.444
 1724WAT    HW1 8617   4.663   0.710   5.450
 1724WAT    HW2 8618   4.542   0.768   5.521
 1724WAT    LP1 8619   4.548   0.748   5.385
 1724WAT    LP2 8620   4.539   0.652   5.447
 1725WAT     OW 8621   5.563   2.491   6.176
 1725WAT    HW1 8622   5.562   2.550   6.100
 1725WAT    HW2 8623   5.554   2.403   6.138
 1725WAT    LP1 8624   5.623   2.497   6.211
 1725WAT    LP2 8625   5.509   2.505   6.219
 1726WAT     OW 8626   5.912   3.403   2.112
 1726WAT    HW1 8627   5.983   3.374   2.170
 1726WAT    HW2 8628   5.895   3.328   2.055
 1726WAT    LP1 8629   5.855   3.421   2.149
 1726WAT    LP2 8630   5.933   3.459   2.074
 1727WAT     OW 8631   2.955   0.096   5.794
 1727WAT    HW1 8632   3.034   0.148   5.806
 1727WAT    HW2 8633   2.985   0.005   5.802
 1727WAT    LP1 8634   2.908   0.111   5.844
 1727WAT    LP2 8635   2.926   0.107   5.731
 1728WAT     OW 8636   2.760   6.279   4.540
 1728WAT    HW1 8637   2.732   6.306   4.453
 1728WAT    HW2 8638   2.744   6.184   4.542
 1728WAT    LP1 8639   2.828   6.292   4.550
 1728WAT    LP2 8640   2.723   6.311   4.590
 1729WAT     OW 8641   0.387   5.409   5.589
 1729WAT    HW1 8642   0.297   5.440   5.573
 1729WAT    HW2 8643   0.402   5.429   5.682
 1729WAT    LP1 8644   0.392   5.341   5.577
 1729WAT    LP2 8645   0.432   5.444   5.549
 1730WAT     OW 8646   5.716   1.474   4.890
 1730WAT    HW1 8647   5.806   1.498   4.868
 1730WAT    HW2 8648   5.662   1.543   4.850
 1730WAT    LP1 8649   5.700   1.412   4.864
 1730WAT    LP2 8650   5.707   1.473   4.959
 1731WAT     OW 8651   5.559   6.296   4.533
 1731WAT    HW1 8652   5.655   6.300   4.534
 1731WAT    HW2 8653   5.535   6.303   4.625
 1731WAT    LP1 8654   5.533   6.349   4.496
 1731WAT    LP2 8655   5.537   6.236   4.506
 1732WAT     OW 8656   4.992   4.495   4.026
 1732WAT    HW1 8657   5.027   4.499   4.115
 1732WAT    HW2 8658   4.920   4.432   4.031
 1732WAT    LP1 8659   4.968   4.558   4.006
 1732WAT    LP2 8660   5.041   4.473   3.981
 1733WAT     OW 8661   2.767   4.882   2.769
 1733WAT    HW1 8662   2.816   4.955   2.808
 1733WAT    HW2 8663   2.830   4.810   2.766
 1733WAT    LP1 8664   2.712   4.865   2.809
 1733WAT    LP2 8665   2.745   4.898   2.705
 1734WAT     OW 8666   2.566   6.456   2.853
 1734WAT    HW1 8667   2.489   6.511   2.844
 1734WAT    HW2 8668   2.620   6.499   2.919
 1734WAT    LP1 8669   2.549   6.391   2.873
 1734WAT    LP2 8670   2.601   6.452   2.792
 1735WAT     OW 8671   2.788   3.741   5.988
 1735WAT    HW1 8672   2.694   3.729   5.997
 1735WAT    HW2 8673   2.799   3.834   5.967
 1735WAT    LP1 8674   2.820   3.726   6.049
 1735WAT    LP2 8675   2.814   3.700   5.937
 1736WAT     OW 8676   3.890   3.541   6.488
 1736WAT    HW1 8677   3.960   3.494   6.532
 1736WAT    HW2 8678   3.821   3.550   6.554
 1736WAT    LP1 8679   3.912   3.604   6.467
 1736WAT    LP2 8680   3.866   3.505   6.433
 1737WAT     OW 8681   1.399   2.376   5.668
 1737WAT    HW1 8682   1.339   2.447   5.689
 1737WAT    HW2 8683   1.466   2.417   5.613
 1737WAT    LP1 8684   1.428   2.349   5.726
 1737WAT    LP2 8685   1.366   2.325   5.633
 1738WAT     OW 8686   3.914   2.669   5.263
 1738WAT    HW1 8687   3.865   2.743   5.229
 1738WAT    HW2 8688   3.949   2.625   5.186
 1738WAT    LP1 8689   3.967   2.691   5.304
 1738WAT    LP2 8690   3.873   2.626   5.300
 1739WAT     OW 8691   5.246   4.863   6.535
 1739WAT    HW1 8692   5.289   4.785   6.498
 1739WAT    HW2 8693   5.305   4.935   6.514
 1739WAT    LP1 8694   5.183   4.873   6.505
 1739WAT    LP2 8695   5.238   4.856   6.604
 1740WAT     OW 8696   4.987   3.056   1.436
 1740WAT    HW1 8697   5.053   3.016   1.493
 1740WAT    HW2 8698   4.906   3.012   1.459
 1740WAT    LP1 8699   4.983   3.125   1.448
 1740WAT    LP2 8700   5.003   3.046   1.369
 1741WAT     OW 8701   1.504   4.367   2.653
 1741WAT    HW1 8702   1.580   4.359   2.710
 1741WAT    HW2 8703   1.454   4.286   2.668
 1741WAT    LP1 8704   1.466   4.423   2.670
 1741WAT    LP2 8705   1.523   4.371   2.586
 1742WAT     OW 8706   6.146   0.450   4.444
 1742WAT    HW1 8707   6.071   0.470   4.500
 1742WAT    HW2 8708   6.118   0.376   4.391
 1742WAT    LP1 8709   6.162   0.505   4.403
 1742WAT    LP2 8710   6.202   0.433   4.482
 1743WAT     OW 8711   6.005   3.439   5.130
 1743WAT    HW1 8712   5.975   3.458   5.219
 1743WAT    HW2 8713   6.043   3.521   5.100
 1743WAT    LP1 8714   6.053   3.388   5.131
 1743WAT    LP2 8715   5.951   3.420   5.090
 1744WAT     OW 8716   2.140   2.748   1.024
 1744WAT    HW1 8717   2.152   2.733   1.118
 1744WAT    HW2 8718   2.200   2.820   1.003
 1744WAT    LP1 8719   2.156   2.691   0.987
 1744WAT    LP2 8720   2.074   2.766   1.010
 1745WAT     OW 8721   4.171   1.252   5.479
 1745WAT    HW1 8722   4.220   1.308   5.539
 1745WAT    HW2 8723   4.080   1.283   5.486
 1745WAT    LP1 8724   4.194   1.260   5.413
 1745WAT    LP2 8725   4.176   1.185   5.498
 1746WAT     OW 8726   4.143   3.857   2.507
 1746WAT    HW1 8727   4.144   3.765   2.481
 1746WAT    HW2 8728   4.233   3.886   2.494
 1746WAT    LP1 8729   4.099   3.894   2.466
 1746WAT    LP2 8730   4.124   3.864   2.574
 1747WAT     OW 8731   3.192   3.957   1.365
 1747WAT    HW1 8732   3.179   3.964   1.460
 1747WAT    HW2 8733   3.287   3.961   1.353
 1747WAT    LP1 8734   3.167   3.896   1.341
 1747WAT    LP2 8735   3.161   4.010   1.332
 1748WAT     OW 8736   2.844   3.361   4.438
 1748WAT    HW1 8737   2.793   3.305   4.379
 1748WAT    HW2 8738   2.907   3.303   4.480
 1748WAT    LP1 8739   2.877   3.411   4.401
 1748WAT    LP2 8740   2.802   3.391   4.485
 1749WAT     OW 8741   4.019   3.763   2.106
 1749WAT    HW1 8742   4.055   3.851   2.100
 1749WAT    HW2 8743   3.934   3.774   2.148
 1749WAT    LP1 8744   4.011   3.735   2.042
 1749WAT    LP2 8745   4.060   3.721   2.144
 1750WAT     OW 8746   0.992   5.644   1.501
 1750WAT    HW1 8747   0.976   5.737   1.490
 1750WAT    HW2 8748   0.969   5.605   1.417
 1750WAT    LP1 8749   1.060   5.632   1.516
 1750WAT    LP2 8750   0.952   5.617   1.552
 1751WAT     OW 8751   5.456   0.547   4.828
 1751WAT    HW1 8752   5.473   0.515   4.739
 1751WAT    HW2 8753   5.426   0.470   4.876
 1751WAT    LP1 8754   5.514   0.573   4.856
 1751WAT    LP2 8755   5.406   0.596   4.827
 1752WAT     OW 8756   3.966   3.443   3.100
 1752WAT    HW1 8757   3.980   3.533   3.129
 1752WAT    HW2 8758   3.974   3.448   3.005
 1752WAT    LP1 8759   4.015   3.401   3.127
 1752WAT    LP2 8760   3.902   3.420   3.118
 1753WAT     OW 8761   5.056   5.199   5.231
 1753WAT    HW1 8762   5.149   5.222   5.229
 1753WAT    HW2 8763   5.039   5.176   5.322
 1753WAT    LP1 8764   5.017   5.254   5.212
 1753WAT    LP2 8765   5.042   5.145   5.189
 1754WAT     OW 8766   0.615   1.725   2.960
 1754WAT    HW1 8767   0.602   1.636   2.994
 1754WAT    HW2 8768   0.682   1.715   2.892
 1754WAT    LP1 8769   0.556   1.750   2.933
 1754WAT    LP2 8770   0.638   1.767   3.011
 1755WAT     OW 8771   2.981   6.468   2.863
 1755WAT    HW1 8772   3.044   6.406   2.900
 1755WAT    HW2 8773   2.909   6.470   2.926
 1755WAT    LP1 8774   3.011   6.532   2.857
 1755WAT    LP2 8775   2.959   6.447   2.800
 1756WAT     OW 8776   5.591   5.079   3.932
 1756WAT    HW1 8777   5.556   5.101   3.845
 1756WAT    HW2 8778   5.629   5.161   3.964
 1756WAT    LP1 8779   5.540   5.057   3.974
 1756WAT    LP2 8780   5.640   5.029   3.926
 1757WAT     OW 8781   3.873   0.581   6.291
 1757WAT    HW1 8782   3.883   0.660   6.344
 1757WAT    HW2 8783   3.784   0.585   6.257
 1757WAT    LP1 8784   3.920   0.580   6.239
 1757WAT    LP2 8785   3.882   0.524   6.330
 1758WAT     OW 8786   6.781   0.943   5.209
 1758WAT    HW1 8787   6.865   0.939   5.255
 1758WAT    HW2 8788   6.716   0.923   5.276
 1758WAT    LP1 8789   6.771   1.007   5.182
 1758WAT    LP2 8790   6.779   0.896   5.157
 1759WAT     OW 8791   1.255   2.501   5.993
 1759WAT    HW1 8792   1.249   2.541   5.907
 1759WAT    HW2 8793   1.246   2.407   5.977
 1759WAT    LP1 8794   1.317   2.516   6.023
 1759WAT    LP2 8795   1.203   2.524   6.035
 1760WAT     OW 8796   3.995   3.573   0.955
 1760WAT    HW1 8797   4.081   3.607   0.931
 1760WAT    HW2 8798   3.963   3.633   1.022
 1760WAT    LP1 8799   3.953   3.572   0.900
 1760WAT    LP2 8800   4.001   3.508   0.981
 1761WAT     OW 8801   3.809   4.509   6.622
 1761WAT    HW1 8802   3.787   4.444   6.556
 1761WAT    HW2 8803   3.849   4.581   6.573
 1761WAT    LP1 8804   3.752   4.531   6.656
 1761WAT    LP2 8805   3.855   4.482   6.668
 1762WAT     OW 8806   1.023   6.095   4.476
 1762WAT    HW1 8807   1.000   6.011   4.437
 1762WAT    HW2 8808   1.087   6.132   4.416
 1762WAT    LP1 8809   0.967   6.136   4.481
 1762WAT    LP2 8810   1.052   6.086   4.540
 1763WAT     OW 8811   6.103   5.361   2.523
 1763WAT    HW1 8812   6.030   5.355   2.461
 1763WAT    HW2 8813   6.096   5.281   2.575
 1763WAT    LP1 8814   6.164   5.363   2.488
 1763WAT    LP2 8815   6.097   5.417   2.563
 1764WAT     OW 8816   3.292   0.831   6.025
 1764WAT    HW1 8817   3.197   0.847   6.026
 1764WAT    HW2 8818   3.310   0.791   6.111
 1764WAT    LP1 8819   3.309   0.787   5.973
 1764WAT    LP2 8820   3.327   0.891   6.018
 1765WAT     OW 8821   0.182   3.483   1.993
 1765WAT    HW1 8822   0.149   3.403   2.033
 1765WAT    HW2 8823   0.193   3.462   1.901
 1765WAT    LP1 8824   0.135   3.535   2.001
 1765WAT    LP2 8825   0.243   3.502   2.022
 1766WAT     OW 8826   0.854   5.461   4.287
 1766WAT    HW1 8827   0.947   5.451   4.267
 1766WAT    HW2 8828   0.823   5.371   4.300
 1766WAT    LP1 8829   0.845   5.499   4.345
 1766WAT    LP2 8830   0.820   5.491   4.234
 1767WAT     OW 8831   3.069   3.816   4.444
 1767WAT    HW1 8832   3.121   3.854   4.373
 1767WAT    HW2 8833   3.056   3.725   4.417
 1767WAT    LP1 8834   3.104   3.819   4.504
 1767WAT    LP2 8835   3.008   3.849   4.450
 1768WAT     OW 8836   5.801   0.696   3.330
 1768WAT    HW1 8837   5.782   0.781   3.369
 1768WAT    HW2 8838   5.783   0.707   3.237
 1768WAT    LP1 8839   5.868   0.678   3.341
 1768WAT    LP2 8840   5.759   0.647   3.358
 1769WAT     OW 8841   2.630   2.261   0.386
 1769WAT    HW1 8842   2.625   2.210   0.305
 1769WAT    HW2 8843   2.612   2.351   0.359
 1769WAT    LP1 8844   2.582   2.239   0.432
 1769WAT    LP2 8845   2.694   2.256   0.414
 1770WAT     OW 8846   6.664   4.772   5.231
 1770WAT    HW1 8847   6.602   4.770   5.304
 1770WAT    HW2 8848   6.736   4.716   5.259
 1770WAT    LP1 8849   6.634   4.747   5.173
 1770WAT    LP2 8850   6.687   4.837   5.219
 1771WAT     OW 8851   6.266   2.746   0.957
 1771WAT    HW1 8852   6.206   2.672   0.959
 1771WAT    HW2 8853   6.252   2.792   1.039
 1771WAT    LP1 8854   6.333   2.723   0.952
 1771WAT    LP2 8855   6.252   2.787   0.902
 1772WAT     OW 8856   4.793   0.002   2.661
 1772WAT    HW1 8857   4.779   0.096   2.655
 1772WAT    HW2 8858   4.874  -0.006   2.712
 1772WAT    LP1 8859   4.740  -0.030   2.694
 1772WAT    LP2 8860   4.801  -0.026   2.597
 1773WAT     OW 8861   6.712   4.261   0.010
 1773WAT    HW1 8862   6.738   4.337   0.062
 1773WAT    HW2 8863   6.775   4.193   0.035
 1773WAT    LP1 8864   6.647   4.241   0.025
 1773WAT    LP2 8865   6.717   4.274  -0.058
 1774WAT     OW 8866   6.087   4.089   6.552
 1774WAT    HW1 8867   6.085   4.003   6.511
 1774WAT    HW2 8868   6.109   4.072   6.643
 1774WAT    LP1 8869   6.135   4.130   6.522
 1774WAT    LP2 8870   6.024   4.120   6.547
 1775WAT     OW 8871   5.639   0.970   5.863
 1775WAT    HW1 8872   5.631   0.883   5.903
 1775WAT    HW2 8873   5.552   0.989   5.829
 1775WAT    LP1 8874   5.658   1.017   5.911
 1775WAT    LP2 8875   5.686   0.969   5.811
 1776WAT     OW 8876   0.928   3.944   5.958
 1776WAT    HW1 8877   0.994   3.984   5.902
 1776WAT    HW2 8878   0.857   3.920   5.898
 1776WAT    LP1 8879   0.953   3.887   5.990
 1776WAT    LP2 8880   0.905   3.989   6.006
 1777WAT     OW 8881   5.618   4.341   1.587
 1777WAT    HW1 8882   5.636   4.258   1.543
 1777WAT    HW2 8883   5.695   4.395   1.569
 1777WAT    LP1 8884   5.560   4.371   1.561
 1777WAT    LP2 8885   5.610   4.332   1.656
 1778WAT     OW 8886   2.401   2.482   5.185
 1778WAT    HW1 8887   2.379   2.564   5.141
 1778WAT    HW2 8888   2.487   2.458   5.148
 1778WAT    LP1 8889   2.406   2.491   5.254
 1778WAT    LP2 8890   2.354   2.432   5.171
 1779WAT     OW 8891   1.388   0.533   0.892
 1779WAT    HW1 8892   1.411   0.619   0.858
 1779WAT    HW2 8893   1.465   0.503   0.939
 1779WAT    LP1 8894   1.332   0.537   0.935
 1779WAT    LP2 8895   1.373   0.489   0.839
 1780WAT     OW 8896   4.903   4.314   1.660
 1780WAT    HW1 8897   4.816   4.336   1.627
 1780WAT    HW2 8898   4.961   4.378   1.617
 1780WAT    LP1 8899   4.906   4.321   1.729
 1780WAT    LP2 8900   4.921   4.249   1.642
 1781WAT     OW 8901   3.205   1.363   5.280
 1781WAT    HW1 8902   3.212   1.456   5.301
 1781WAT    HW2 8903   3.116   1.340   5.308
 1781WAT    LP1 8904   3.213   1.353   5.211
 1781WAT    LP2 8905   3.252   1.326   5.315
 1782WAT     OW 8906   4.864   5.587   5.511
 1782WAT    HW1 8907   4.932   5.644   5.474
 1782WAT    HW2 8908   4.913   5.515   5.551
 1782WAT    LP1 8909   4.827   5.621   5.559
 1782WAT    LP2 8910   4.822   5.563   5.461
 1783WAT     OW 8911   4.170   1.320   6.508
 1783WAT    HW1 8912   4.172   1.357   6.596
 1783WAT    HW2 8913   4.184   1.395   6.450
 1783WAT    LP1 8914   4.221   1.273   6.499
 1783WAT    LP2 8915   4.108   1.290   6.495
 1784WAT     OW 8916   0.893   0.746   3.136
 1784WAT    HW1 8917   0.816   0.690   3.130
 1784WAT    HW2 8918   0.956   0.707   3.075
 1784WAT    LP1 8919   0.878   0.812   3.117
 1784WAT    LP2 8920   0.919   0.746   3.201
 1785WAT     OW 8921   3.527   5.670   4.397
 1785WAT    HW1 8922   3.459   5.625   4.447
 1785WAT    HW2 8923   3.499   5.662   4.306
 1785WAT    LP1 8924   3.530   5.738   4.416
 1785WAT    LP2 8925   3.589   5.640   4.407
 1786WAT     OW 8926   4.508   4.687   3.662
 1786WAT    HW1 8927   4.585   4.663   3.715
 1786WAT    HW2 8928   4.441   4.709   3.727
 1786WAT    LP1 8929   4.522   4.742   3.621
 1786WAT    LP2 8930   4.488   4.633   3.623
 1787WAT     OW 8931   6.032   5.300   4.353
 1787WAT    HW1 8932   6.053   5.260   4.437
 1787WAT    HW2 8933   5.949   5.260   4.327
 1787WAT    LP1 8934   6.024   5.369   4.360
 1787WAT    LP2 8935   6.082   5.286   4.306
 1788WAT     OW 8936   5.830   3.853   0.677
 1788WAT    HW1 8937   5.853   3.939   0.641
 1788WAT    HW2 8938   5.813   3.870   0.769
 1788WAT    LP1 8939   5.773   3.828   0.645
 1788WAT    LP2 8940   5.883   3.808   0.669
 1789WAT     OW 8941   0.450   5.355   6.135
 1789WAT    HW1 8942   0.396   5.392   6.205
 1789WAT    HW2 8943   0.513   5.424   6.115
 1789WAT    LP1 8944   0.483   5.297   6.158
 1789WAT    LP2 8945   0.411   5.339   6.079
 1790WAT     OW 8946   1.817   2.072   5.571
 1790WAT    HW1 8947   1.818   1.990   5.620
 1790WAT    HW2 8948   1.724   2.097   5.567
 1790WAT    LP1 8949   1.854   2.121   5.604
 1790WAT    LP2 8950   1.843   2.063   5.507
 1791WAT     OW 8951   2.934   1.497   3.868
 1791WAT    HW1 8952   2.993   1.508   3.793
 1791WAT    HW2 8953   2.854   1.543   3.842
 1791WAT    LP1 8954   2.921   1.429   3.879
 1791WAT    LP2 8955   2.962   1.525   3.926
 1792WAT     OW 8956   6.004   0.406   2.540
 1792WAT    HW1 8957   5.944   0.463   2.491
 1792WAT    HW2 8958   5.947   0.349   2.591
 1792WAT    LP1 8959   6.044   0.369   2.496
 1792WAT    LP2 8960   6.045   0.444   2.582
 1793WAT     OW 8961   2.828   0.410   4.380
 1793WAT    HW1 8962   2.848   0.400   4.473
 1793WAT    HW2 8963   2.888   0.350   4.336
 1793WAT    LP1 8964   2.761   0.392   4.367
 1793WAT    LP2 8965   2.839   0.476   4.359
 1794WAT     OW 8966   3.119   3.427   2.013
 1794WAT    HW1 8967   3.040   3.373   2.021
 1794WAT    HW2 8968   3.162   3.419   2.099
 1794WAT    LP1 8969   3.161   3.402   1.962
 1794WAT    LP2 8970   3.102   3.493   1.999
 1795WAT     OW 8971   0.461   0.273   5.274
 1795WAT    HW1 8972   0.495   0.273   5.363
 1795WAT    HW2 8973   0.539   0.283   5.219
 1795WAT    LP1 8974   0.428   0.213   5.260
 1795WAT    LP2 8975   0.417   0.327   5.264
 1796WAT     OW 8976   5.672   5.548   1.216
 1796WAT    HW1 8977   5.579   5.570   1.213
 1796WAT    HW2 8978   5.706   5.596   1.291
 1796WAT    LP1 8979   5.681   5.479   1.224
 1796WAT    LP2 8980   5.704   5.568   1.157
 1797WAT     OW 8981   2.991   4.461   0.085
 1797WAT    HW1 8982   2.980   4.537   0.142
 1797WAT    HW2 8983   2.946   4.486   0.004
 1797WAT    LP1 8984   3.058   4.448   0.073
 1797WAT    LP2 8985   2.961   4.405   0.114
 1798WAT     OW 8986   6.291   3.917   2.560
 1798WAT    HW1 8987   6.206   3.903   2.602
 1798WAT    HW2 8988   6.351   3.928   2.634
 1798WAT    LP1 8989   6.309   3.862   2.522
 1798WAT    LP2 8990   6.289   3.974   2.520
 1799WAT     OW 8991   2.473   2.531   1.184
 1799WAT    HW1 8992   2.450   2.509   1.093
 1799WAT    HW2 8993   2.475   2.627   1.186
 1799WAT    LP1 8994   2.424   2.507   1.228
 1799WAT    LP2 8995   2.535   2.504   1.201
 1800WAT     OW 8996   6.443   1.458   2.157
 1800WAT    HW1 8997   6.442   1.416   2.243
 1800WAT    HW2 8998   6.364   1.424   2.113
 1800WAT    LP1 8999   6.440   1.527   2.163
 1800WAT    LP2 9000   6.500   1.439   2.121
 1801WAT     OW 9001   1.226   3.652   2.767
 1801WAT    HW1 9002   1.255   3.579   2.713
 1801WAT    HW2 9003   1.286   3.723   2.746
 1801WAT    LP1 9004   1.160   3.670   2.751
 1801WAT    LP2 9005   1.230   3.636   2.835
 1802WAT     OW 9006   0.628   0.792   3.463
 1802WAT    HW1 9007   0.627   0.849   3.387
 1802WAT    HW2 9008   0.540   0.755   3.467
 1802WAT    LP1 9009   0.676   0.741   3.455
 1802WAT    LP2 9010   0.643   0.828   3.521
 1803WAT     OW 9011   0.235   1.772   5.762
 1803WAT    HW1 9012   0.316   1.733   5.727
 1803WAT    HW2 9013   0.196   1.816   5.687
 1803WAT    LP1 9014   0.193   1.722   5.786
 1803WAT    LP2 9015   0.250   1.818   5.813
 1804WAT     OW 9016   6.229   5.260   0.957
 1804WAT    HW1 9017   6.307   5.313   0.937
 1804WAT    HW2 9018   6.194   5.237   0.871
 1804WAT    LP1 9019   6.247   5.203   0.993
 1804WAT    LP2 9020   6.183   5.297   0.994
 1805WAT     OW 9021   5.610   2.062   3.573
 1805WAT    HW1 9022   5.697   2.096   3.553
 1805WAT    HW2 9023   5.615   2.032   3.663
 1805WAT    LP1 9024   5.562   2.113   3.566
 1805WAT    LP2 9025   5.594   2.009   3.530
 1806WAT     OW 9026   0.480   2.951   6.022
 1806WAT    HW1 9027   0.541   2.986   5.957
 1806WAT    HW2 9028   0.483   3.014   6.095
 1806WAT    LP1 9029   0.415   2.947   5.996
 1806WAT    LP2 9030   0.500   2.888   6.044
 1807WAT     OW 9031   6.217   5.043   4.964
 1807WAT    HW1 9032   6.181   5.119   4.919
 1807WAT    HW2 9033   6.215   4.973   4.898
 1807WAT    LP1 9034   6.283   5.055   4.985
 1807WAT    LP2 9035   6.178   5.026   5.019
 1808WAT     OW 9036   2.741   5.235   6.552
 1808WAT    HW1 9037   2.745   5.328   6.528
 1808WAT    HW2 9038   2.735   5.188   6.469
 1808WAT    LP1 9039   2.800   5.217   6.587
 1808WAT    LP2 9040   2.685   5.222   6.592
 1809WAT     OW 9041   1.462   0.787   5.977
 1809WAT    HW1 9042   1.381   0.792   6.029
 1809WAT    HW2 9043   1.443   0.723   5.909
 1809WAT    LP1 9044   1.477   0.850   5.949
 1809WAT    LP2 9045   1.515   0.766   6.017
 1810WAT     OW 9046   3.389   2.632   4.312
 1810WAT    HW1 9047   3.324   2.569   4.345
 1810WAT    HW2 9048   3.441   2.582   4.250
 1810WAT    LP1 9049   3.357   2.686   4.281
 1810WAT    LP2 9050   3.429   2.656   4.365
 1811WAT     OW 9051   4.106   2.129   4.238
 1811WAT    HW1 9052   4.178   2.192   4.244
 1811WAT    HW2 9053   4.027   2.180   4.258
 1811WAT    LP1 9054   4.102   2.102   4.174
 1811WAT    LP2 9055   4.114   2.077   4.285
 1812WAT     OW 9056   1.331   1.978   3.641
 1812WAT    HW1 9057   1.314   1.889   3.610
 1812WAT    HW2 9058   1.384   2.018   3.573
 1812WAT    LP1 9059   1.271   2.013   3.649
 1812WAT    LP2 9060   1.365   1.977   3.702
 1813WAT     OW 9061   2.375   5.874   6.532
 1813WAT    HW1 9062   2.349   5.923   6.454
 1813WAT    HW2 9063   2.295   5.869   6.585
 1813WAT    LP1 9064   2.397   5.810   6.515
 1813WAT    LP2 9065   2.425   5.908   6.567
 1814WAT     OW 9066   4.352   4.515   3.516
 1814WAT    HW1 9067   4.395   4.432   3.536
 1814WAT    HW2 9068   4.409   4.582   3.555
 1814WAT    LP1 9069   4.347   4.525   3.447
 1814WAT    LP2 9070   4.288   4.517   3.544
 1815WAT     OW 9071   2.008   1.517   3.764
 1815WAT    HW1 9072   2.096   1.507   3.729
 1815WAT    HW2 9073   1.971   1.429   3.761
 1815WAT    LP1 9074   2.010   1.540   3.830
 1815WAT    LP2 9075   1.971   1.561   3.725
 1816WAT     OW 9076   1.825   4.903   0.381
 1816WAT    HW1 9077   1.827   4.933   0.291
 1816WAT    HW2 9078   1.872   4.970   0.431
 1816WAT    LP1 9079   1.759   4.897   0.404
 1816WAT    LP2 9080   1.856   4.840   0.388
 1817WAT     OW 9081   1.300   4.814   5.566
 1817WAT    HW1 9082   1.300   4.877   5.495
 1817WAT    HW2 9083   1.364   4.847   5.628
 1817WAT    LP1 9084   1.236   4.810   5.596
 1817WAT    LP2 9085   1.318   4.750   5.542
 1818WAT     OW 9086   3.185   0.213   4.557
 1818WAT    HW1 9087   3.166   0.296   4.601
 1818WAT    HW2 9088   3.204   0.151   4.627
 1818WAT    LP1 9089   3.130   0.192   4.519
 1818WAT    LP2 9090   3.240   0.220   4.514
 1819WAT     OW 9091   0.663   2.875   4.648
 1819WAT    HW1 9092   0.642   2.813   4.579
 1819WAT    HW2 9093   0.583   2.925   4.661
 1819WAT    LP1 9094   0.681   2.842   4.707
 1819WAT    LP2 9095   0.716   2.917   4.629
 1820WAT     OW 9096   4.315   4.123   1.825
 1820WAT    HW1 9097   4.225   4.155   1.827
 1820WAT    HW2 9098   4.348   4.135   1.914
 1820WAT    LP1 9099   4.317   4.055   1.807
 1820WAT    LP2 9100   4.353   4.160   1.779
 1821WAT     OW 9101   6.026   5.000   0.287
 1821WAT    HW1 9102   5.958   4.981   0.351
 1821WAT    HW2 9103   6.072   4.917   0.276
 1821WAT    LP1 9104   5.998   5.022   0.227
 1821WAT    LP2 9105   6.070   5.050   0.311
 1822WAT     OW 9106   6.771   3.829   4.467
 1822WAT    HW1 9107   6.798   3.737   4.462
 1822WAT    HW2 9108   6.850   3.878   4.442
 1822WAT    LP1 9109   6.719   3.842   4.422
 1822WAT    LP2 9110   6.751   3.845   4.531
 1823WAT     OW 9111   2.490   0.425   4.790
 1823WAT    HW1 9112   2.487   0.510   4.746
 1823WAT    HW2 9113   2.404   0.386   4.774
 1823WAT    LP1 9114   2.540   0.385   4.763
 1823WAT    LP2 9115   2.501   0.433   4.858
 1824WAT     OW 9116   4.258   0.728   1.257
 1824WAT    HW1 9117   4.279   0.641   1.220
 1824WAT    HW2 9118   4.166   0.723   1.280
 1824WAT    LP1 9119   4.297   0.740   1.314
 1824WAT    LP2 9120   4.270   0.778   1.209
 1825WAT     OW 9121   1.522   1.767   0.862
 1825WAT    HW1 9122   1.581   1.707   0.909
 1825WAT    HW2 9123   1.454   1.788   0.925
 1825WAT    LP1 9124   1.557   1.824   0.842
 1825WAT    LP2 9125   1.495   1.735   0.806
 1826WAT     OW 9126   3.740   5.895   5.107
 1826WAT    HW1 9127   3.665   5.915   5.051
 1826WAT    HW2 9128   3.740   5.966   5.172
 1826WAT    LP1 9129   3.732   5.833   5.138
 1826WAT    LP2 9130   3.800   5.896   5.071
 1827WAT     OW 9131   2.533   3.633   6.290
 1827WAT    HW1 9132   2.560   3.724   6.305
 1827WAT    HW2 9133   2.608   3.581   6.318
 1827WAT    LP1 9134   2.476   3.618   6.328
 1827WAT    LP2 9135   2.519   3.622   6.222
 1828WAT     OW 9136   2.996   2.546   3.248
 1828WAT    HW1 9137   3.065   2.544   3.314
 1828WAT    HW2 9138   2.986   2.638   3.225
 1828WAT    LP1 9139   3.014   2.508   3.192
 1828WAT    LP2 9140   2.936   2.520   3.274
 1829WAT     OW 9141   5.720   0.002   6.403
 1829WAT    HW1 9142   5.737   0.087   6.362
 1829WAT    HW2 9143   5.695   0.024   6.493
 1829WAT    LP1 9144   5.668  -0.031   6.370
 1829WAT    LP2 9145   5.778  -0.037   6.402
 1830WAT     OW 9146   3.436   0.103   0.854
 1830WAT    HW1 9147   3.472   0.029   0.804
 1830WAT    HW2 9148   3.490   0.178   0.829
 1830WAT    LP1 9149   3.369   0.115   0.837
 1830WAT    LP2 9150   3.440   0.091   0.923
 1831WAT     OW 9151   1.518   1.429   5.177
 1831WAT    HW1 9152   1.487   1.339   5.178
 1831WAT    HW2 9153   1.590   1.430   5.114
 1831WAT    LP1 9154   1.467   1.473   5.156
 1831WAT    LP2 9155   1.540   1.449   5.240
 1832WAT     OW 9156   4.187   3.857   1.146
 1832WAT    HW1 9157   4.184   3.951   1.134
 1832WAT    HW2 9158   4.246   3.844   1.221
 1832WAT    LP1 9159   4.124   3.831   1.160
 1832WAT    LP2 9160   4.213   3.826   1.089
 1833WAT     OW 9161   2.482   0.677   4.670
 1833WAT    HW1 9162   2.439   0.657   4.587
 1833WAT    HW2 9163   2.575   0.664   4.652
 1833WAT    LP1 9164   2.470   0.744   4.688
 1833WAT    LP2 9165   2.460   0.635   4.721
 1834WAT     OW 9166   0.474   5.910   2.540
 1834WAT    HW1 9167   0.549   5.956   2.578
 1834WAT    HW2 9168   0.508   5.871   2.460
 1834WAT    LP1 9169   0.451   5.861   2.584
 1834WAT    LP2 9170   0.422   5.955   2.526
 1835WAT     OW 9171   0.036   5.311   4.841
 1835WAT    HW1 9172  -0.055   5.328   4.866
 1835WAT    HW2 9173   0.060   5.385   4.785
 1835WAT    LP1 9174   0.077   5.309   4.898
 1835WAT    LP2 9175   0.042   5.251   4.806
 1836WAT     OW 9176   4.666   5.459   5.368
 1836WAT    HW1 9177   4.725   5.513   5.420
 1836WAT    HW2 9178   4.718   5.430   5.294
 1836WAT    LP1 9179   4.643   5.404   5.406
 1836WAT    LP2 9180   4.611   5.497   5.347
 1837WAT     OW 9181   0.756   4.397   6.645
 1837WAT    HW1 9182   0.779   4.308   6.619
 1837WAT    HW2 9183   0.824   4.452   6.606
 1837WAT    LP1 9184   0.693   4.415   6.621
 1837WAT    LP2 9185   0.757   4.404   6.715
 1838WAT     OW 9186   5.148   0.829   1.782
 1838WAT    HW1 9187   5.118   0.873   1.861
 1838WAT    HW2 9188   5.213   0.888   1.744
 1838WAT    LP1 9189   5.177   0.767   1.797
 1838WAT    LP2 9190   5.095   0.819   1.737
 1839WAT     OW 9191   3.458   6.610   5.994
 1839WAT    HW1 9192   3.419   6.696   6.007
 1839WAT    HW2 9193   3.420   6.556   6.063
 1839WAT    LP1 9194   3.442   6.585   5.931
 1839WAT    LP2 9195   3.528   6.614   6.001
 1840WAT     OW 9196   1.223   2.637   5.298
 1840WAT    HW1 9197   1.307   2.670   5.329
 1840WAT    HW2 9198   1.218   2.664   5.207
 1840WAT    LP1 9199   1.220   2.568   5.304
 1840WAT    LP2 9200   1.170   2.665   5.335
 1841WAT     OW 9201   4.413   4.017   6.519
 1841WAT    HW1 9202   4.505   4.014   6.545
 1841WAT    HW2 9203   4.413   4.000   6.425
 1841WAT    LP1 9204   4.376   3.968   6.553
 1841WAT    LP2 9205   4.386   4.080   6.533
 1842WAT     OW 9206   6.706   5.862   3.268
 1842WAT    HW1 9207   6.623   5.864   3.315
 1842WAT    HW2 9208   6.725   5.953   3.248
 1842WAT    LP1 9209   6.756   5.835   3.309
 1842WAT    LP2 9210   6.700   5.824   3.210
 1843WAT     OW 9211   3.325   1.579   4.447
 1843WAT    HW1 9212   3.239   1.607   4.479
 1843WAT    HW2 9213   3.383   1.651   4.470
 1843WAT    LP1 9214   3.345   1.520   4.478
 1843WAT    LP2 9215   3.324   1.570   4.377
 1844WAT     OW 9216   0.425   6.561   0.038
 1844WAT    HW1 9217   0.429   6.467   0.021
 1844WAT    HW2 9218   0.335   6.578   0.064
 1844WAT    LP1 9219   0.470   6.579   0.089
 1844WAT    LP2 9220   0.441   6.598  -0.020
 1845WAT     OW 9221   6.177   0.126   5.124
 1845WAT    HW1 9222   6.190   0.155   5.033
 1845WAT    HW2 9223   6.188   0.205   5.176
 1845WAT    LP1 9224   6.113   0.099   5.132
 1845WAT    LP2 9225   6.225   0.078   5.141
 1846WAT     OW 9226   3.770   6.089   3.592
 1846WAT    HW1 9227   3.699   6.069   3.531
 1846WAT    HW2 9228   3.729   6.085   3.678
 1846WAT    LP1 9229   3.821   6.042   3.587
 1846WAT    LP2 9230   3.796   6.153   3.580
 1847WAT     OW 9231   6.128   5.560   0.629
 1847WAT    HW1 9232   6.175   5.536   0.548
 1847WAT    HW2 9233   6.067   5.487   0.643
 1847WAT    LP1 9234   6.173   5.565   0.682
 1847WAT    LP2 9235   6.094   5.620   0.621
 1848WAT     OW 9236   6.271   6.241   1.608
 1848WAT    HW1 9237   6.254   6.216   1.517
 1848WAT    HW2 9238   6.222   6.178   1.660
 1848WAT    LP1 9239   6.339   6.238   1.623
 1848WAT    LP2 9240   6.248   6.306   1.620
 1849WAT     OW 9241   3.832   0.515   0.439
 1849WAT    HW1 9242   3.820   0.558   0.354
 1849WAT    HW2 9243   3.905   0.562   0.479
 1849WAT    LP1 9244   3.774   0.521   0.478
 1849WAT    LP2 9245   3.848   0.447   0.430
 1850WAT     OW 9246   5.547   3.246   0.831
 1850WAT    HW1 9247   5.590   3.316   0.782
 1850WAT    HW2 9248   5.581   3.255   0.920
 1850WAT    LP1 9249   5.477   3.255   0.831
 1850WAT    LP2 9250   5.563   3.184   0.805
 1851WAT     OW 9251   3.182   2.700   5.780
 1851WAT    HW1 9252   3.171   2.624   5.723
 1851WAT    HW2 9253   3.136   2.771   5.735
 1851WAT    LP1 9254   3.155   2.689   5.843
 1851WAT    LP2 9255   3.250   2.716   5.787
 1852WAT     OW 9256   4.319   2.630   5.616
 1852WAT    HW1 9257   4.383   2.630   5.545
 1852WAT    HW2 9258   4.234   2.637   5.572
 1852WAT    LP1 9259   4.323   2.571   5.653
 1852WAT    LP2 9260   4.329   2.685   5.659
 1853WAT     OW 9261   3.710   2.708   3.291
 1853WAT    HW1 9262   3.717   2.729   3.384
 1853WAT    HW2 9263   3.616   2.715   3.271
 1853WAT    LP1 9264   3.747   2.753   3.252
 1853WAT    LP2 9265   3.732   2.642   3.279
 1854WAT     OW 9266   0.769   5.896   4.140
 1854WAT    HW1 9267   0.754   5.804   4.119
 1854WAT    HW2 9268   0.787   5.937   4.056
 1854WAT    LP1 9269   0.712   5.924   4.170
 1854WAT    LP2 9270   0.824   5.903   4.183
 1855WAT     OW 9271   6.218   6.267   3.549
 1855WAT    HW1 9272   6.125   6.253   3.568
 1855WAT    HW2 9273   6.250   6.317   3.624
 1855WAT    LP1 9274   6.251   6.206   3.544
 1855WAT    LP2 9275   6.226   6.303   3.489
 1856WAT     OW 9276   6.587   6.572   3.106
 1856WAT    HW1 9277   6.600   6.526   3.189
 1856WAT    HW2 9278   6.669   6.619   3.092
 1856WAT    LP1 9279   6.576   6.527   3.054
 1856WAT    LP2 9280   6.534   6.616   3.111
 1857WAT     OW 9281   1.872   5.683   5.878
 1857WAT    HW1 9282   1.843   5.760   5.829
 1857WAT    HW2 9283   1.833   5.609   5.832
 1857WAT    LP1 9284   1.942   5.679   5.878
 1857WAT    LP2 9285   1.849   5.686   5.944
 1858WAT     OW 9286   6.185   6.359   1.232
 1858WAT    HW1 9287   6.196   6.276   1.279
 1858WAT    HW2 9288   6.262   6.364   1.175
 1858WAT    LP1 9289   6.126   6.357   1.194
 1858WAT    LP2 9290   6.183   6.413   1.276
 1859WAT     OW 9291   5.755   2.427   6.629
 1859WAT    HW1 9292   5.660   2.419   6.639
 1859WAT    HW2 9293   5.768   2.449   6.537
 1859WAT    LP1 9294   5.780   2.478   6.670
 1859WAT    LP2 9295   5.787   2.367   6.646
 1860WAT     OW 9296   1.632   6.620   2.654
 1860WAT    HW1 9297   1.588   6.603   2.570
 1860WAT    HW2 9298   1.580   6.572   2.718
 1860WAT    LP1 9299   1.698   6.596   2.652
 1860WAT    LP2 9300   1.632   6.688   2.668
 1861WAT     OW 9301   6.338   3.195   3.936
 1861WAT    HW1 9302   6.294   3.196   3.851
 1861WAT    HW2 9303   6.366   3.285   3.950
 1861WAT    LP1 9304   6.295   3.174   3.986
 1861WAT    LP2 9305   6.394   3.152   3.934
 1862WAT     OW 9306   2.710   0.298   3.937
 1862WAT    HW1 9307   2.643   0.316   4.003
 1862WAT    HW2 9308   2.662   0.289   3.855
 1862WAT    LP1 9309   2.755   0.352   3.933
 1862WAT    LP2 9310   2.745   0.239   3.952
 1863WAT     OW 9311   1.124   3.192   0.704
 1863WAT    HW1 9312   1.205   3.165   0.660
 1863WAT    HW2 9313   1.108   3.281   0.671
 1863WAT    LP1 9314   1.072   3.150   0.686
 1863WAT    LP2 9315   1.132   3.192   0.773
 1864WAT     OW 9316   0.795   5.813   5.269
 1864WAT    HW1 9317   0.709   5.810   5.228
 1864WAT    HW2 9318   0.801   5.731   5.318
 1864WAT    LP1 9319   0.845   5.817   5.220
 1864WAT    LP2 9320   0.800   5.868   5.311
 1865WAT     OW 9321   1.251   5.442   2.463
 1865WAT    HW1 9322   1.307   5.497   2.519
 1865WAT    HW2 9323   1.191   5.504   2.421
 1865WAT    LP1 9324   1.290   5.409   2.415
 1865WAT    LP2 9325   1.216   5.395   2.501
 1866WAT     OW 9326   3.812   0.020   5.752
 1866WAT    HW1 9327   3.887   0.078   5.761
 1866WAT    HW2 9328   3.788  -0.002   5.842
 1866WAT    LP1 9329   3.759   0.052   5.720
 1866WAT    LP2 9330   3.830  -0.038   5.716
 1867WAT     OW 9331   1.772   1.481   3.123
 1867WAT    HW1 9332   1.839   1.520   3.179
 1867WAT    HW2 9333   1.775   1.387   3.143
 1867WAT    LP1 9334   1.709   1.508   3.138
 1867WAT    LP2 9335   1.787   1.492   3.056
 1868WAT     OW 9336   4.053   2.345   5.528
 1868WAT    HW1 9337   4.054   2.441   5.523
 1868WAT    HW2 9338   4.118   2.317   5.464
 1868WAT    LP1 9339   4.070   2.324   5.592
 1868WAT    LP2 9340   3.989   2.321   5.511
 1869WAT     OW 9341   1.508   2.056   6.013
 1869WAT    HW1 9342   1.477   2.048   6.103
 1869WAT    HW2 9343   1.603   2.049   6.020
 1869WAT    LP1 9344   1.482   2.005   5.973
 1869WAT    LP2 9345   1.489   2.118   5.986
 1870WAT     OW 9346   3.601   6.543   1.612
 1870WAT    HW1 9347   3.692   6.569   1.626
 1870WAT    HW2 9348   3.564   6.532   1.699
 1870WAT    LP1 9349   3.566   6.592   1.576
 1870WAT    LP2 9350   3.598   6.482   1.576
 1871WAT     OW 9351   0.524   0.481   0.124
 1871WAT    HW1 9352   0.563   0.410   0.073
 1871WAT    HW2 9353   0.509   0.443   0.211
 1871WAT    LP1 9354   0.568   0.535   0.128
 1871WAT    LP2 9355   0.463   0.502   0.096
 1872WAT     OW 9356   0.696   0.826   0.819
 1872WAT    HW1 9357   0.740   0.910   0.802
 1872WAT    HW2 9358   0.765   0.769   0.853
 1872WAT    LP1 9359   0.645   0.835   0.867
 1872WAT    LP2 9360   0.669   0.800   0.760
 1873WAT     OW 9361   4.723   6.112   3.356
 1873WAT    HW1 9362   4.661   6.056   3.403
 1873WAT    HW2 9363   4.704   6.097   3.264
 1873WAT    LP1 9364   4.712   6.179   3.373
 1873WAT    LP2 9365   4.789   6.094   3.371
 1874WAT     OW 9366   6.764   5.939   4.458
 1874WAT    HW1 9367   6.691   5.884   4.430
 1874WAT    HW2 9368   6.726   6.027   4.465
 1874WAT    LP1 9369   6.789   5.918   4.520
 1874WAT    LP2 9370   6.815   5.938   4.411
 1875WAT     OW 9371   1.670   6.052   3.915
 1875WAT    HW1 9372   1.618   6.054   3.835
 1875WAT    HW2 9373   1.754   6.092   3.891
 1875WAT    LP1 9374   1.638   6.089   3.966
 1875WAT    LP2 9375   1.679   5.986   3.937
 1876WAT     OW 9376   1.834   6.065   1.731
 1876WAT    HW1 9377   1.851   5.993   1.671
 1876WAT    HW2 9378   1.869   6.036   1.815
 1876WAT    LP1 9379   1.866   6.124   1.710
 1876WAT    LP2 9380   1.765   6.078   1.736
 1877WAT     OW 9381   1.637   0.608   5.358
 1877WAT    HW1 9382   1.583   0.596   5.280
 1877WAT    HW2 9383   1.709   0.547   5.347
 1877WAT    LP1 9384   1.660   0.674   5.362
 1877WAT    LP2 9385   1.600   0.593   5.416
 1878WAT     OW 9386   3.421   3.467   4.499
 1878WAT    HW1 9387   3.383   3.547   4.537
 1878WAT    HW2 9388   3.444   3.413   4.575
 1878WAT    LP1 9389   3.374   3.435   4.459
 1878WAT    LP2 9390   3.478   3.482   4.461
 1879WAT     OW 9391   5.205   5.690   5.219
 1879WAT    HW1 9392   5.229   5.772   5.175
 1879WAT    HW2 9393   5.289   5.645   5.231
 1879WAT    LP1 9394   5.175   5.704   5.281
 1879WAT    LP2 9395   5.162   5.652   5.180
 1880WAT     OW 9396   6.335   0.175   2.490
 1880WAT    HW1 9397   6.310   0.218   2.572
 1880WAT    HW2 9398   6.325   0.082   2.508
 1880WAT    LP1 9399   6.293   0.195   2.438
 1880WAT    LP2 9400   6.401   0.190   2.473
 1881WAT     OW 9401   6.355   0.465   6.479
 1881WAT    HW1 9402   6.385   0.420   6.400
 1881WAT    HW2 9403   6.350   0.397   6.545
 1881WAT    LP1 9404   6.401   0.515   6.498
 1881WAT    LP2 9405   6.292   0.494   6.468
 1882WAT     OW 9406   4.051   6.054   4.571
 1882WAT    HW1 9407   4.100   5.993   4.515
 1882WAT    HW2 9408   3.995   6.103   4.511
 1882WAT    LP1 9409   4.013   6.018   4.618
 1882WAT    LP2 9410   4.095   6.096   4.605
 1883WAT     OW 9411   5.150   4.323   1.953
 1883WAT    HW1 9412   5.170   4.387   1.885
 1883WAT    HW2 9413   5.235   4.301   1.991
 1883WAT    LP1 9414   5.108   4.351   2.001
 1883WAT    LP2 9415   5.120   4.266   1.925
 1884WAT     OW 9416   2.655   3.785   2.466
 1884WAT    HW1 9417   2.676   3.766   2.557
 1884WAT    HW2 9418   2.726   3.744   2.416
 1884WAT    LP1 9419   2.593   3.757   2.449
 1884WAT    LP2 9420   2.653   3.854   2.455
 1885WAT     OW 9421   0.832   3.037   2.409
 1885WAT    HW1 9422   0.746   3.055   2.448
 1885WAT    HW2 9423   0.877   2.983   2.474
 1885WAT    LP1 9424   0.825   3.001   2.349
 1885WAT    LP2 9425   0.867   3.096   2.397
 1886WAT     OW 9426   1.107   0.631   5.067
 1886WAT    HW1 9427   1.130   0.642   4.975
 1886WAT    HW2 9428   1.011   0.631   5.067
 1886WAT    LP1 9429   1.131   0.571   5.092
 1886WAT    LP2 9430   1.132   0.684   5.105
 1887WAT     OW 9431   5.711   2.040   0.663
 1887WAT    HW1 9432   5.648   1.968   0.656
 1887WAT    HW2 9433   5.663   2.109   0.708
 1887WAT    LP1 9434   5.767   2.020   0.700
 1887WAT    LP2 9435   5.731   2.061   0.600
 1888WAT     OW 9436   3.825   1.958   3.719
 1888WAT    HW1 9437   3.798   2.040   3.678
 1888WAT    HW2 9438   3.756   1.939   3.783
 1888WAT    LP1 9439   3.829   1.907   3.672
 1888WAT    LP2 9440   3.887   1.966   3.751
 1889WAT     OW 9441   1.081   4.538   0.907
 1889WAT    HW1 9442   1.011   4.594   0.942
 1889WAT    HW2 9443   1.047   4.449   0.915
 1889WAT    LP1 9444   1.094   4.554   0.840
 1889WAT    LP2 9445   1.139   4.546   0.945
 1890WAT     OW 9446   1.032   0.911   0.465
 1890WAT    HW1 9447   1.058   0.877   0.551
 1890WAT    HW2 9448   1.109   0.958   0.434
 1890WAT    LP1 9449   1.016   0.859   0.422
 1890WAT    LP2 9450   0.977   0.954   0.471
 1891WAT     OW 9451   4.381   0.714   6.138
 1891WAT    HW1 9452   4.348   0.631   6.103
 1891WAT    HW2 9453   4.336   0.725   6.221
 1891WAT    LP1 9454   4.451   0.710   6.148
 1891WAT    LP2 9455   4.367   0.766   6.094
 1892WAT     OW 9456   6.087   3.680   5.034
 1892WAT    HW1 9457   6.178   3.705   5.051
 1892WAT    HW2 9458   6.035   3.753   5.068
 1892WAT    LP1 9459   6.076   3.672   4.965
 1892WAT    LP2 9460   6.070   3.620   5.067
 1893WAT     OW 9461   5.787   1.692   4.556
 1893WAT    HW1 9462   5.777   1.775   4.509
 1893WAT    HW2 9463   5.792   1.626   4.487
 1893WAT    LP1 9464   5.846   1.692   4.595
 1893WAT    LP2 9465   5.732   1.680   4.598
 1894WAT     OW 9466   0.012   1.954   1.365
 1894WAT    HW1 9467  -0.056   1.978   1.302
 1894WAT    HW2 9468   0.091   1.946   1.311
 1894WAT    LP1 9469   0.020   2.005   1.413
 1894WAT    LP2 9470  -0.003   1.894   1.396
 1895WAT     OW 9471   5.328   4.197   1.562
 1895WAT    HW1 9472   5.347   4.291   1.563
 1895WAT    HW2 9473   5.246   4.189   1.514
 1895WAT    LP1 9474   5.379   4.162   1.530
 1895WAT    LP2 9475   5.321   4.173   1.627
 1896WAT     OW 9476   5.984   5.776   2.082
 1896WAT    HW1 9477   5.970   5.698   2.135
 1896WAT    HW2 9478   6.024   5.745   2.001
 1896WAT    LP1 9479   5.923   5.808   2.069
 1896WAT    LP2 9480   6.026   5.821   2.115
 1897WAT     OW 9481   3.882   4.345   4.941
 1897WAT    HW1 9482   3.787   4.336   4.933
 1897WAT    HW2 9483   3.915   4.327   4.853
 1897WAT    LP1 9484   3.899   4.410   4.960
 1897WAT    LP2 9485   3.907   4.299   4.987
 1898WAT     OW 9486   4.537   2.369   6.505
 1898WAT    HW1 9487   4.523   2.400   6.594
 1898WAT    HW2 9488   4.625   2.400   6.483
 1898WAT    LP1 9489   4.535   2.299   6.503
 1898WAT    LP2 9490   4.490   2.396   6.461
 1899WAT     OW 9491   3.785   2.387   6.324
 1899WAT    HW1 9492   3.863   2.342   6.291
 1899WAT    HW2 9493   3.745   2.325   6.385
 1899WAT    LP1 9494   3.803   2.446   6.357
 1899WAT    LP2 9495   3.741   2.402   6.272
 1900WAT     OW 9496   3.690   3.792   1.977
 1900WAT    HW1 9497   3.600   3.824   1.977
 1900WAT    HW2 9498   3.719   3.803   2.067
 1900WAT    LP1 9499   3.693   3.725   1.957
 1900WAT    LP2 9500   3.729   3.831   1.933
 1901WAT     OW 9501   0.270   2.904   4.918
 1901WAT    HW1 9502   0.202   2.969   4.933
 1901WAT    HW2 9503   0.228   2.838   4.863
 1901WAT    LP1 9504   0.324   2.933   4.884
 1901WAT    LP2 9505   0.292   2.876   4.978
 1902WAT     OW 9506   2.365   4.154   3.711
 1902WAT    HW1 9507   2.394   4.221   3.774
 1902WAT    HW2 9508   2.270   4.150   3.722
 1902WAT    LP1 9509   2.382   4.172   3.646
 1902WAT    LP2 9510   2.395   4.092   3.726
 1903WAT     OW 9511   4.360   3.936   5.227
 1903WAT    HW1 9512   4.347   3.957   5.135
 1903WAT    HW2 9513   4.305   3.999   5.274
 1903WAT    LP1 9514   4.339   3.871   5.241
 1903WAT    LP2 9515   4.427   3.943   5.245
 1904WAT     OW 9516   1.855   2.088   4.474
 1904WAT    HW1 9517   1.822   2.026   4.540
 1904WAT    HW2 9518   1.834   2.174   4.510
 1904WAT    LP1 9519   1.924   2.081   4.466
 1904WAT    LP2 9520   1.823   2.078   4.413
 1905WAT     OW 9521   0.880   6.245   3.681
 1905WAT    HW1 9522   0.852   6.328   3.642
 1905WAT    HW2 9523   0.801   6.192   3.685
 1905WAT    LP1 9524   0.928   6.214   3.640
 1905WAT    LP2 9525   0.907   6.255   3.745
 1906WAT     OW 9526   0.884   4.107   3.227
 1906WAT    HW1 9527   0.941   4.089   3.302
 1906WAT    HW2 9528   0.800   4.068   3.251
 1906WAT    LP1 9529   0.877   4.177   3.218
 1906WAT    LP2 9530   0.909   4.079   3.169
 1907WAT     OW 9531   0.835   2.068   2.185
 1907WAT    HW1 9532   0.895   2.001   2.150
 1907WAT    HW2 9533   0.875   2.151   2.159
 1907WAT    LP1 9534   0.772   2.060   2.157
 1907WAT    LP2 9535   0.831   2.063   2.255
 1908WAT     OW 9536   2.458   6.167   5.284
 1908WAT    HW1 9537   2.459   6.123   5.199
 1908WAT    HW2 9538   2.366   6.177   5.305
 1908WAT    LP1 9539   2.490   6.127   5.332
 1908WAT    LP2 9540   2.490   6.229   5.281
 1909WAT     OW 9541   0.345   1.748   4.849
 1909WAT    HW1 9542   0.265   1.739   4.797
 1909WAT    HW2 9543   0.342   1.838   4.883
 1909WAT    LP1 9544   0.347   1.702   4.901
 1909WAT    LP2 9545   0.402   1.739   4.808
 1910WAT     OW 9546   0.826   0.727   0.417
 1910WAT    HW1 9547   0.903   0.781   0.432
 1910WAT    HW2 9548   0.860   0.649   0.373
 1910WAT    LP1 9549   0.795   0.710   0.477
 1910WAT    LP2 9550   0.779   0.760   0.376
 1911WAT     OW 9551   0.031   3.767   2.301
 1911WAT    HW1 9552  -0.001   3.715   2.227
 1911WAT    HW2 9553  -0.047   3.790   2.350
 1911WAT    LP1 9554   0.075   3.729   2.340
 1911WAT    LP2 9555   0.064   3.825   2.278
 1912WAT     OW 9556   2.044   3.881   5.344
 1912WAT    HW1 9557   2.139   3.879   5.332
 1912WAT    HW2 9558   2.018   3.789   5.347
 1912WAT    LP1 9559   2.028   3.913   5.405
 1912WAT    LP2 9560   2.012   3.914   5.291
 1913WAT     OW 9561   3.586   3.384   0.836
 1913WAT    HW1 9562   3.496   3.366   0.863
 1913WAT    HW2 9563   3.603   3.322   0.765
 1913WAT    LP1 9564   3.592   3.450   0.813
 1913WAT    LP2 9565   3.630   3.374   0.889
 1914WAT     OW 9566   6.611   4.483   5.734
 1914WAT    HW1 9567   6.595   4.464   5.827
 1914WAT    HW2 9568   6.690   4.433   5.713
 1914WAT    LP1 9569   6.557   4.463   5.695
 1914WAT    LP2 9570   6.622   4.552   5.725
 1915WAT     OW 9571   3.035   2.991   5.399
 1915WAT    HW1 9572   3.052   2.958   5.310
 1915WAT    HW2 9573   3.082   3.074   5.403
 1915WAT    LP1 9574   2.966   3.001   5.408
 1915WAT    LP2 9575   3.059   2.946   5.447
 1916WAT     OW 9576   5.267   3.224   0.073
 1916WAT    HW1 9577   5.223   3.302   0.106
 1916WAT    HW2 9578   5.358   3.235   0.099
 1916WAT    LP1 9579   5.240   3.166   0.102
 1916WAT    LP2 9580   5.262   3.220   0.003
 1917WAT     OW 9581   0.913   4.544   5.053
 1917WAT    HW1 9582   0.882   4.495   5.129
 1917WAT    HW2 9583   1.003   4.568   5.074
 1917WAT    LP1 9584   0.910   4.505   4.995
 1917WAT    LP2 9585   0.874   4.602   5.044
 1918WAT     OW 9586   5.209   3.306   2.961
 1918WAT    HW1 9587   5.249   3.223   2.989
 1918WAT    HW2 9588   5.182   3.349   3.042
 1918WAT    LP1 9589   5.256   3.345   2.927
 1918WAT    LP2 9590   5.154   3.294   2.920
 1919WAT     OW 9591   1.304   2.991   4.112
 1919WAT    HW1 9592   1.370   2.943   4.062
 1919WAT    HW2 9593   1.341   2.999   4.200
 1919WAT    LP1 9594   1.293   3.055   4.084
 1919WAT    LP2 9595   1.244   2.956   4.114
 1920WAT     OW 9596   5.215   2.256   3.432
 1920WAT    HW1 9597   5.138   2.217   3.474
 1920WAT    HW2 9598   5.190   2.266   3.340
 1920WAT    LP1 9599   5.231   2.318   3.460
 1920WAT    LP2 9600   5.270   2.213   3.437
 1921WAT     OW 9601   3.342   3.984   3.461
 1921WAT    HW1 9602   3.357   3.898   3.499
 1921WAT    HW2 9603   3.388   4.045   3.519
 1921WAT    LP1 9604   3.368   3.987   3.396
 1921WAT    LP2 9605   3.273   3.999   3.460
 1922WAT     OW 9606   5.295   6.495   0.386
 1922WAT    HW1 9607   5.227   6.561   0.402
 1922WAT    HW2 9608   5.349   6.497   0.464
 1922WAT    LP1 9609   5.266   6.432   0.377
 1922WAT    LP2 9610   5.332   6.511   0.329
 1923WAT     OW 9611   0.830   5.428   2.947
 1923WAT    HW1 9612   0.908   5.408   2.999
 1923WAT    HW2 9613   0.832   5.365   2.876
 1923WAT    LP1 9614   0.772   5.420   2.986
 1923WAT    LP2 9615   0.833   5.494   2.923
 1924WAT     OW 9616   6.208   3.567   1.320
 1924WAT    HW1 9617   6.268   3.613   1.262
 1924WAT    HW2 9618   6.245   3.479   1.329
 1924WAT    LP1 9619   6.205   3.599   1.383
 1924WAT    LP2 9620   6.144   3.564   1.292
 1925WAT     OW 9621   0.915   0.337   1.679
 1925WAT    HW1 9622   0.829   0.378   1.670
 1925WAT    HW2 9623   0.937   0.307   1.591
 1925WAT    LP1 9624   0.962   0.384   1.702
 1925WAT    LP2 9625   0.913   0.284   1.724
 1926WAT     OW 9626   1.846   5.000   3.030
 1926WAT    HW1 9627   1.813   4.931   3.087
 1926WAT    HW2 9628   1.940   4.984   3.024
 1926WAT    LP1 9629   1.816   4.997   2.967
 1926WAT    LP2 9630   1.834   5.063   3.059
 1927WAT     OW 9631   1.502   0.154   3.127
 1927WAT    HW1 9632   1.509   0.248   3.111
 1927WAT    HW2 9633   1.549   0.140   3.209
 1927WAT    LP1 9634   1.435   0.135   3.134
 1927WAT    LP2 9635   1.531   0.117   3.075
 1928WAT     OW 9636   3.527   1.364   0.641
 1928WAT    HW1 9637   3.458   1.377   0.575
 1928WAT    HW2 9638   3.506   1.427   0.710
 1928WAT    LP1 9639   3.525   1.298   0.666
 1928WAT    LP2 9640   3.590   1.377   0.613
 1929WAT     OW 9641   1.445   1.162   5.177
 1929WAT    HW1 9642   1.405   1.126   5.256
 1929WAT    HW2 9643   1.514   1.100   5.155
 1929WAT    LP1 9644   1.397   1.166   5.125
 1929WAT    LP2 9645   1.471   1.226   5.189
 1930WAT     OW 9646   4.685   5.815   0.543
 1930WAT    HW1 9647   4.658   5.807   0.634
 1930WAT    HW2 9648   4.773   5.852   0.546
 1930WAT    LP1 9649   4.686   5.752   0.512
 1930WAT    LP2 9650   4.641   5.857   0.508
 1931WAT     OW 9651   4.220   6.262   6.145
 1931WAT    HW1 9652   4.195   6.353   6.163
 1931WAT    HW2 9653   4.228   6.258   6.050
 1931WAT    LP1 9654   4.282   6.247   6.175
 1931WAT    LP2 9655   4.171   6.218   6.168
 1932WAT     OW 9656   0.491   4.836   2.894
 1932WAT    HW1 9657   0.563   4.890   2.924
 1932WAT    HW2 9658   0.532   4.755   2.863
 1932WAT    LP1 9659   0.446   4.822   2.946
 1932WAT    LP2 9660   0.456   4.867   2.841
 1933WAT     OW 9661   0.503   5.778   3.715
 1933WAT    HW1 9662   0.482   5.792   3.807
 1933WAT    HW2 9663   0.418   5.771   3.672
 1933WAT    LP1 9664   0.539   5.832   3.689
 1933WAT    LP2 9665   0.540   5.719   3.706
 1934WAT     OW 9666   0.482   6.022   0.578
 1934WAT    HW1 9667   0.444   6.036   0.665
 1934WAT    HW2 9668   0.574   6.045   0.589
 1934WAT    LP1 9669   0.475   5.955   0.559
 1934WAT    LP2 9670   0.452   6.064   0.531
 1935WAT     OW 9671   4.150   4.466   5.600
 1935WAT    HW1 9672   4.218   4.528   5.571
 1935WAT    HW2 9673   4.082   4.473   5.534
 1935WAT    LP1 9674   4.175   4.401   5.603
 1935WAT    LP2 9675   4.126   4.485   5.663
 1936WAT     OW 9676   3.615   2.931   0.122
 1936WAT    HW1 9677   3.626   2.873   0.046
 1936WAT    HW2 9678   3.578   2.876   0.190
 1936WAT    LP1 9679   3.677   2.957   0.142
 1936WAT    LP2 9680   3.572   2.984   0.106
 1937WAT     OW 9681   0.308   2.891   0.425
 1937WAT    HW1 9682   0.306   2.809   0.377
 1937WAT    HW2 9683   0.374   2.879   0.493
 1937WAT    LP1 9684   0.325   2.944   0.383
 1937WAT    LP2 9685   0.245   2.904   0.454
 1938WAT     OW 9686   3.173   1.906   2.195
 1938WAT    HW1 9687   3.258   1.891   2.237
 1938WAT    HW2 9688   3.112   1.917   2.268
 1938WAT    LP1 9689   3.175   1.964   2.156
 1938WAT    LP2 9690   3.155   1.852   2.155
 1939WAT     OW 9691   3.021   0.621   5.124
 1939WAT    HW1 9692   3.117   0.629   5.123
 1939WAT    HW2 9693   3.005   0.527   5.118
 1939WAT    LP1 9694   2.995   0.646   5.184
 1939WAT    LP2 9695   2.993   0.655   5.070
 1940WAT     OW 9696   3.195   0.230   5.810
 1940WAT    HW1 9697   3.181   0.324   5.805
 1940WAT    HW2 9698   3.247   0.209   5.732
 1940WAT    LP1 9699   3.230   0.213   5.868
 1940WAT    LP2 9700   3.134   0.195   5.809
 1941WAT     OW 9701   4.944   6.056   3.499
 1941WAT    HW1 9702   4.870   6.077   3.442
 1941WAT    HW2 9703   4.960   5.963   3.484
 1941WAT    LP1 9704   5.000   6.094   3.483
 1941WAT    LP2 9705   4.926   6.067   3.566
 1942WAT     OW 9706   3.004   0.945   3.668
 1942WAT    HW1 9707   3.031   1.024   3.622
 1942WAT    HW2 9708   3.024   0.874   3.606
 1942WAT    LP1 9709   3.040   0.937   3.727
 1942WAT    LP2 9710   2.936   0.946   3.682
 1943WAT     OW 9711   4.570   5.706   5.883
 1943WAT    HW1 9712   4.478   5.690   5.863
 1943WAT    HW2 9713   4.612   5.710   5.797
 1943WAT    LP1 9714   4.577   5.767   5.917
 1943WAT    LP2 9715   4.596   5.654   5.922
 1944WAT     OW 9716   5.875   3.006   1.641
 1944WAT    HW1 9717   5.785   3.025   1.665
 1944WAT    HW2 9718   5.886   3.046   1.555
 1944WAT    LP1 9719   5.920   3.034   1.687
 1944WAT    LP2 9720   5.886   2.937   1.637
 1945WAT     OW 9721   0.474   5.404   1.855
 1945WAT    HW1 9722   0.555   5.417   1.903
 1945WAT    HW2 9723   0.419   5.353   1.914
 1945WAT    LP1 9724   0.444   5.466   1.841
 1945WAT    LP2 9725   0.485   5.370   1.795
 1946WAT     OW 9726   3.344   3.820   2.825
 1946WAT    HW1 9727   3.301   3.750   2.776
 1946WAT    HW2 9728   3.426   3.835   2.779
 1946WAT    LP1 9729   3.304   3.878   2.825
 1946WAT    LP2 9730   3.355   3.800   2.891
 1947WAT     OW 9731   1.931   1.315   2.078
 1947WAT    HW1 9732   1.980   1.270   2.010
 1947WAT    HW2 9733   1.976   1.295   2.160
 1947WAT    LP1 9734   1.931   1.384   2.066
 1947WAT    LP2 9735   1.865   1.292   2.080
 1948WAT     OW 9736   6.034   6.496   3.356
 1948WAT    HW1 9737   6.001   6.406   3.352
 1948WAT    HW2 9738   5.961   6.547   3.390
 1948WAT    LP1 9739   6.089   6.500   3.400
 1948WAT    LP2 9740   6.053   6.518   3.293
 1949WAT     OW 9741   2.986   4.245   0.261
 1949WAT    HW1 9742   2.916   4.187   0.232
 1949WAT    HW2 9743   2.981   4.320   0.203
 1949WAT    LP1 9744   2.976   4.264   0.328
 1949WAT    LP2 9745   3.048   4.213   0.256
 1950WAT     OW 9746   5.332   3.889   3.670
 1950WAT    HW1 9747   5.305   3.980   3.686
 1950WAT    HW2 9748   5.277   3.837   3.728
 1950WAT    LP1 9749   5.321   3.872   3.603
 1950WAT    LP2 9750   5.400   3.880   3.685
 1951WAT     OW 9751   5.491   6.419   1.315
 1951WAT    HW1 9752   5.518   6.498   1.269
 1951WAT    HW2 9753   5.568   6.362   1.314
 1951WAT    LP1 9754   5.472   6.434   1.381
 1951WAT    LP2 9755   5.437   6.388   1.283
 1952WAT     OW 9756   2.405   4.185   3.440
 1952WAT    HW1 9757   2.397   4.179   3.535
 1952WAT    HW2 9758   2.316   4.198   3.409
 1952WAT    LP1 9759   2.446   4.239   3.422
 1952WAT    LP2 9760   2.432   4.125   3.414
 1953WAT     OW 9761   3.615   5.996   6.180
 1953WAT    HW1 9762   3.599   5.952   6.096
 1953WAT    HW2 9763   3.552   6.068   6.182
 1953WAT    LP1 9764   3.604   5.952   6.233
 1953WAT    LP2 9765   3.680   6.021   6.183
 1954WAT     OW 9766   6.250   2.965   6.353
 1954WAT    HW1 9767   6.203   2.977   6.270
 1954WAT    HW2 9768   6.182   2.971   6.420
 1954WAT    LP1 9769   6.281   2.902   6.355
 1954WAT    LP2 9770   6.298   3.015   6.362
 1955WAT     OW 9771   6.593   5.930   6.410
 1955WAT    HW1 9772   6.589   5.842   6.374
 1955WAT    HW2 9773   6.576   5.919   6.504
 1955WAT    LP1 9774   6.655   5.959   6.399
 1955WAT    LP2 9775   6.543   5.970   6.381
 1956WAT     OW 9776   5.195   1.590   3.276
 1956WAT    HW1 9777   5.117   1.641   3.254
 1956WAT    HW2 9778   5.262   1.620   3.214
 1956WAT    LP1 9779   5.215   1.604   3.342
 1956WAT    LP2 9780   5.183   1.522   3.269
 1957WAT     OW 9781   5.556   2.382   1.535
 1957WAT    HW1 9782   5.507   2.459   1.564
 1957WAT    HW2 9783   5.490   2.315   1.524
 1957WAT    LP1 9784   5.589   2.396   1.475
 1957WAT    LP2 9785   5.603   2.363   1.584
 1958WAT     OW 9786   2.960   6.311   5.735
 1958WAT    HW1 9787   3.016   6.277   5.667
 1958WAT    HW2 9788   2.949   6.239   5.797
 1958WAT    LP1 9789   2.990   6.366   5.767
 1958WAT    LP2 9790   2.898   6.331   5.709
 1959WAT     OW 9791   6.110   2.298   2.799
 1959WAT    HW1 9792   6.165   2.357   2.749
 1959WAT    HW2 9793   6.028   2.346   2.812
 1959WAT    LP1 9794   6.099   2.238   2.764
 1959WAT    LP2 9795   6.139   2.283   2.861
 1960WAT     OW 9796   4.242   5.376   5.832
 1960WAT    HW1 9797   4.328   5.350   5.801
 1960WAT    HW2 9798   4.181   5.339   5.768
 1960WAT    LP1 9799   4.229   5.349   5.896
 1960WAT    LP2 9800   4.236   5.446   5.835
 1961WAT     OW 9801   0.707   4.708   0.303
 1961WAT    HW1 9802   0.738   4.618   0.294
 1961WAT    HW2 9803   0.785   4.762   0.293
 1961WAT    LP1 9804   0.659   4.723   0.254
 1961WAT    LP2 9805   0.678   4.717   0.367
 1962WAT     OW 9806   4.252   3.159   4.127
 1962WAT    HW1 9807   4.190   3.088   4.145
 1962WAT    HW2 9808   4.338   3.120   4.145
 1962WAT    LP1 9809   4.248   3.179   4.060
 1962WAT    LP2 9810   4.241   3.214   4.169
 1963WAT     OW 9811   6.575   1.337   6.565
 1963WAT    HW1 9812   6.567   1.352   6.658
 1963WAT    HW2 9813   6.627   1.257   6.558
 1963WAT    LP1 9814   6.512   1.327   6.536
 1963WAT    LP2 9815   6.608   1.390   6.533
 1964WAT     OW 9816   4.101   0.432   1.540
 1964WAT    HW1 9817   4.032   0.432   1.474
 1964WAT    HW2 9818   4.177   0.395   1.496
 1964WAT    LP1 9819   4.114   0.497   1.562
 1964WAT    LP2 9820   4.082   0.392   1.595
 1965WAT     OW 9821   4.510   2.963   1.382
 1965WAT    HW1 9822   4.448   2.967   1.455
 1965WAT    HW2 9823   4.479   2.890   1.328
 1965WAT    LP1 9824   4.509   3.023   1.345
 1965WAT    LP2 9825   4.575   2.951   1.405
 1966WAT     OW 9826   0.964   2.553   0.551
 1966WAT    HW1 9827   1.056   2.576   0.566
 1966WAT    HW2 9828   0.914   2.618   0.601
 1966WAT    LP1 9829   0.948   2.557   0.483
 1966WAT    LP2 9830   0.951   2.488   0.574
 1967WAT     OW 9831   4.641   5.932   6.250
 1967WAT    HW1 9832   4.563   5.984   6.228
 1967WAT    HW2 9833   4.613   5.873   6.319
 1967WAT    LP1 9834   4.663   5.896   6.194
 1967WAT    LP2 9835   4.693   5.974   6.272
 1968WAT     OW 9836   4.504   3.160   1.190
 1968WAT    HW1 9837   4.448   3.106   1.134
 1968WAT    HW2 9838   4.522   3.104   1.266
 1968WAT    LP1 9839   4.563   3.177   1.157
 1968WAT    LP2 9840   4.470   3.218   1.210
 1969WAT     OW 9841   0.181   5.907   1.998
 1969WAT    HW1 9842   0.254   5.885   1.941
 1969WAT    HW2 9843   0.178   6.003   1.997
 1969WAT    LP1 9844   0.121   5.881   1.973
 1969WAT    LP2 9845   0.191   5.884   2.063
 1970WAT     OW 9846   1.981   4.156   2.640
 1970WAT    HW1 9847   1.976   4.251   2.636
 1970WAT    HW2 9848   1.894   4.128   2.668
 1970WAT    LP1 9849   1.996   4.129   2.577
 1970WAT    LP2 9850   2.030   4.135   2.686
 1971WAT     OW 9851   3.926   2.799   1.963
 1971WAT    HW1 9852   4.001   2.806   2.022
 1971WAT    HW2 9853   3.958   2.833   1.879
 1971WAT    LP1 9854   3.906   2.732   1.957
 1971WAT    LP2 9855   3.873   2.838   1.986
 1972WAT     OW 9856   1.151   5.780   0.221
 1972WAT    HW1 9857   1.122   5.752   0.134
 1972WAT    HW2 9858   1.211   5.853   0.204
 1972WAT    LP1 9859   1.096   5.802   0.259
 1972WAT    LP2 9860   1.183   5.728   0.255
 1973WAT     OW 9861   0.767   3.270   4.286
 1973WAT    HW1 9862   0.761   3.295   4.194
 1973WAT    HW2 9863   0.854   3.232   4.295
 1973WAT    LP1 9864   0.760   3.326   4.327
 1973WAT    LP2 9865   0.717   3.223   4.302
 1974WAT     OW 9866   2.374   1.567   6.485
 1974WAT    HW1 9867   2.434   1.634   6.450
 1974WAT    HW2 9868   2.349   1.516   6.408
 1974WAT    LP1 9869   2.406   1.527   6.532
 1974WAT    LP2 9870   2.318   1.597   6.514
 1975WAT     OW 9871   2.297   3.375   4.083
 1975WAT    HW1 9872   2.348   3.357   4.004
 1975WAT    HW2 9873   2.296   3.471   4.089
 1975WAT    LP1 9874   2.232   3.350   4.077
 1975WAT    LP2 9875   2.328   3.347   4.139
 1976WAT     OW 9876   5.673   2.326   1.779
 1976WAT    HW1 9877   5.635   2.326   1.691
 1976WAT    HW2 9878   5.756   2.373   1.769
 1976WAT    LP1 9879   5.631   2.359   1.824
 1976WAT    LP2 9880   5.684   2.261   1.801
 1977WAT     OW 9881   6.364   5.414   2.196
 1977WAT    HW1 9882   6.362   5.468   2.274
 1977WAT    HW2 9883   6.285   5.360   2.202
 1977WAT    LP1 9884   6.362   5.454   2.138
 1977WAT    LP2 9885   6.421   5.374   2.195
 1978WAT     OW 9886   1.599   6.183   2.450
 1978WAT    HW1 9887   1.583   6.137   2.368
 1978WAT    HW2 9888   1.644   6.264   2.425
 1978WAT    LP1 9889   1.539   6.197   2.483
 1978WAT    LP2 9890   1.640   6.144   2.492
 1979WAT     OW 9891   0.710   3.691   5.269
 1979WAT    HW1 9892   0.699   3.612   5.216
 1979WAT    HW2 9893   0.643   3.752   5.238
 1979WAT    LP1 9894   0.701   3.677   5.337
 1979WAT    LP2 9895   0.774   3.718   5.260
 1980WAT     OW 9896   1.961   3.953   2.431
 1980WAT    HW1 9897   2.007   4.021   2.480
 1980WAT    HW2 9898   1.870   3.984   2.426
 1980WAT    LP1 9899   1.988   3.946   2.367
 1980WAT    LP2 9900   1.964   3.892   2.464
 1981WAT     OW 9901   4.114   5.008   1.849
 1981WAT    HW1 9902   4.052   4.965   1.790
 1981WAT    HW2 9903   4.170   5.060   1.792
 1981WAT    LP1 9904   4.081   5.049   1.895
 1981WAT    LP2 9905   4.152   4.960   1.884
 1982WAT     OW 9906   5.878   0.115   2.229
 1982WAT    HW1 9907   5.888   0.159   2.144
 1982WAT    HW2 9908   5.968   0.098   2.257
 1982WAT    LP1 9909   5.845   0.157   2.274
 1982WAT    LP2 9910   5.842   0.056   2.222
 1983WAT     OW 9911   6.055   2.437   1.943
 1983WAT    HW1 9912   6.111   2.511   1.966
 1983WAT    HW2 9913   5.988   2.436   2.012
 1983WAT    LP1 9914   6.025   2.447   1.881
 1983WAT    LP2 9915   6.091   2.378   1.943
 1984WAT     OW 9916   5.032   5.073   1.812
 1984WAT    HW1 9917   5.039   5.163   1.844
 1984WAT    HW2 9918   4.956   5.037   1.858
 1984WAT    LP1 9919   5.023   5.071   1.743
 1984WAT    LP2 9920   5.090   5.037   1.829
 1985WAT     OW 9921   4.444   1.296   2.800
 1985WAT    HW1 9922   4.431   1.328   2.710
 1985WAT    HW2 9923   4.361   1.252   2.821
 1985WAT    LP1 9924   4.497   1.250   2.802
 1985WAT    LP2 9925   4.456   1.349   2.843
 1986WAT     OW 9926   2.660   3.788   0.771
 1986WAT    HW1 9927   2.733   3.832   0.726
 1986WAT    HW2 9928   2.592   3.782   0.705
 1986WAT    LP1 9929   2.680   3.725   0.793
 1986WAT    LP2 9930   2.639   3.826   0.826
 1987WAT     OW 9931   3.341   0.460   3.448
 1987WAT    HW1 9932   3.417   0.402   3.451
 1987WAT    HW2 9933   3.336   0.499   3.535
 1987WAT    LP1 9934   3.350   0.509   3.399
 1987WAT    LP2 9935   3.283   0.424   3.433
 1988WAT     OW 9936   6.152   5.404   6.582
 1988WAT    HW1 9937   6.184   5.318   6.611
 1988WAT    HW2 9938   6.161   5.460   6.659
 1988WAT    LP1 9939   6.191   5.428   6.529
 1988WAT    LP2 9940   6.085   5.400   6.562
 1989WAT     OW 9941   3.151   1.565   1.772
 1989WAT    HW1 9942   3.176   1.478   1.803
 1989WAT    HW2 9943   3.138   1.617   1.851
 1989WAT    LP1 9944   3.202   1.593   1.732
 1989WAT    LP2 9945   3.092   1.562   1.734
 1990WAT     OW 9946   4.768   6.680   3.747
 1990WAT    HW1 9947   4.693   6.646   3.697
 1990WAT    HW2 9948   4.842   6.627   3.718
 1990WAT    LP1 9949   4.779   6.747   3.732
 1990WAT    LP2 9950   4.758   6.673   3.815
 1991WAT     OW 9951   5.628   5.012   6.062
 1991WAT    HW1 9952   5.557   4.982   6.119
 1991WAT    HW2 9953   5.700   4.951   6.079
 1991WAT    LP1 9954   5.608   5.009   5.995
 1991WAT    LP2 9955   5.647   5.077   6.078
 1992WAT     OW 9956   5.975   5.787   0.630
 1992WAT    HW1 9957   5.940   5.791   0.719
 1992WAT    HW2 9958   6.038   5.715   0.632
 1992WAT    LP1 9959   5.924   5.775   0.584
 1992WAT    LP2 9960   6.008   5.847   0.614
 1993WAT     OW 9961   4.770   3.925   1.156
 1993WAT    HW1 9962   4.710   3.850   1.160
 1993WAT    HW2 9963   4.835   3.907   1.223
 1993WAT    LP1 9964   4.800   3.929   1.093
 1993WAT    LP2 9965   4.736   3.985   1.170
 1994WAT     OW 9966   6.534   0.562   1.551
 1994WAT    HW1 9967   6.578   0.644   1.571
 1994WAT    HW2 9968   6.443   0.577   1.574
 1994WAT    LP1 9969   6.540   0.547   1.482
 1994WAT    LP2 9970   6.561   0.509   1.588
 1995WAT     OW 9971   3.086   6.251   4.259
 1995WAT    HW1 9972   3.027   6.179   4.234
 1995WAT    HW2 9973   3.064   6.322   4.199
 1995WAT    LP1 9974   3.075   6.270   4.325
 1995WAT    LP2 9975   3.153   6.231   4.251
 1996WAT     OW 9976   4.969   5.042   2.744
 1996WAT    HW1 9977   5.008   5.115   2.697
 1996WAT    HW2 9978   5.013   4.964   2.710
 1996WAT    LP1 9979   4.981   5.048   2.813
 1996WAT    LP2 9980   4.900   5.038   2.732
 1997WAT     OW 9981   5.823   1.531   2.590
 1997WAT    HW1 9982   5.909   1.534   2.632
 1997WAT    HW2 9983   5.825   1.601   2.525
 1997WAT    LP1 9984   5.813   1.469   2.559
 1997WAT    LP2 9985   5.772   1.542   2.637
 1998WAT     OW 9986   4.463   6.408   1.382
 1998WAT    HW1 9987   4.515   6.346   1.330
 1998WAT    HW2 9988   4.378   6.365   1.393
 1998WAT    LP1 9989   4.494   6.419   1.444
 1998WAT    LP2 9990   4.456   6.469   1.348
 1999WAT     OW 9991   1.534   5.116   5.475
 1999WAT    HW1 9992   1.567   5.165   5.400
 1999WAT    HW2 9993   1.603   5.052   5.495
 1999WAT    LP1 9994   1.524   5.159   5.530
 1999WAT    LP2 9995   1.474   5.083   5.460
 2000WAT     OW 9996   1.189   3.059   3.716
 2000WAT    HW1 9997   1.103   3.032   3.750
 2000WAT    HW2 9998   1.171   3.089   3.627
 2000WAT    LP1 9999   1.215   3.112   3.755
 2000WAT    LP210000   1.233   3.006   3.716
 2001WAT     OW10001   3.663   0.418   4.379
 2001WAT    HW110002   3.657   0.383   4.468
 2001WAT    HW210003   3.695   0.507   4.391
 2001WAT    LP110004   3.707   0.380   4.340
 2001WAT    LP210005   3.600   0.419   4.349
 2002WAT     OW10006   3.947   2.729   6.255
 2002WAT    HW110007   3.989   2.695   6.175
 2002WAT    HW210008   3.980   2.672   6.325
 2002WAT    LP110009   3.965   2.795   6.266
 2002WAT    LP210010   3.878   2.724   6.250
 2003WAT     OW10011   0.107   6.332   3.325
 2003WAT    HW110012   0.147   6.264   3.380
 2003WAT    HW210013   0.131   6.414   3.368
 2003WAT    LP110014   0.133   6.329   3.260
 2003WAT    LP210015   0.038   6.324   3.323
 2004WAT     OW10016   1.240   3.858   4.186
 2004WAT    HW110017   1.272   3.944   4.213
 2004WAT    HW210018   1.197   3.874   4.102
 2004WAT    LP110019   1.294   3.813   4.178
 2004WAT    LP210020   1.195   3.832   4.233
 2005WAT     OW10021   3.336   5.735   3.832
 2005WAT    HW110022   3.315   5.751   3.740
 2005WAT    HW210023   3.254   5.704   3.870
 2005WAT    LP110024   3.386   5.687   3.838
 2005WAT    LP210025   3.357   5.794   3.863
 2006WAT     OW10026   3.092   4.849   1.826
 2006WAT    HW110027   3.120   4.937   1.852
 2006WAT    HW210028   3.053   4.812   1.906
 2006WAT    LP110029   3.045   4.852   1.775
 2006WAT    LP210030   3.147   4.811   1.806
 2007WAT     OW10031   4.278   3.500   5.429
 2007WAT    HW110032   4.323   3.489   5.345
 2007WAT    HW210033   4.264   3.594   5.437
 2007WAT    LP110034   4.217   3.465   5.429
 2007WAT    LP210035   4.318   3.477   5.482
 2008WAT     OW10036   3.100   1.872   5.748
 2008WAT    HW110037   3.096   1.877   5.843
 2008WAT    HW210038   3.173   1.928   5.724
 2008WAT    LP110039   3.112   1.806   5.727
 2008WAT    LP210040   3.041   1.895   5.719
 2009WAT     OW10041   0.543   2.429   2.435
 2009WAT    HW110042   0.468   2.424   2.494
 2009WAT    HW210043   0.612   2.380   2.480
 2009WAT    LP110044   0.529   2.400   2.373
 2009WAT    LP210045   0.563   2.496   2.426
 2010WAT     OW10046   0.006   1.515   3.788
 2010WAT    HW110047   0.080   1.453   3.790
 2010WAT    HW210048  -0.058   1.473   3.731
 2010WAT    LP110049  -0.019   1.524   3.852
 2010WAT    LP210050   0.026   1.577   3.761
 2011WAT     OW10051   5.966   5.515   2.208
 2011WAT    HW110052   5.964   5.477   2.120
 2011WAT    HW210053   5.919   5.452   2.262
 2011WAT    LP110054   6.032   5.522   2.230
 2011WAT    LP210055   5.934   5.578   2.208
 2012WAT     OW10056   3.202   2.626   0.521
 2012WAT    HW110057   3.121   2.600   0.565
 2012WAT    HW210058   3.228   2.548   0.471
 2012WAT    LP110059   3.191   2.680   0.478
 2012WAT    LP210060   3.251   2.642   0.568
 2013WAT     OW10061   1.229   6.370   1.409
 2013WAT    HW110062   1.274   6.402   1.331
 2013WAT    HW210063   1.183   6.291   1.379
 2013WAT    LP110064   1.274   6.354   1.460
 2013WAT    LP210065   1.183   6.417   1.432
 2014WAT     OW10066   3.756   5.309   3.324
 2014WAT    HW110067   3.705   5.228   3.323
 2014WAT    HW210068   3.756   5.339   3.234
 2014WAT    LP110069   3.726   5.356   3.366
 2014WAT    LP210070   3.822   5.296   3.346
 2015WAT     OW10071   1.694   0.762   4.993
 2015WAT    HW110072   1.686   0.849   5.032
 2015WAT    HW210073   1.630   0.708   5.040
 2015WAT    LP110074   1.679   0.764   4.925
 2015WAT    LP210075   1.759   0.736   5.002
 2016WAT     OW10076   0.003   1.313   3.384
 2016WAT    HW110077  -0.041   1.258   3.319
 2016WAT    HW210078   0.096   1.291   3.375
 2016WAT    LP110079  -0.008   1.381   3.371
 2016WAT    LP210080  -0.019   1.298   3.449
 2017WAT     OW10081   3.718   1.944   6.432
 2017WAT    HW110082   3.700   2.036   6.453
 2017WAT    HW210083   3.639   1.913   6.387
 2017WAT    LP110084   3.774   1.939   6.390
 2017WAT    LP210085   3.730   1.908   6.490
 2018WAT     OW10086   6.031   6.067   2.486
 2018WAT    HW110087   6.061   6.059   2.395
 2018WAT    HW210088   5.936   6.060   2.481
 2018WAT    LP110089   6.057   6.015   2.525
 2018WAT    LP210090   6.050   6.128   2.513
 2019WAT     OW10091   2.108   6.685   6.434
 2019WAT    HW110092   2.071   6.749   6.374
 2019WAT    HW210093   2.199   6.712   6.446
 2019WAT    LP110094   2.074   6.685   6.495
 2019WAT    LP210095   2.106   6.621   6.406
 2020WAT     OW10096   0.031   4.091   2.702
 2020WAT    HW110097   0.081   4.013   2.679
 2020WAT    HW210098   0.048   4.152   2.631
 2020WAT    LP110099  -0.037   4.076   2.707
 2020WAT    LP210100   0.053   4.117   2.763
 2021WAT     OW10101   1.116   3.389   0.058
 2021WAT    HW110102   1.054   3.359   0.124
 2021WAT    HW210103   1.061   3.427  -0.010
 2021WAT    LP110104   1.159   3.437   0.084
 2021WAT    LP210105   1.153   3.335   0.033
 2022WAT     OW10106   0.396   0.679   1.391
 2022WAT    HW110107   0.325   0.683   1.455
 2022WAT    HW210108   0.405   0.770   1.361
 2022WAT    LP110109   0.455   0.657   1.421
 2022WAT    LP210110   0.379   0.637   1.338
 2023WAT     OW10111   1.414   5.201   2.064
 2023WAT    HW110112   1.499   5.227   2.027
 2023WAT    HW210113   1.422   5.219   2.157
 2023WAT    LP110114   1.362   5.239   2.036
 2023WAT    LP210115   1.402   5.133   2.052
 2024WAT     OW10116   4.837   1.464   6.587
 2024WAT    HW110117   4.812   1.531   6.651
 2024WAT    HW210118   4.929   1.445   6.608
 2024WAT    LP110119   4.798   1.407   6.594
 2024WAT    LP210120   4.832   1.489   6.522
 2025WAT     OW10121   2.919   4.663   2.577
 2025WAT    HW110122   2.994   4.646   2.634
 2025WAT    HW210123   2.945   4.740   2.526
 2025WAT    LP110124   2.907   4.608   2.535
 2025WAT    LP210125   2.862   4.676   2.615
 2026WAT     OW10126   2.572   0.128   4.501
 2026WAT    HW110127   2.602   0.158   4.587
 2026WAT    HW210128   2.503   0.064   4.520
 2026WAT    LP110129   2.547   0.181   4.464
 2026WAT    LP210130   2.625   0.098   4.466
 2027WAT     OW10131   4.110   1.530   2.548
 2027WAT    HW110132   4.071   1.510   2.463
 2027WAT    HW210133   4.041   1.512   2.612
 2027WAT    LP110134   4.166   1.489   2.560
 2027WAT    LP210135   4.130   1.597   2.551
 2028WAT     OW10136   6.791   1.641   0.118
 2028WAT    HW110137   6.737   1.642   0.198
 2028WAT    HW210138   6.736   1.683   0.052
 2028WAT    LP110139   6.850   1.676   0.128
 2028WAT    LP210140   6.805   1.575   0.100
 2029WAT     OW10141   6.297   5.169   5.683
 2029WAT    HW110142   6.239   5.099   5.714
 2029WAT    HW210143   6.256   5.201   5.604
 2029WAT    LP110144   6.303   5.219   5.731
 2029WAT    LP210145   6.361   5.143   5.669
 2030WAT     OW10146   2.664   1.625   3.825
 2030WAT    HW110147   2.600   1.613   3.895
 2030WAT    HW210148   2.612   1.627   3.745
 2030WAT    LP110149   2.699   1.685   3.834
 2030WAT    LP210150   2.709   1.572   3.824
 2031WAT     OW10151   2.764   5.880   4.298
 2031WAT    HW110152   2.715   5.851   4.221
 2031WAT    HW210153   2.798   5.800   4.337
 2031WAT    LP110154   2.816   5.923   4.280
 2031WAT    LP210155   2.721   5.913   4.343
 2032WAT     OW10156   1.480   3.121   2.946
 2032WAT    HW110157   1.551   3.069   2.983
 2032WAT    HW210158   1.522   3.202   2.919
 2032WAT    LP110159   1.452   3.088   2.890
 2032WAT    LP210160   1.431   3.133   2.993
 2033WAT     OW10161   2.087   4.505   4.543
 2033WAT    HW110162   1.998   4.533   4.521
 2033WAT    HW210163   2.127   4.483   4.459
 2033WAT    LP110164   2.122   4.557   4.575
 2033WAT    LP210165   2.085   4.449   4.585
 2034WAT     OW10166   5.471   4.950   4.134
 2034WAT    HW110167   5.506   4.992   4.056
 2034WAT    HW210168   5.547   4.938   4.191
 2034WAT    LP110169   5.423   4.990   4.165
 2034WAT    LP210170   5.443   4.888   4.118
 2035WAT     OW10171   1.430   6.617   0.595
 2035WAT    HW110172   1.377   6.687   0.632
 2035WAT    HW210173   1.508   6.660   0.560
 2035WAT    LP110174   1.447   6.570   0.644
 2035WAT    LP210175   1.395   6.584   0.544
 2036WAT     OW10176   1.237   1.707   3.639
 2036WAT    HW110177   1.156   1.734   3.684
 2036WAT    HW210178   1.282   1.650   3.701
 2036WAT    LP110179   1.222   1.673   3.580
 2036WAT    LP210180   1.276   1.763   3.624
 2037WAT     OW10181   4.621   6.219   1.263
 2037WAT    HW110182   4.618   6.171   1.180
 2037WAT    HW210183   4.699   6.274   1.255
 2037WAT    LP110184   4.564   6.258   1.272
 2037WAT    LP210185   4.627   6.175   1.317
 2038WAT     OW10186   0.419   2.550   4.134
 2038WAT    HW110187   0.352   2.594   4.082
 2038WAT    HW210188   0.502   2.575   4.093
 2038WAT    LP110189   0.417   2.572   4.201
 2038WAT    LP210190   0.411   2.481   4.132
 2039WAT     OW10191   2.082   6.327   4.062
 2039WAT    HW110192   2.120   6.399   4.112
 2039WAT    HW210193   1.999   6.308   4.106
 2039WAT    LP110194   2.071   6.347   3.996
 2039WAT    LP210195   2.124   6.271   4.063
 2040WAT     OW10196   6.704   0.733   2.229
 2040WAT    HW110197   6.704   0.643   2.261
 2040WAT    HW210198   6.641   0.779   2.285
 2040WAT    LP110199   6.768   0.762   2.234
 2040WAT    LP210200   6.683   0.736   2.162
 2041WAT     OW10201   6.254   0.187   6.031
 2041WAT    HW110202   6.214   0.274   6.032
 2041WAT    HW210203   6.290   0.178   5.943
 2041WAT    LP110204   6.304   0.183   6.080
 2041WAT    LP210205   6.206   0.138   6.044
 2042WAT     OW10206   6.207   5.084   5.239
 2042WAT    HW110207   6.211   4.999   5.284
 2042WAT    HW210208   6.202   5.062   5.146
 2042WAT    LP110209   6.149   5.119   5.259
 2042WAT    LP210210   6.264   5.122   5.253
 2043WAT     OW10211   5.711   1.490   0.629
 2043WAT    HW110212   5.665   1.538   0.560
 2043WAT    HW210213   5.702   1.545   0.707
 2043WAT    LP110214   5.682   1.427   0.639
 2043WAT    LP210215   5.779   1.481   0.613
 2044WAT     OW10216   5.250   1.132   1.387
 2044WAT    HW110217   5.311   1.152   1.315
 2044WAT    HW210218   5.165   1.164   1.356
 2044WAT    LP110219   5.248   1.063   1.399
 2044WAT    LP210220   5.269   1.165   1.445
 2045WAT     OW10221   3.289   2.698   1.952
 2045WAT    HW110222   3.203   2.659   1.967
 2045WAT    HW210223   3.273   2.793   1.950
 2045WAT    LP110224   3.334   2.682   2.003
 2045WAT    LP210225   3.315   2.677   1.890
 2046WAT     OW10226   6.340   0.702   4.723
 2046WAT    HW110227   6.367   0.768   4.786
 2046WAT    HW210228   6.328   0.622   4.775
 2046WAT    LP110229   6.280   0.720   4.692
 2046WAT    LP210230   6.389   0.692   4.674
 2047WAT     OW10231   4.220   2.970   5.583
 2047WAT    HW110232   4.280   2.944   5.513
 2047WAT    HW210233   4.153   3.023   5.538
 2047WAT    LP110234   4.191   2.914   5.613
 2047WAT    LP210235   4.253   3.008   5.631
 2048WAT     OW10236   1.525   6.328   5.845
 2048WAT    HW110237   1.513   6.259   5.780
 2048WAT    HW210238   1.598   6.297   5.899
 2048WAT    LP110239   1.541   6.389   5.814
 2048WAT    LP210240   1.467   6.336   5.884
 2049WAT     OW10241   6.759   3.798   1.049
 2049WAT    HW110242   6.840   3.747   1.046
 2049WAT    HW210243   6.689   3.734   1.040
 2049WAT    LP110244   6.754   3.832   1.110
 2049WAT    LP210245   6.757   3.845   0.997
 2050WAT     OW10246   4.769   5.930   2.874
 2050WAT    HW110247   4.710   5.955   2.803
 2050WAT    HW210248   4.857   5.948   2.840
 2050WAT    LP110249   4.757   5.968   2.931
 2050WAT    LP210250   4.762   5.862   2.889
 2051WAT     OW10251   4.063   3.962   1.635
 2051WAT    HW110252   3.988   3.935   1.687
 2051WAT    HW210253   4.086   3.885   1.583
 2051WAT    LP110254   4.046   4.016   1.593
 2051WAT    LP210255   4.116   3.981   1.677
 2052WAT     OW10256   4.251   0.037   4.264
 2052WAT    HW110257   4.270  -0.024   4.194
 2052WAT    HW210258   4.314   0.015   4.333
 2052WAT    LP110259   4.260   0.103   4.243
 2052WAT    LP210260   4.186   0.029   4.287
 2053WAT     OW10261   5.430   0.980   4.083
 2053WAT    HW110262   5.347   0.990   4.130
 2053WAT    HW210263   5.405   0.949   3.996
 2053WAT    LP110264   5.464   1.041   4.079
 2053WAT    LP210265   5.471   0.933   4.115
 2054WAT     OW10266   5.965   6.680   2.755
 2054WAT    HW110267   5.924   6.624   2.821
 2054WAT    HW210268   5.976   6.623   2.679
 2054WAT    LP110269   5.924   6.734   2.739
 2054WAT    LP210270   6.027   6.703   2.777
 2055WAT     OW10271   2.163   4.237   2.308
 2055WAT    HW110272   2.228   4.307   2.318
 2055WAT    HW210273   2.079   4.278   2.328
 2055WAT    LP110274   2.164   4.211   2.243
 2055WAT    LP210275   2.176   4.185   2.354
 2056WAT     OW10276   6.781   5.825   0.984
 2056WAT    HW110277   6.759   5.782   0.901
 2056WAT    HW210278   6.867   5.791   1.007
 2056WAT    LP110279   6.783   5.895   0.975
 2056WAT    LP210280   6.734   5.810   1.033
 2057WAT     OW10281   4.262   3.015   5.855
 2057WAT    HW110282   4.232   2.999   5.765
 2057WAT    HW210283   4.335   2.954   5.867
 2057WAT    LP110284   4.284   3.081   5.861
 2057WAT    LP210285   4.211   3.003   5.901
 2058WAT     OW10286   2.435   3.991   6.546
 2058WAT    HW110287   2.355   3.945   6.570
 2058WAT    HW210288   2.409   4.083   6.538
 2058WAT    LP110289   2.483   3.983   6.597
 2058WAT    LP210290   2.461   3.967   6.486
 2059WAT     OW10291   0.400   4.702   4.142
 2059WAT    HW110292   0.442   4.617   4.155
 2059WAT    HW210293   0.389   4.709   4.048
 2059WAT    LP110294   0.338   4.704   4.175
 2059WAT    LP210295   0.441   4.753   4.166
 2060WAT     OW10296   3.754   4.769   3.118
 2060WAT    HW110297   3.735   4.707   3.188
 2060WAT    HW210298   3.840   4.744   3.087
 2060WAT    LP110299   3.706   4.764   3.067
 2060WAT    LP210300   3.754   4.835   3.143
 2061WAT     OW10301   2.060   5.117   1.457
 2061WAT    HW110302   2.082   5.179   1.387
 2061WAT    HW210303   1.971   5.142   1.483
 2061WAT    LP110304   2.061   5.051   1.434
 2061WAT    LP210305   2.104   5.124   1.511
 2062WAT     OW10306   5.752   5.839   4.397
 2062WAT    HW110307   5.685   5.903   4.374
 2062WAT    HW210308   5.704   5.771   4.444
 2062WAT    LP110309   5.782   5.812   4.340
 2062WAT    LP210310   5.801   5.867   4.438
 2063WAT     OW10311   2.554   4.873   4.626
 2063WAT    HW110312   2.500   4.842   4.553
 2063WAT    HW210313   2.513   4.955   4.653
 2063WAT    LP110314   2.554   4.827   4.678
 2063WAT    LP210315   2.620   4.884   4.604
 2064WAT     OW10316   0.602   4.331   1.924
 2064WAT    HW110317   0.696   4.351   1.930
 2064WAT    HW210318   0.560   4.396   1.979
 2064WAT    LP110319   0.581   4.336   1.857
 2064WAT    LP210320   0.589   4.266   1.947
 2065WAT     OW10321   3.144   0.804   1.458
 2065WAT    HW110322   3.198   0.760   1.392
 2065WAT    HW210323   3.141   0.742   1.531
 2065WAT    LP110324   3.174   0.864   1.478
 2065WAT    LP210325   3.080   0.816   1.434
 2066WAT     OW10326   5.928   6.249   5.772
 2066WAT    HW110327   5.958   6.202   5.850
 2066WAT    HW210328   5.872   6.186   5.726
 2066WAT    LP110329   5.891   6.306   5.790
 2066WAT    LP210330   5.982   6.268   5.732
 2067WAT     OW10331   1.543   4.654   0.684
 2067WAT    HW110332   1.569   4.651   0.776
 2067WAT    HW210333   1.560   4.744   0.657
 2067WAT    LP110334   1.581   4.609   0.646
 2067WAT    LP210335   1.475   4.638   0.677
 2068WAT     OW10336   3.129   6.434   5.384
 2068WAT    HW110337   3.153   6.389   5.466
 2068WAT    HW210338   3.199   6.410   5.323
 2068WAT    LP110339   3.067   6.411   5.361
 2068WAT    LP210340   3.127   6.503   5.394
 2069WAT     OW10341   6.037   4.829   2.722
 2069WAT    HW110342   5.966   4.817   2.785
 2069WAT    HW210343   6.109   4.865   2.773
 2069WAT    LP110344   6.056   4.769   2.692
 2069WAT    LP210345   6.018   4.874   2.672
 2070WAT     OW10346   2.336   6.596   3.596
 2070WAT    HW110347   2.425   6.567   3.617
 2070WAT    HW210348   2.319   6.667   3.659
 2070WAT    LP110349   2.333   6.620   3.531
 2070WAT    LP210350   2.291   6.544   3.605
 2071WAT     OW10351   4.374   3.473   0.935
 2071WAT    HW110352   4.326   3.556   0.933
 2071WAT    HW210353   4.381   3.453   1.029
 2071WAT    LP110354   4.338   3.423   0.902
 2071WAT    LP210355   4.437   3.479   0.906
 2072WAT     OW10356   4.546   2.312   1.382
 2072WAT    HW110357   4.627   2.336   1.335
 2072WAT    HW210358   4.555   2.218   1.398
 2072WAT    LP110359   4.541   2.347   1.442
 2072WAT    LP210360   4.490   2.326   1.342
 2073WAT     OW10361   2.682   4.408   0.884
 2073WAT    HW110362   2.643   4.495   0.883
 2073WAT    HW210363   2.654   4.369   0.967
 2073WAT    LP110364   2.658   4.370   0.830
 2073WAT    LP210365   2.752   4.412   0.880
 2074WAT     OW10366   2.579   0.263   3.706
 2074WAT    HW110367   2.537   0.344   3.676
 2074WAT    HW210368   2.631   0.234   3.631
 2074WAT    LP110369   2.620   0.276   3.761
 2074WAT    LP210370   2.532   0.215   3.723
 2075WAT     OW10371   1.506   4.093   1.879
 2075WAT    HW110372   1.503   4.021   1.816
 2075WAT    HW210373   1.453   4.162   1.839
 2075WAT    LP110374   1.479   4.074   1.941
 2075WAT    LP210375   1.572   4.115   1.888
 2076WAT     OW10376   2.689   5.601   5.172
 2076WAT    HW110377   2.712   5.614   5.080
 2076WAT    HW210378   2.757   5.542   5.206
 2076WAT    LP110379   2.689   5.662   5.207
 2076WAT    LP210380   2.626   5.571   5.178
 2077WAT     OW10381   2.440   4.853   6.064
 2077WAT    HW110382   2.425   4.935   6.018
 2077WAT    HW210383   2.379   4.855   6.138
 2077WAT    LP110384   2.426   4.798   6.022
 2077WAT    LP210385   2.506   4.849   6.087
 2078WAT     OW10386   3.723   6.662   6.017
 2078WAT    HW110387   3.715   6.746   6.061
 2078WAT    HW210388   3.633   6.633   6.004
 2078WAT    LP110389   3.756   6.669   5.956
 2078WAT    LP210390   3.758   6.616   6.058
 2079WAT     OW10391   2.635   4.058   2.420
 2079WAT    HW110392   2.648   3.967   2.449
 2079WAT    HW210393   2.541   4.065   2.406
 2079WAT    LP110394   2.656   4.103   2.470
 2079WAT    LP210395   2.670   4.070   2.361
 2080WAT     OW10396   5.841   3.572   3.338
 2080WAT    HW110397   5.773   3.585   3.272
 2080WAT    HW210398   5.805   3.611   3.418
 2080WAT    LP110399   5.854   3.504   3.347
 2080WAT    LP210400   5.900   3.604   3.319
 2081WAT     OW10401   4.838   3.894   1.890
 2081WAT    HW110402   4.886   3.976   1.883
 2081WAT    HW210403   4.801   3.895   1.978
 2081WAT    LP110404   4.788   3.890   1.841
 2081WAT    LP210405   4.882   3.839   1.882
 2082WAT     OW10406   0.992   2.772   6.546
 2082WAT    HW110407   1.039   2.848   6.580
 2082WAT    HW210408   1.061   2.712   6.517
 2082WAT    LP110409   0.954   2.743   6.597
 2082WAT    LP210410   0.951   2.790   6.493
 2083WAT     OW10411   6.480   0.111   1.153
 2083WAT    HW110412   6.546   0.163   1.106
 2083WAT    HW210413   6.514   0.021   1.149
 2083WAT    LP110414   6.474   0.133   1.219
 2083WAT    LP210415   6.418   0.115   1.121
 2084WAT     OW10416   2.213   0.411   2.965
 2084WAT    HW110417   2.276   0.359   2.913
 2084WAT    HW210418   2.211   0.496   2.921
 2084WAT    LP110419   2.150   0.381   2.964
 2084WAT    LP210420   2.235   0.417   3.031
 2085WAT     OW10421   2.297   2.312   5.758
 2085WAT    HW110422   2.391   2.327   5.747
 2085WAT    HW210423   2.257   2.396   5.736
 2085WAT    LP110424   2.275   2.262   5.714
 2085WAT    LP210425   2.282   2.293   5.823
 2086WAT     OW10426   4.860   6.162   5.523
 2086WAT    HW110427   4.935   6.110   5.550
 2086WAT    HW210428   4.785   6.120   5.566
 2086WAT    LP110429   4.866   6.228   5.544
 2086WAT    LP210430   4.852   6.160   5.453
 2087WAT     OW10431   5.157   4.104   0.610
 2087WAT    HW110432   5.177   4.014   0.637
 2087WAT    HW210433   5.063   4.102   0.591
 2087WAT    LP110434   5.171   4.149   0.661
 2087WAT    LP210435   5.193   4.121   0.553
 2088WAT     OW10436   2.050   1.705   5.502
 2088WAT    HW110437   2.059   1.612   5.524
 2088WAT    HW210438   2.090   1.750   5.576
 2088WAT    LP110439   2.083   1.720   5.443
 2088WAT    LP210440   1.982   1.723   5.496
 2089WAT     OW10441   0.277   2.670   0.753
 2089WAT    HW110442   0.218   2.630   0.689
 2089WAT    HW210443   0.345   2.712   0.700
 2089WAT    LP110444   0.243   2.718   0.791
 2089WAT    LP210445   0.304   2.622   0.795
 2090WAT     OW10446   3.851   4.668   0.568
 2090WAT    HW110447   3.785   4.614   0.525
 2090WAT    HW210448   3.811   4.693   0.651
 2090WAT    LP110449   3.910   4.632   0.578
 2090WAT    LP210450   3.865   4.725   0.529
 2091WAT     OW10451   4.734   0.890   3.042
 2091WAT    HW110452   4.701   0.977   3.019
 2091WAT    HW210453   4.769   0.855   2.960
 2091WAT    LP110454   4.785   0.896   3.090
 2091WAT    LP210455   4.683   0.850   3.066
 2092WAT     OW10456   4.772   2.428   4.982
 2092WAT    HW110457   4.835   2.371   5.027
 2092WAT    HW210458   4.808   2.516   4.991
 2092WAT    LP110459   4.767   2.410   4.914
 2092WAT    LP210460   4.709   2.424   5.012
 2093WAT     OW10461   3.664   3.761   4.733
 2093WAT    HW110462   3.647   3.684   4.787
 2093WAT    HW210463   3.589   3.767   4.675
 2093WAT    LP110464   3.669   3.818   4.773
 2093WAT    LP210465   3.723   3.753   4.696
 2094WAT     OW10466   4.435   4.108   0.693
 2094WAT    HW110467   4.424   4.190   0.742
 2094WAT    HW210468   4.528   4.086   0.704
 2094WAT    LP110469   4.394   4.058   0.720
 2094WAT    LP210470   4.420   4.118   0.626
 2095WAT     OW10471   5.621   0.221   5.582
 2095WAT    HW110472   5.593   0.311   5.564
 2095WAT    HW210473   5.664   0.193   5.502
 2095WAT    LP110474   5.665   0.220   5.636
 2095WAT    LP210475   5.566   0.181   5.596
 2096WAT     OW10476   6.685   2.077   5.102
 2096WAT    HW110477   6.593   2.106   5.099
 2096WAT    HW210478   6.681   1.989   5.139
 2096WAT    LP110479   6.712   2.076   5.037
 2096WAT    LP210480   6.723   2.120   5.142
 2097WAT     OW10481   6.332   1.032   6.314
 2097WAT    HW110482   6.322   1.119   6.353
 2097WAT    HW210483   6.361   1.048   6.224
 2097WAT    LP110484   6.379   0.994   6.349
 2097WAT    LP210485   6.270   0.998   6.314
 2098WAT     OW10486   2.661   2.895   5.408
 2098WAT    HW110487   2.690   2.986   5.409
 2098WAT    HW210488   2.709   2.855   5.336
 2098WAT    LP110489   2.676   2.863   5.469
 2098WAT    LP210490   2.592   2.891   5.397
 2099WAT     OW10491   4.353   4.592   6.504
 2099WAT    HW110492   4.357   4.576   6.598
 2099WAT    HW210493   4.389   4.512   6.465
 2099WAT    LP110494   4.287   4.601   6.483
 2099WAT    LP210495   4.392   4.647   6.486
 2100WAT     OW10496   2.800   4.953   5.932
 2100WAT    HW110497   2.824   4.977   5.843
 2100WAT    HW210498   2.738   4.881   5.921
 2100WAT    LP110499   2.856   4.932   5.968
 2100WAT    LP210500   2.770   5.007   5.965
 2101WAT     OW10501   6.325   5.820   2.734
 2101WAT    HW110502   6.337   5.733   2.771
 2101WAT    HW210503   6.403   5.835   2.681
 2101WAT    LP110504   6.267   5.823   2.695
 2101WAT    LP210505   6.320   5.868   2.785
 2102WAT     OW10506   1.753   5.024   1.831
 2102WAT    HW110507   1.751   4.989   1.741
 2102WAT    HW210508   1.845   5.039   1.849
 2102WAT    LP110509   1.717   5.084   1.834
 2102WAT    LP210510   1.725   4.978   1.876
 2103WAT     OW10511   0.315   4.163   2.082
 2103WAT    HW110512   0.256   4.091   2.108
 2103WAT    HW210513   0.395   4.119   2.055
 2103WAT    LP110514   0.287   4.199   2.029
 2103WAT    LP210515   0.327   4.206   2.135
 2104WAT     OW10516   2.573   4.044   2.020
 2104WAT    HW110517   2.509   3.974   2.012
 2104WAT    HW210518   2.638   4.010   2.082
 2104WAT    LP110519   2.603   4.058   1.958
 2104WAT    LP210520   2.543   4.102   2.045
 2105WAT     OW10521   3.336   3.123   3.306
 2105WAT    HW110522   3.334   3.036   3.346
 2105WAT    HW210523   3.271   3.119   3.236
 2105WAT    LP110524   3.319   3.172   3.353
 2105WAT    LP210525   3.400   3.137   3.280
 2106WAT     OW10526   4.900   2.360   3.372
 2106WAT    HW110527   4.937   2.272   3.381
 2106WAT    HW210528   4.861   2.360   3.285
 2106WAT    LP110529   4.850   2.370   3.421
 2106WAT    LP210530   4.949   2.409   3.378
 2107WAT     OW10531   1.749   2.794   4.580
 2107WAT    HW110532   1.658   2.764   4.568
 2107WAT    HW210533   1.758   2.804   4.675
 2107WAT    LP110534   1.794   2.746   4.556
 2107WAT    LP210535   1.759   2.854   4.547
 2108WAT     OW10536   3.458   0.194   1.296
 2108WAT    HW110537   3.449   0.134   1.370
 2108WAT    HW210538   3.372   0.236   1.288
 2108WAT    LP110539   3.508   0.242   1.309
 2108WAT    LP210540   3.474   0.159   1.238
 2109WAT     OW10541   0.778   5.679   4.447
 2109WAT    HW110542   0.683   5.681   4.447
 2109WAT    HW210543   0.801   5.597   4.402
 2109WAT    LP110544   0.804   5.734   4.412
 2109WAT    LP210545   0.803   5.679   4.512
 2110WAT     OW10546   0.077   3.975   5.024
 2110WAT    HW110547   0.063   4.039   4.954
 2110WAT    HW210548   0.060   3.890   4.983
 2110WAT    LP110549   0.143   3.978   5.047
 2110WAT    LP210550   0.034   3.987   5.077
 2111WAT     OW10551   4.206   0.382   2.301
 2111WAT    HW110552   4.250   0.352   2.221
 2111WAT    HW210553   4.157   0.306   2.332
 2111WAT    LP110554   4.253   0.403   2.348
 2111WAT    LP210555   4.163   0.435   2.286
 2112WAT     OW10556   4.534   3.823   4.194
 2112WAT    HW110557   4.475   3.789   4.127
 2112WAT    HW210558   4.534   3.755   4.262
 2112WAT    LP110559   4.598   3.832   4.169
 2112WAT    LP210560   4.510   3.884   4.220
 2113WAT     OW10561   5.146   2.263   1.282
 2113WAT    HW110562   5.155   2.212   1.362
 2113WAT    HW210563   5.115   2.348   1.310
 2113WAT    LP110564   5.208   2.268   1.249
 2113WAT    LP210565   5.100   2.233   1.238
 2114WAT     OW10566   2.800   4.550   5.184
 2114WAT    HW110567   2.807   4.533   5.278
 2114WAT    HW210568   2.752   4.474   5.150
 2114WAT    LP110569   2.765   4.609   5.171
 2114WAT    LP210570   2.864   4.554   5.155
 2115WAT     OW10571   2.846   3.430   2.485
 2115WAT    HW110572   2.839   3.510   2.433
 2115WAT    HW210573   2.940   3.421   2.503
 2115WAT    LP110574   2.810   3.436   2.545
 2115WAT    LP210575   2.823   3.374   2.449
 2116WAT     OW10576   2.568   4.786   5.025
 2116WAT    HW110577   2.540   4.878   5.024
 2116WAT    HW210578   2.662   4.791   5.044
 2116WAT    LP110579   2.535   4.751   5.075
 2116WAT    LP210580   2.557   4.756   4.963
 2117WAT     OW10581   4.393   6.484   6.571
 2117WAT    HW110582   4.305   6.520   6.581
 2117WAT    HW210583   4.447   6.535   6.632
 2117WAT    LP110584   4.394   6.416   6.588
 2117WAT    LP210585   4.416   6.492   6.505
 2118WAT     OW10586   5.057   2.062   0.943
 2118WAT    HW110587   5.003   2.088   1.018
 2118WAT    HW210588   5.132   2.018   0.981
 2118WAT    LP110589   5.021   2.018   0.901
 2118WAT    LP210590   5.077   2.118   0.906
 2119WAT     OW10591   4.380   0.087   0.312
 2119WAT    HW110592   4.297   0.043   0.292
 2119WAT    HW210593   4.392   0.074   0.406
 2119WAT    LP110594   4.432   0.057   0.276
 2119WAT    LP210595   4.376   0.155   0.297
 2120WAT     OW10596   5.134   2.985   0.130
 2120WAT    HW110597   5.187   2.927   0.075
 2120WAT    HW210598   5.179   3.070   0.125
 2120WAT    LP110599   5.069   2.990   0.105
 2120WAT    LP210600   5.132   2.962   0.196
 2121WAT     OW10601   5.683   1.542   5.419
 2121WAT    HW110602   5.672   1.533   5.324
 2121WAT    HW210603   5.595   1.530   5.455
 2121WAT    LP110604   5.727   1.494   5.444
 2121WAT    LP210605   5.708   1.606   5.434
 2122WAT     OW10606   0.023   4.092   5.819
 2122WAT    HW110607   0.004   4.004   5.786
 2122WAT    HW210608  -0.058   4.121   5.859
 2122WAT    LP110609   0.074   4.090   5.867
 2122WAT    LP210610   0.042   4.135   5.767
 2123WAT     OW10611   4.432   0.538   2.915
 2123WAT    HW110612   4.492   0.463   2.913
 2123WAT    HW210613   4.467   0.596   2.983
 2123WAT    LP110614   4.431   0.570   2.853
 2123WAT    LP210615   4.367   0.517   2.932
 2124WAT     OW10616   6.275   4.855   4.758
 2124WAT    HW110617   6.283   4.770   4.801
 2124WAT    HW210618   6.239   4.834   4.671
 2124WAT    LP110619   6.231   4.897   4.793
 2124WAT    LP210620   6.337   4.886   4.752
 2125WAT     OW10621   1.644   0.055   3.980
 2125WAT    HW110622   1.558   0.056   3.937
 2125WAT    HW210623   1.705   0.031   3.910
 2125WAT    LP110624   1.659   0.119   4.005
 2125WAT    LP210625   1.646   0.008   4.032
 2126WAT     OW10626   0.900   3.079   3.761
 2126WAT    HW110627   0.927   3.170   3.772
 2126WAT    HW210628   0.830   3.067   3.825
 2126WAT    LP110629   0.876   3.068   3.696
 2126WAT    LP210630   0.953   3.035   3.773
 2127WAT     OW10631   5.830   2.739   5.975
 2127WAT    HW110632   5.889   2.685   6.028
 2127WAT    HW210633   5.830   2.824   6.018
 2127WAT    LP110634   5.854   2.745   5.909
 2127WAT    LP210635   5.766   2.711   5.974
 2128WAT     OW10636   2.754   4.850   3.511
 2128WAT    HW110637   2.784   4.893   3.431
 2128WAT    HW210638   2.680   4.796   3.482
 2128WAT    LP110639   2.805   4.810   3.538
 2128WAT    LP210640   2.733   4.897   3.558
 2129WAT     OW10641   0.225   1.885   4.456
 2129WAT    HW110642   0.153   1.949   4.463
 2129WAT    HW210643   0.203   1.817   4.519
 2129WAT    LP110644   0.229   1.859   4.392
 2129WAT    LP210645   0.286   1.915   4.473
 2130WAT     OW10646   4.067   2.617   5.495
 2130WAT    HW110647   4.005   2.664   5.551
 2130WAT    HW210648   4.041   2.640   5.405
 2130WAT    LP110649   4.133   2.638   5.507
 2130WAT    LP210650   4.063   2.548   5.504
 2131WAT     OW10651   3.928   5.576   2.212
 2131WAT    HW110652   3.850   5.522   2.197
 2131WAT    HW210653   4.001   5.515   2.204
 2131WAT    LP110654   3.932   5.627   2.165
 2131WAT    LP210655   3.926   5.603   2.276
 2132WAT     OW10656   4.023   4.356   6.234
 2132WAT    HW110657   4.016   4.290   6.303
 2132WAT    HW210658   4.056   4.434   6.279
 2132WAT    LP110659   4.068   4.335   6.184
 2132WAT    LP210660   3.960   4.369   6.206
 2133WAT     OW10661   1.258   1.902   4.113
 2133WAT    HW110662   1.314   1.901   4.035
 2133WAT    HW210663   1.315   1.934   4.183
 2133WAT    LP110664   1.203   1.944   4.104
 2133WAT    LP210665   1.236   1.837   4.128
 2134WAT     OW10666   2.196   1.816   5.709
 2134WAT    HW110667   2.193   1.912   5.700
 2134WAT    HW210668   2.200   1.801   5.803
 2134WAT    LP110669   2.139   1.787   5.681
 2134WAT    LP210670   2.253   1.791   5.678
 2135WAT     OW10671   6.485   3.796   0.209
 2135WAT    HW110672   6.445   3.866   0.158
 2135WAT    HW210673   6.553   3.760   0.150
 2135WAT    LP110674   6.514   3.821   0.267
 2135WAT    LP210675   6.438   3.747   0.225
 2136WAT     OW10676   6.727   2.070   2.686
 2136WAT    HW110677   6.732   1.976   2.673
 2136WAT    HW210678   6.714   2.081   2.780
 2136WAT    LP110679   6.786   2.102   2.665
 2136WAT    LP210680   6.673   2.097   2.650
 2137WAT     OW10681   0.928   4.463   1.290
 2137WAT    HW110682   0.872   4.427   1.220
 2137WAT    HW210683   0.915   4.557   1.284
 2137WAT    LP110684   0.908   4.438   1.352
 2137WAT    LP210685   0.995   4.446   1.279
 2138WAT     OW10686   1.383   2.272   2.020
 2138WAT    HW110687   1.330   2.298   2.095
 2138WAT    HW210688   1.374   2.344   1.958
 2138WAT    LP110689   1.450   2.263   2.038
 2138WAT    LP210690   1.358   2.212   1.992
 2139WAT     OW10691   6.521   2.544   2.766
 2139WAT    HW110692   6.550   2.575   2.680
 2139WAT    HW210693   6.495   2.623   2.813
 2139WAT    LP110694   6.466   2.501   2.759
 2139WAT    LP210695   6.572   2.511   2.800
 2140WAT     OW10696   6.196   2.855   1.196
 2140WAT    HW110697   6.230   2.787   1.253
 2140WAT    HW210698   6.101   2.842   1.197
 2140WAT    LP110699   6.212   2.919   1.222
 2140WAT    LP210700   6.221   2.849   1.132
 2141WAT     OW10701   0.008   2.038   4.517
 2141WAT    HW110702  -0.068   2.050   4.460
 2141WAT    HW210703  -0.029   2.003   4.598
 2141WAT    LP110704   0.054   1.994   4.489
 2141WAT    LP210705   0.039   2.100   4.529
 2142WAT     OW10706   2.407   4.532   4.392
 2142WAT    HW110707   2.409   4.497   4.481
 2142WAT    HW210708   2.327   4.496   4.353
 2142WAT    LP110709   2.405   4.602   4.393
 2142WAT    LP210710   2.463   4.512   4.356
 2143WAT     OW10711   6.089   2.588   2.329
 2143WAT    HW110712   6.184   2.587   2.313
 2143WAT    HW210713   6.063   2.496   2.316
 2143WAT    LP110714   6.075   2.609   2.394
 2143WAT    LP210715   6.056   2.629   2.283
 2144WAT     OW10716   6.294   0.030   0.662
 2144WAT    HW110717   6.341   0.113   0.673
 2144WAT    HW210718   6.328  -0.006   0.581
 2144WAT    LP110719   6.308  -0.012   0.716
 2144WAT    LP210720   6.225   0.041   0.658
 2145WAT     OW10721   2.055   2.522   4.315
 2145WAT    HW110722   2.006   2.534   4.396
 2145WAT    HW210723   1.990   2.533   4.245
 2145WAT    LP110724   2.106   2.569   4.309
 2145WAT    LP210725   2.083   2.457   4.312
 2146WAT     OW10726   5.688   3.632   2.444
 2146WAT    HW110727   5.725   3.571   2.508
 2146WAT    HW210728   5.670   3.578   2.367
 2146WAT    LP110729   5.629   3.661   2.468
 2146WAT    LP210730   5.735   3.682   2.429
 2147WAT     OW10731   4.475   2.173   4.377
 2147WAT    HW110732   4.442   2.158   4.289
 2147WAT    HW210733   4.517   2.258   4.373
 2147WAT    LP110734   4.422   2.173   4.423
 2147WAT    LP210735   4.521   2.123   4.395
 2148WAT     OW10736   5.360   5.382   2.486
 2148WAT    HW110737   5.393   5.292   2.479
 2148WAT    HW210738   5.340   5.393   2.579
 2148WAT    LP110739   5.409   5.428   2.465
 2148WAT    LP210740   5.303   5.390   2.447
 2149WAT     OW10741   0.330   2.949   2.065
 2149WAT    HW110742   0.403   2.897   2.097
 2149WAT    HW210743   0.370   3.021   2.017
 2149WAT    LP110744   0.289   2.911   2.022
 2149WAT    LP210745   0.291   2.973   2.118
 2150WAT     OW10746   2.315   0.016   1.385
 2150WAT    HW110747   2.356  -0.053   1.333
 2150WAT    HW210748   2.352   0.005   1.473
 2150WAT    LP110749   2.330   0.079   1.359
 2150WAT    LP210750   2.245   0.007   1.387
 2151WAT     OW10751   2.364   2.933   4.702
 2151WAT    HW110752   2.317   2.902   4.780
 2151WAT    HW210753   2.307   2.910   4.629
 2151WAT    LP110754   2.373   3.003   4.706
 2151WAT    LP210755   2.426   2.902   4.697
 2152WAT     OW10756   1.703   0.866   5.380
 2152WAT    HW110757   1.681   0.774   5.367
 2152WAT    HW210758   1.642   0.896   5.448
 2152WAT    LP110759   1.769   0.873   5.402
 2152WAT    LP210760   1.694   0.902   5.321
 2153WAT     OW10761   0.164   6.137   3.924
 2153WAT    HW110762   0.113   6.166   4.000
 2153WAT    HW210763   0.251   6.119   3.960
 2153WAT    LP110764   0.136   6.078   3.897
 2153WAT    LP210765   0.167   6.186   3.875
 2154WAT     OW10766   6.646   0.259   0.752
 2154WAT    HW110767   6.695   0.322   0.699
 2154WAT    HW210768   6.554   0.277   0.734
 2154WAT    LP110769   6.663   0.194   0.734
 2154WAT    LP210770   6.660   0.268   0.820
 2155WAT     OW10771   1.703   5.477   0.373
 2155WAT    HW110772   1.633   5.418   0.345
 2155WAT    HW210773   1.658   5.555   0.404
 2155WAT    LP110774   1.741   5.448   0.424
 2155WAT    LP210775   1.745   5.492   0.319
 2156WAT     OW10776   2.070   5.646   0.487
 2156WAT    HW110777   2.025   5.712   0.435
 2156WAT    HW210778   2.007   5.623   0.555
 2156WAT    LP110779   2.086   5.590   0.448
 2156WAT    LP210780   2.128   5.673   0.515
 2157WAT     OW10781   1.108   4.222   0.495
 2157WAT    HW110782   1.174   4.184   0.553
 2157WAT    HW210783   1.158   4.277   0.434
 2157WAT    LP110784   1.074   4.172   0.460
 2157WAT    LP210785   1.063   4.261   0.531
 2158WAT     OW10786   3.251   2.873   4.311
 2158WAT    HW110787   3.301   2.793   4.327
 2158WAT    HW210788   3.259   2.889   4.217
 2158WAT    LP110789   3.184   2.864   4.329
 2158WAT    LP210790   3.278   2.926   4.348
 2159WAT     OW10791   4.175   5.295   4.451
 2159WAT    HW110792   4.206   5.338   4.372
 2159WAT    HW210793   4.089   5.260   4.427
 2159WAT    LP110794   4.219   5.244   4.470
 2159WAT    LP210795   4.170   5.341   4.504
 2160WAT     OW10796   0.577   1.825   0.342
 2160WAT    HW110797   0.639   1.776   0.290
 2160WAT    HW210798   0.582   1.915   0.309
 2160WAT    LP110799   0.512   1.800   0.334
 2160WAT    LP210800   0.594   1.823   0.410
 2161WAT     OW10801   5.690   3.413   0.669
 2161WAT    HW110802   5.665   3.501   0.641
 2161WAT    HW210803   5.780   3.423   0.699
 2161WAT    LP110804   5.649   3.391   0.721
 2161WAT    LP210805   5.686   3.368   0.616
 2162WAT     OW10806   5.726   4.605   2.552
 2162WAT    HW110807   5.753   4.568   2.637
 2162WAT    HW210808   5.634   4.582   2.544
 2162WAT    LP110809   5.735   4.674   2.552
 2162WAT    LP210810   5.763   4.577   2.500
 2163WAT     OW10811   1.465   4.208   6.266
 2163WAT    HW110812   1.501   4.164   6.189
 2163WAT    HW210813   1.468   4.141   6.335
 2163WAT    LP110814   1.503   4.264   6.284
 2163WAT    LP210815   1.399   4.228   6.255
 2164WAT     OW10816   3.346   6.450   6.178
 2164WAT    HW110817   3.352   6.482   6.269
 2164WAT    HW210818   3.256   6.418   6.171
 2164WAT    LP110819   3.357   6.502   6.133
 2164WAT    LP210820   3.391   6.398   6.167
 2165WAT     OW10821   3.681   4.654   3.587
 2165WAT    HW110822   3.620   4.726   3.600
 2165WAT    HW210823   3.768   4.694   3.598
 2165WAT    LP110824   3.671   4.603   3.634
 2165WAT    LP210825   3.675   4.627   3.522
 2166WAT     OW10826   6.690   5.267   2.704
 2166WAT    HW110827   6.661   5.331   2.640
 2166WAT    HW210828   6.777   5.298   2.730
 2166WAT    LP110829   6.647   5.266   2.759
 2166WAT    LP210830   6.694   5.203   2.676
 2167WAT     OW10831   6.083   4.632   4.293
 2167WAT    HW110832   6.160   4.647   4.238
 2167WAT    HW210833   6.019   4.593   4.234
 2167WAT    LP110834   6.098   4.588   4.345
 2167WAT    LP210835   6.059   4.692   4.319
 2168WAT     OW10836   3.104   3.074   1.496
 2168WAT    HW110837   3.020   3.030   1.502
 2168WAT    HW210838   3.116   3.092   1.403
 2168WAT    LP110839   3.103   3.134   1.533
 2168WAT    LP210840   3.155   3.033   1.521
 2169WAT     OW10841   6.168   2.757   2.904
 2169WAT    HW110842   6.262   2.768   2.892
 2169WAT    HW210843   6.159   2.674   2.950
 2169WAT    LP110844   6.141   2.809   2.941
 2169WAT    LP210845   6.135   2.754   2.841
 2170WAT     OW10846   4.911   3.182   4.062
 2170WAT    HW110847   4.875   3.241   3.996
 2170WAT    HW210848   4.853   3.106   4.059
 2170WAT    LP110849   4.976   3.164   4.047
 2170WAT    LP210850   4.909   3.212   4.126
 2171WAT     OW10851   6.241   5.455   0.400
 2171WAT    HW110852   6.336   5.451   0.409
 2171WAT    HW210853   6.215   5.364   0.382
 2171WAT    LP110854   6.211   5.477   0.459
 2171WAT    LP210855   6.222   5.497   0.347
 2172WAT     OW10856   6.677   2.977   5.062
 2172WAT    HW110857   6.753   3.029   5.036
 2172WAT    HW210858   6.638   2.949   4.979
 2172WAT    LP110859   6.697   2.921   5.100
 2172WAT    LP210860   6.632   3.015   5.099
 2173WAT     OW10861   1.990   4.304   0.881
 2173WAT    HW110862   1.916   4.330   0.827
 2173WAT    HW210863   1.988   4.208   0.880
 2173WAT    LP110864   2.050   4.327   0.854
 2173WAT    LP210865   1.983   4.328   0.946
 2174WAT     OW10866   6.187   2.769   4.067
 2174WAT    HW110867   6.267   2.771   4.120
 2174WAT    HW210868   6.157   2.860   4.068
 2174WAT    LP110869   6.201   2.748   4.002
 2174WAT    LP210870   6.139   2.727   4.095
 2175WAT     OW10871   2.013   5.076   1.883
 2175WAT    HW110872   2.082   5.082   1.818
 2175WAT    HW210873   2.028   5.151   1.941
 2175WAT    LP110874   1.950   5.081   1.853
 2175WAT    LP210875   2.017   5.016   1.919
 2176WAT     OW10876   5.265   3.776   2.185
 2176WAT    HW110877   5.244   3.720   2.111
 2176WAT    HW210878   5.347   3.819   2.159
 2176WAT    LP110879   5.215   3.824   2.196
 2176WAT    LP210880   5.275   3.738   2.243
 2177WAT     OW10881   3.465   6.568   2.769
 2177WAT    HW110882   3.516   6.500   2.812
 2177WAT    HW210883   3.394   6.588   2.830
 2177WAT    LP110884   3.504   6.625   2.758
 2177WAT    LP210885   3.439   6.545   2.708
 2178WAT     OW10886   0.970   1.281   5.481
 2178WAT    HW110887   0.978   1.282   5.385
 2178WAT    HW210888   1.050   1.238   5.511
 2178WAT    LP110889   0.966   1.346   5.506
 2178WAT    LP210890   0.913   1.244   5.500
 2179WAT     OW10891   5.316   2.884   3.857
 2179WAT    HW110892   5.232   2.864   3.815
 2179WAT    HW210893   5.299   2.876   3.950
 2179WAT    LP110894   5.364   2.838   3.836
 2179WAT    LP210895   5.337   2.949   3.841
 2180WAT     OW10896   1.602   1.012   2.065
 2180WAT    HW110897   1.624   1.101   2.094
 2180WAT    HW210898   1.681   0.961   2.082
 2180WAT    LP110899   1.548   0.987   2.101
 2180WAT    LP210900   1.587   1.012   1.996
 2181WAT     OW10901   1.192   3.460   1.750
 2181WAT    HW110902   1.113   3.407   1.747
 2181WAT    HW210903   1.198   3.490   1.841
 2181WAT    LP110904   1.248   3.422   1.733
 2181WAT    LP210905   1.187   3.515   1.707
 2182WAT     OW10906   6.544   0.408   4.131
 2182WAT    HW110907   6.541   0.417   4.226
 2182WAT    HW210908   6.468   0.456   4.099
 2182WAT    LP110909   6.603   0.435   4.105
 2182WAT    LP210910   6.540   0.340   4.113
 2183WAT     OW10911   3.117   3.801   5.672
 2183WAT    HW110912   3.093   3.803   5.579
 2183WAT    HW210913   3.048   3.750   5.714
 2183WAT    LP110914   3.180   3.770   5.680
 2183WAT    LP210915   3.120   3.866   5.698
 2184WAT     OW10916   0.109   4.076   0.058
 2184WAT    HW110917   0.183   4.137   0.065
 2184WAT    HW210918   0.140   4.008  -0.002
 2184WAT    LP110919   0.094   4.049   0.121
 2184WAT    LP210920   0.053   4.108   0.032
 2185WAT     OW10921   1.818   4.456   5.067
 2185WAT    HW110922   1.820   4.414   4.981
 2185WAT    HW210923   1.725   4.473   5.084
 2185WAT    LP110924   1.845   4.413   5.116
 2185WAT    LP210925   1.854   4.516   5.067
 2186WAT     OW10926   6.194   3.195   3.406
 2186WAT    HW110927   6.183   3.113   3.358
 2186WAT    HW210928   6.120   3.249   3.379
 2186WAT    LP110929   6.193   3.183   3.475
 2186WAT    LP210930   6.255   3.225   3.389
 2187WAT     OW10931   1.165   0.176   2.450
 2187WAT    HW110932   1.212   0.134   2.522
 2187WAT    HW210933   1.102   0.234   2.493
 2187WAT    LP110934   1.209   0.213   2.410
 2187WAT    LP210935   1.132   0.128   2.411
 2188WAT     OW10936   1.965   3.140   0.704
 2188WAT    HW110937   1.997   3.213   0.650
 2188WAT    HW210938   2.012   3.063   0.672
 2188WAT    LP110939   1.979   3.152   0.772
 2188WAT    LP210940   1.896   3.133   0.696
 2189WAT     OW10941   2.964   5.272   4.956
 2189WAT    HW110942   3.038   5.237   4.906
 2189WAT    HW210943   2.890   5.218   4.929
 2189WAT    LP110944   2.976   5.266   5.024
 2189WAT    LP210945   2.953   5.339   4.939
 2190WAT     OW10946   0.447   2.022   1.104
 2190WAT    HW110947   0.502   1.962   1.053
 2190WAT    HW210948   0.430   2.096   1.045
 2190WAT    LP110949   0.386   1.991   1.121
 2190WAT    LP210950   0.480   2.043   1.161
 2191WAT     OW10951   5.724   0.883   3.800
 2191WAT    HW110952   5.792   0.899   3.735
 2191WAT    HW210953   5.716   0.787   3.802
 2191WAT    LP110954   5.743   0.908   3.862
 2191WAT    LP210955   5.664   0.912   3.780
 2192WAT     OW10956   5.521   5.673   4.802
 2192WAT    HW110957   5.603   5.661   4.850
 2192WAT    HW210958   5.488   5.758   4.833
 2192WAT    LP110959   5.533   5.675   4.733
 2192WAT    LP210960   5.476   5.622   4.817
 2193WAT     OW10961   4.159   1.436   5.260
 2193WAT    HW110962   4.095   1.413   5.193
 2193WAT    HW210963   4.169   1.356   5.311
 2193WAT    LP110964   4.220   1.455   5.231
 2193WAT    LP210965   4.135   1.488   5.300
 2194WAT     OW10966   3.477   6.613   4.771
 2194WAT    HW110967   3.540   6.680   4.799
 2194WAT    HW210968   3.512   6.580   4.689
 2194WAT    LP110969   3.473   6.562   4.819
 2194WAT    LP210970   3.414   6.641   4.762
 2195WAT     OW10971   4.010   3.010   2.295
 2195WAT    HW110972   3.966   2.947   2.352
 2195WAT    HW210973   3.939   3.058   2.253
 2195WAT    LP110974   4.050   3.053   2.333
 2195WAT    LP210975   4.049   2.977   2.247
 2196WAT     OW10976   1.714   4.938   4.506
 2196WAT    HW110977   1.793   4.893   4.536
 2196WAT    HW210978   1.656   4.939   4.583
 2196WAT    LP110979   1.729   5.004   4.486
 2196WAT    LP210980   1.684   4.904   4.453
 2197WAT     OW10981   1.077   5.256   1.704
 2197WAT    HW110982   1.025   5.337   1.706
 2197WAT    HW210983   1.124   5.256   1.787
 2197WAT    LP110984   1.035   5.201   1.699
 2197WAT    LP210985   1.122   5.257   1.650
 2198WAT     OW10986   3.074   3.423   1.656
 2198WAT    HW110987   3.034   3.399   1.572
 2198WAT    HW210988   3.020   3.379   1.722
 2198WAT    LP110989   3.140   3.400   1.658
 2198WAT    LP210990   3.073   3.492   1.665
 2199WAT     OW10991   2.363   2.139   4.364
 2199WAT    HW110992   2.291   2.094   4.408
 2199WAT    HW210993   2.321   2.210   4.316
 2199WAT    LP110994   2.408   2.165   4.411
 2199WAT    LP210995   2.396   2.096   4.321
 2200WAT     OW10996   2.701   0.067   5.123
 2200WAT    HW110997   2.706   0.162   5.135
 2200WAT    HW210998   2.791   0.040   5.102
 2200WAT    LP110999   2.679   0.036   5.181
 2200WAT    LP211000   2.658   0.051   5.070
 2201WAT     OW11001   0.019   4.974   2.206
 2201WAT    HW111002  -0.057   4.959   2.261
 2201WAT    HW211003  -0.018   5.002   2.122
 2201WAT    LP111004   0.059   5.024   2.233
 2201WAT    LP211005   0.056   4.915   2.198
 2202WAT     OW11006   3.481   4.919   3.802
 2202WAT    HW111007   3.492   4.835   3.845
 2202WAT    HW211008   3.407   4.959   3.847
 2202WAT    LP111009   3.538   4.959   3.809
 2202WAT    LP211010   3.466   4.911   3.734
 2203WAT     OW11011   0.438   0.399   3.078
 2203WAT    HW111012   0.439   0.339   3.153
 2203WAT    HW211013   0.345   0.411   3.059
 2203WAT    LP111014   0.468   0.460   3.094
 2203WAT    LP211015   0.471   0.371   3.023
 2204WAT     OW11016   0.891   4.738   0.974
 2204WAT    HW111017   0.814   4.777   0.933
 2204WAT    HW211018   0.964   4.794   0.948
 2204WAT    LP111019   0.884   4.736   1.043
 2204WAT    LP211020   0.901   4.672   0.950
 2205WAT     OW11021   5.246   5.483   3.162
 2205WAT    HW111022   5.312   5.442   3.218
 2205WAT    HW211023   5.287   5.565   3.133
 2205WAT    LP111024   5.231   5.442   3.108
 2205WAT    LP211025   5.188   5.496   3.198
 2206WAT     OW11026   4.066   0.280   5.305
 2206WAT    HW111027   4.131   0.212   5.288
 2206WAT    HW211028   4.041   0.312   5.219
 2206WAT    LP111029   4.011   0.253   5.339
 2206WAT    LP211030   4.094   0.332   5.344
 2207WAT     OW11031   5.758   5.929   2.041
 2207WAT    HW111032   5.685   5.867   2.048
 2207WAT    HW211033   5.837   5.876   2.052
 2207WAT    LP111034   5.758   5.961   1.978
 2207WAT    LP211035   5.754   5.978   2.091
 2208WAT     OW11036   0.481   5.219   2.490
 2208WAT    HW111037   0.518   5.210   2.578
 2208WAT    HW211038   0.407   5.278   2.502
 2208WAT    LP111039   0.528   5.246   2.446
 2208WAT    LP211040   0.459   5.157   2.466
 2209WAT     OW11041   5.145   0.662   6.117
 2209WAT    HW111042   5.157   0.643   6.211
 2209WAT    HW211043   5.113   0.752   6.115
 2209WAT    LP111044   5.205   0.656   6.083
 2209WAT    LP211045   5.098   0.618   6.089
 2210WAT     OW11046   0.884   6.236   4.049
 2210WAT    HW111047   0.899   6.310   3.991
 2210WAT    HW211048   0.866   6.162   3.990
 2210WAT    LP111049   0.941   6.223   4.088
 2210WAT    LP211050   0.829   6.248   4.091
 2211WAT     OW11051   0.581   6.684   2.380
 2211WAT    HW111052   0.537   6.626   2.318
 2211WAT    HW211053   0.632   6.625   2.436
 2211WAT    LP111054   0.623   6.729   2.347
 2211WAT    LP211055   0.534   6.719   2.419
 2212WAT     OW11056   4.001   1.134   3.491
 2212WAT    HW111057   3.998   1.131   3.586
 2212WAT    HW211058   4.094   1.131   3.469
 2212WAT    LP111059   3.967   1.080   3.463
 2212WAT    LP211060   3.972   1.194   3.467
 2213WAT     OW11061   2.313   3.212   1.775
 2213WAT    HW111062   2.353   3.167   1.700
 2213WAT    HW211063   2.273   3.142   1.826
 2213WAT    LP111064   2.362   3.246   1.812
 2213WAT    LP211065   2.265   3.258   1.753
 2214WAT     OW11066   5.064   1.321   5.645
 2214WAT    HW111067   5.078   1.273   5.564
 2214WAT    HW211068   5.052   1.412   5.618
 2214WAT    LP111069   5.006   1.297   5.678
 2214WAT    LP211070   5.119   1.314   5.688
 2215WAT     OW11071   3.635   3.564   5.622
 2215WAT    HW111072   3.653   3.598   5.710
 2215WAT    HW211073   3.544   3.533   5.628
 2215WAT    LP111074   3.640   3.615   5.574
 2215WAT    LP211075   3.678   3.512   5.606
 2216WAT     OW11076   4.495   3.570   0.686
 2216WAT    HW111077   4.535   3.502   0.631
 2216WAT    HW211078   4.479   3.527   0.770
 2216WAT    LP111079   4.539   3.624   0.694
 2216WAT    LP211080   4.435   3.593   0.658
 2217WAT     OW11081   5.430   6.541   0.621
 2217WAT    HW111082   5.456   6.477   0.687
 2217WAT    HW211083   5.502   6.605   0.619
 2217WAT    LP111084   5.423   6.511   0.558
 2217WAT    LP211085   5.370   6.572   0.639
 2218WAT     OW11086   3.560   2.756   4.484
 2218WAT    HW111087   3.502   2.723   4.415
 2218WAT    HW211088   3.598   2.835   4.447
 2218WAT    LP111089   3.525   2.770   4.542
 2218WAT    LP211090   3.610   2.709   4.498
 2219WAT     OW11091   6.246   2.002   3.608
 2219WAT    HW111092   6.310   1.982   3.677
 2219WAT    HW211093   6.267   2.091   3.580
 2219WAT    LP111094   6.253   1.957   3.554
 2219WAT    LP211095   6.181   1.998   3.633
 2220WAT     OW11096   1.997   2.990   2.215
 2220WAT    HW111097   1.992   3.037   2.132
 2220WAT    HW211098   2.060   3.039   2.268
 2220WAT    LP111099   1.934   2.989   2.246
 2220WAT    LP211100   2.019   2.924   2.205
 2221WAT     OW11101   0.495   3.715   4.786
 2221WAT    HW111102   0.478   3.653   4.857
 2221WAT    HW211103   0.569   3.678   4.738
 2221WAT    LP111104   0.439   3.719   4.744
 2221WAT    LP211105   0.510   3.778   4.811
 2222WAT     OW11106   6.262   4.567   5.303
 2222WAT    HW111107   6.198   4.505   5.338
 2222WAT    HW211108   6.344   4.547   5.349
 2222WAT    LP111109   6.269   4.559   5.234
 2222WAT    LP211110   6.242   4.633   5.316
 2223WAT     OW11111   0.178   6.435   6.531
 2223WAT    HW111112   0.183   6.339   6.528
 2223WAT    HW211113   0.108   6.454   6.594
 2223WAT    LP111114   0.239   6.462   6.553
 2223WAT    LP211115   0.163   6.461   6.468
 2224WAT     OW11116   3.935   5.173   4.401
 2224WAT    HW111117   3.923   5.084   4.433
 2224WAT    HW211118   3.925   5.167   4.306
 2224WAT    LP111119   3.887   5.216   4.428
 2224WAT    LP211120   3.999   5.197   4.418
 2225WAT     OW11121   5.077   2.329   2.899
 2225WAT    HW111122   5.109   2.417   2.919
 2225WAT    HW211123   5.059   2.331   2.805
 2225WAT    LP111124   5.126   2.281   2.913
 2225WAT    LP211125   5.019   2.315   2.935
 2226WAT     OW11126   0.282   6.089   0.388
 2226WAT    HW111127   0.350   6.103   0.323
 2226WAT    HW211128   0.329   6.061   0.467
 2226WAT    LP111129   0.246   6.148   0.400
 2226WAT    LP211130   0.237   6.039   0.367
 2227WAT     OW11131   1.078   5.002   4.777
 2227WAT    HW111132   1.026   5.016   4.857
 2227WAT    HW211133   1.122   5.086   4.762
 2227WAT    LP111134   1.125   4.951   4.787
 2227WAT    LP211135   1.036   4.986   4.723
 2228WAT     OW11136   5.680   0.613   3.765
 2228WAT    HW111137   5.658   0.564   3.844
 2228WAT    HW211138   5.723   0.550   3.708
 2228WAT    LP111139   5.622   0.639   3.735
 2228WAT    LP211140   5.724   0.666   3.781
 2229WAT     OW11141   6.386   3.495   5.845
 2229WAT    HW111142   6.315   3.451   5.798
 2229WAT    HW211143   6.465   3.445   5.822
 2229WAT    LP111144   6.392   3.561   5.824
 2229WAT    LP211145   6.375   3.493   5.914
 2230WAT     OW11146   1.958   4.431   2.655
 2230WAT    HW111147   2.029   4.486   2.690
 2230WAT    HW211148   1.883   4.490   2.650
 2230WAT    LP111149   1.975   4.407   2.591
 2230WAT    LP211150   1.945   4.377   2.698
 2231WAT     OW11151   5.553   1.807   0.667
 2231WAT    HW111152   5.595   1.752   0.734
 2231WAT    HW211153   5.557   1.754   0.587
 2231WAT    LP111154   5.487   1.821   0.685
 2231WAT    LP211155   5.588   1.867   0.659
 2232WAT     OW11156   1.174   0.201   5.950
 2232WAT    HW111157   1.202   0.292   5.935
 2232WAT    HW211158   1.256   0.154   5.969
 2232WAT    LP111159   1.131   0.197   6.005
 2232WAT    LP211160   1.143   0.175   5.894
 2233WAT     OW11161   2.913   3.390   1.428
 2233WAT    HW111162   2.846   3.451   1.396
 2233WAT    HW211163   2.872   3.304   1.422
 2233WAT    LP111164   2.970   3.393   1.388
 2233WAT    LP211165   2.930   3.404   1.494
 2234WAT     OW11166   3.983   4.063   3.904
 2234WAT    HW111167   4.020   4.151   3.893
 2234WAT    HW211168   4.044   4.019   3.964
 2234WAT    LP111169   3.919   4.066   3.932
 2234WAT    LP211170   3.981   4.030   3.842
 2235WAT     OW11171   0.862   2.917   1.587
 2235WAT    HW111172   0.874   2.842   1.529
 2235WAT    HW211173   0.804   2.885   1.656
 2235WAT    LP111174   0.923   2.938   1.614
 2235WAT    LP211175   0.832   2.971   1.553
 2236WAT     OW11176   6.146   3.656   1.573
 2236WAT    HW111177   6.065   3.610   1.594
 2236WAT    HW211178   6.168   3.626   1.484
 2236WAT    LP111179   6.137   3.725   1.573
 2236WAT    LP211180   6.197   3.639   1.618
 2237WAT     OW11181   0.493   6.580   5.160
 2237WAT    HW111182   0.522   6.654   5.107
 2237WAT    HW211183   0.487   6.507   5.099
 2237WAT    LP111184   0.539   6.566   5.211
 2237WAT    LP211185   0.431   6.593   5.189
 2238WAT     OW11186   4.756   0.128   5.796
 2238WAT    HW111187   4.834   0.184   5.792
 2238WAT    HW211188   4.694   0.168   5.735
 2238WAT    LP111189   4.771   0.063   5.777
 2238WAT    LP211190   4.729   0.128   5.861
 2239WAT     OW11191   0.008   1.667   0.579
 2239WAT    HW111192   0.061   1.743   0.554
 2239WAT    HW211193  -0.054   1.701   0.644
 2239WAT    LP111194  -0.025   1.641   0.524
 2239WAT    LP211195   0.048   1.617   0.608
 2240WAT     OW11196   4.438   1.485   0.819
 2240WAT    HW111197   4.454   1.413   0.880
 2240WAT    HW211198   4.346   1.476   0.796
 2240WAT    LP111199   4.451   1.546   0.850
 2240WAT    LP211200   4.479   1.479   0.762
 2241WAT     OW11201   0.332   2.377   4.611
 2241WAT    HW111202   0.404   2.317   4.591
 2241WAT    HW211203   0.336   2.444   4.543
 2241WAT    LP111204   0.271   2.344   4.610
 2241WAT    LP211205   0.342   2.406   4.674
 2242WAT     OW11206   2.521   5.312   5.916
 2242WAT    HW111207   2.491   5.402   5.913
 2242WAT    HW211208   2.573   5.307   5.997
 2242WAT    LP111209   2.467   5.267   5.919
 2242WAT    LP211210   2.560   5.297   5.860
 2243WAT     OW11211   5.636   6.120   2.886
 2243WAT    HW111212   5.654   6.049   2.948
 2243WAT    HW211213   5.716   6.173   2.885
 2243WAT    LP111214   5.622   6.095   2.823
 2243WAT    LP211215   5.581   6.159   2.909
 2244WAT     OW11216   2.296   0.904   5.362
 2244WAT    HW111217   2.314   0.986   5.316
 2244WAT    HW211218   2.236   0.930   5.433
 2244WAT    LP111219   2.265   0.858   5.319
 2244WAT    LP211220   2.354   0.877   5.388
 2245WAT     OW11221   6.500   5.009   4.734
 2245WAT    HW111222   6.476   5.068   4.663
 2245WAT    HW211223   6.430   4.945   4.737
 2245WAT    LP111224   6.562   4.979   4.721
 2245WAT    LP211225   6.504   5.044   4.795
 2246WAT     OW11226   2.080   4.302   0.142
 2246WAT    HW111227   2.059   4.358   0.216
 2246WAT    HW211228   2.111   4.220   0.182
 2246WAT    LP111229   2.023   4.290   0.103
 2246WAT    LP211230   2.130   4.331   0.102
 2247WAT     OW11231   1.590   2.652   6.317
 2247WAT    HW111232   1.615   2.603   6.395
 2247WAT    HW211233   1.553   2.586   6.258
 2247WAT    LP111234   1.542   2.701   6.332
 2247WAT    LP211235   1.646   2.682   6.287
 2248WAT     OW11236   3.780   2.394   5.649
 2248WAT    HW111237   3.756   2.433   5.564
 2248WAT    HW211238   3.871   2.369   5.639
 2248WAT    LP111239   3.773   2.442   5.700
 2248WAT    LP211240   3.740   2.339   5.663
 2249WAT     OW11241   3.948   5.639   1.286
 2249WAT    HW111242   3.854   5.637   1.307
 2249WAT    HW211243   3.978   5.723   1.319
 2249WAT    LP111244   3.981   5.586   1.318
 2249WAT    LP211245   3.958   5.634   1.217
 2250WAT     OW11246   2.839   0.077   1.739
 2250WAT    HW111247   2.909   0.140   1.726
 2250WAT    HW211248   2.773   0.101   1.674
 2250WAT    LP111249   2.861   0.012   1.728
 2250WAT    LP211250   2.812   0.082   1.804
 2251WAT     OW11251   2.887   3.466   1.074
 2251WAT    HW111252   2.825   3.486   1.003
 2251WAT    HW211253   2.846   3.503   1.152
 2251WAT    LP111254   2.896   3.397   1.080
 2251WAT    LP211255   2.948   3.497   1.061
 2252WAT     OW11256   1.390   1.522   4.516
 2252WAT    HW111257   1.394   1.431   4.488
 2252WAT    HW211258   1.296   1.541   4.525
 2252WAT    LP111259   1.422   1.530   4.578
 2252WAT    LP211260   1.419   1.564   4.469
 2253WAT     OW11261   3.307   5.568   0.543
 2253WAT    HW111262   3.292   5.500   0.609
 2253WAT    HW211263   3.240   5.634   0.561
 2253WAT    LP111264   3.371   5.595   0.550
 2253WAT    LP211265   3.300   5.542   0.478
 2254WAT     OW11266   0.401   0.882   0.533
 2254WAT    HW111267   0.452   0.962   0.515
 2254WAT    HW211268   0.466   0.818   0.560
 2254WAT    LP111269   0.354   0.893   0.583
 2254WAT    LP211270   0.368   0.861   0.475
 2255WAT     OW11271   4.978   2.107   3.482
 2255WAT    HW111272   4.957   2.016   3.459
 2255WAT    HW211273   4.921   2.127   3.555
 2255WAT    LP111274   5.045   2.113   3.501
 2255WAT    LP211275   4.965   2.150   3.428
 2256WAT     OW11276   5.465   1.722   0.053
 2256WAT    HW111277   5.441   1.802   0.100
 2256WAT    HW211278   5.413   1.725  -0.027
 2256WAT    LP111279   5.533   1.721   0.038
 2256WAT    LP211280   5.448   1.665   0.091
 2257WAT     OW11281   5.609   1.217   0.974
 2257WAT    HW111282   5.596   1.225   0.880
 2257WAT    HW211283   5.665   1.140   0.984
 2257WAT    LP111284   5.642   1.274   0.999
 2257WAT    LP211285   5.548   1.208   1.007
 2258WAT     OW11286   4.289   2.374   1.304
 2258WAT    HW111287   4.272   2.324   1.224
 2258WAT    HW211288   4.381   2.357   1.324
 2258WAT    LP111289   4.279   2.442   1.293
 2258WAT    LP211290   4.248   2.352   1.357
 2259WAT     OW11291   4.865   1.319   1.996
 2259WAT    HW111292   4.910   1.322   1.912
 2259WAT    HW211293   4.839   1.227   2.006
 2259WAT    LP111294   4.907   1.338   2.048
 2259WAT    LP211295   4.808   1.360   1.995
 2260WAT     OW11296   0.291   1.385   2.797
 2260WAT    HW111297   0.198   1.367   2.781
 2260WAT    HW211298   0.294   1.419   2.886
 2260WAT    LP111299   0.329   1.327   2.791
 2260WAT    LP211300   0.315   1.433   2.752
 2261WAT     OW11301   2.592   1.161   5.792
 2261WAT    HW111302   2.664   1.108   5.827
 2261WAT    HW211303   2.526   1.097   5.766
 2261WAT    LP111304   2.567   1.204   5.841
 2261WAT    LP211305   2.614   1.198   5.737
 2262WAT     OW11306   2.373   0.096   6.416
 2262WAT    HW111307   2.369   0.181   6.459
 2262WAT    HW211308   2.375   0.116   6.323
 2262WAT    LP111309   2.430   0.061   6.436
 2262WAT    LP211310   2.316   0.058   6.432
 2263WAT     OW11311   1.043   5.295   5.966
 2263WAT    HW111312   1.084   5.313   5.882
 2263WAT    HW211313   1.060   5.374   6.018
 2263WAT    LP111314   0.975   5.284   5.959
 2263WAT    LP211315   1.073   5.239   5.996
 2264WAT     OW11316   3.041   0.135   1.142
 2264WAT    HW111317   2.972   0.200   1.131
 2264WAT    HW211318   3.104   0.176   1.201
 2264WAT    LP111319   3.015   0.076   1.171
 2264WAT    LP211320   3.071   0.119   1.081
 2265WAT     OW11321   4.873   1.741   2.946
 2265WAT    HW111322   4.848   1.832   2.933
 2265WAT    HW211323   4.914   1.715   2.864
 2265WAT    LP111324   4.917   1.734   3.000
 2265WAT    LP211325   4.816   1.701   2.959
 2266WAT     OW11326   5.551   0.869   1.241
 2266WAT    HW111327   5.622   0.837   1.297
 2266WAT    HW211328   5.589   0.945   1.196
 2266WAT    LP111329   5.533   0.820   1.195
 2266WAT    LP211330   5.496   0.888   1.279
 2267WAT     OW11331   2.925   4.471   1.144
 2267WAT    HW111332   2.985   4.439   1.077
 2267WAT    HW211333   2.947   4.421   1.222
 2267WAT    LP111334   2.935   4.540   1.155
 2267WAT    LP211335   2.859   4.460   1.125
 2268WAT     OW11336   5.320   2.278   2.426
 2268WAT    HW111337   5.376   2.356   2.430
 2268WAT    HW211338   5.234   2.312   2.403
 2268WAT    LP111339   5.343   2.234   2.377
 2268WAT    LP211340   5.318   2.245   2.488
 2269WAT     OW11341   5.477   1.016   3.413
 2269WAT    HW111342   5.473   1.096   3.362
 2269WAT    HW211343   5.397   0.968   3.390
 2269WAT    LP111344   5.533   0.978   3.396
 2269WAT    LP211345   5.478   1.030   3.482
 2270WAT     OW11346   1.425   1.352   2.054
 2270WAT    HW111347   1.509   1.340   2.099
 2270WAT    HW211348   1.378   1.270   2.071
 2270WAT    LP111349   1.390   1.406   2.081
 2270WAT    LP211350   1.435   1.361   1.986
 2271WAT     OW11351   1.138   1.632   4.529
 2271WAT    HW111352   1.054   1.592   4.551
 2271WAT    HW211353   1.127   1.666   4.440
 2271WAT    LP111354   1.153   1.685   4.573
 2271WAT    LP211355   1.190   1.585   4.531
 2272WAT     OW11356   3.546   3.340   4.094
 2272WAT    HW111357   3.502   3.256   4.084
 2272WAT    HW211358   3.496   3.399   4.037
 2272WAT    LP111359   3.543   3.362   4.160
 2272WAT    LP211360   3.613   3.336   4.073
 2273WAT     OW11361   2.371   6.117   1.254
 2273WAT    HW111362   2.351   6.197   1.302
 2273WAT    HW211363   2.367   6.047   1.320
 2273WAT    LP111364   2.323   6.105   1.204
 2273WAT    LP211365   2.434   6.120   1.225
 2274WAT     OW11366   4.953   0.516   0.303
 2274WAT    HW111367   4.892   0.491   0.373
 2274WAT    HW211368   4.925   0.603   0.277
 2274WAT    LP111369   5.019   0.517   0.327
 2274WAT    LP211370   4.948   0.471   0.250
 2275WAT     OW11371   0.404   1.075   0.222
 2275WAT    HW111372   0.473   1.055   0.284
 2275WAT    HW211373   0.322   1.057   0.269
 2275WAT    LP111374   0.407   1.142   0.202
 2275WAT    LP211375   0.409   1.034   0.165
 2276WAT     OW11376   1.987   0.779   2.705
 2276WAT    HW111377   2.042   0.816   2.636
 2276WAT    HW211378   1.898   0.803   2.681
 2276WAT    LP111379   1.994   0.709   2.708
 2276WAT    LP211380   2.004   0.806   2.767
 2277WAT     OW11381   3.869   2.815   3.101
 2277WAT    HW111382   3.813   2.778   3.169
 2277WAT    HW211383   3.951   2.836   3.147
 2277WAT    LP111384   3.881   2.769   3.050
 2277WAT    LP211385   3.840   2.873   3.074
 2278WAT     OW11386   2.065   6.489   5.922
 2278WAT    HW111387   2.070   6.402   5.962
 2278WAT    HW211388   2.155   6.518   5.914
 2278WAT    LP111389   2.034   6.485   5.859
 2278WAT    LP211390   2.028   6.533   5.963
 2279WAT     OW11391   6.097   6.243   2.689
 2279WAT    HW111392   6.091   6.192   2.609
 2279WAT    HW211393   6.181   6.289   2.682
 2279WAT    LP111394   6.044   6.289   2.694
 2279WAT    LP211395   6.097   6.201   2.745
 2280WAT     OW11396   6.198   2.895   0.735
 2280WAT    HW111397   6.110   2.922   0.761
 2280WAT    HW211398   6.234   2.852   0.812
 2280WAT    LP111399   6.196   2.851   0.681
 2280WAT    LP211400   6.237   2.951   0.718
 2281WAT     OW11401   1.381   0.769   3.856
 2281WAT    HW111402   1.306   0.724   3.817
 2281WAT    HW211403   1.356   0.862   3.857
 2281WAT    LP111404   1.392   0.746   3.921
 2281WAT    LP211405   1.439   0.760   3.817
 2282WAT     OW11406   5.574   3.169   3.793
 2282WAT    HW111407   5.575   3.264   3.789
 2282WAT    HW211408   5.651   3.142   3.743
 2282WAT    LP111409   5.579   3.147   3.860
 2282WAT    LP211410   5.515   3.143   3.765
 2283WAT     OW11411   1.633   3.329   0.601
 2283WAT    HW111412   1.608   3.386   0.528
 2283WAT    HW211413   1.701   3.377   0.647
 2283WAT    LP111414   1.578   3.317   0.643
 2283WAT    LP211415   1.657   3.268   0.576
 2284WAT     OW11416   2.445   4.951   1.091
 2284WAT    HW111417   2.412   4.887   1.028
 2284WAT    HW211418   2.385   5.025   1.083
 2284WAT    LP111419   2.444   4.925   1.156
 2284WAT    LP211420   2.510   4.971   1.075
 2285WAT     OW11421   4.250   6.070   5.752
 2285WAT    HW111422   4.250   6.008   5.825
 2285WAT    HW211423   4.266   6.155   5.793
 2285WAT    LP111424   4.300   6.054   5.707
 2285WAT    LP211425   4.188   6.070   5.720
 2286WAT     OW11426   4.522   5.886   4.220
 2286WAT    HW111427   4.509   5.792   4.236
 2286WAT    HW211428   4.541   5.922   4.307
 2286WAT    LP111429   4.576   5.897   4.177
 2286WAT    LP211430   4.464   5.915   4.194
 2287WAT     OW11431   6.012   0.738   5.945
 2287WAT    HW111432   6.101   0.722   5.976
 2287WAT    HW211433   5.970   0.789   6.014
 2287WAT    LP111434   6.013   0.774   5.885
 2287WAT    LP211435   5.978   0.677   5.935
 2288WAT     OW11436   0.215   5.716   4.471
 2288WAT    HW111437   0.162   5.794   4.482
 2288WAT    HW211438   0.185   5.678   4.388
 2288WAT    LP111439   0.283   5.733   4.467
 2288WAT    LP211440   0.205   5.671   4.524
 2289WAT     OW11441   1.857   4.994   0.125
 2289WAT    HW111442   1.845   4.927   0.057
 2289WAT    HW211443   1.940   5.037   0.101
 2289WAT    LP111444   1.804   5.040   0.124
 2289WAT    LP211445   1.861   4.965   0.188
 2290WAT     OW11446   3.521   1.226   6.508
 2290WAT    HW111447   3.453   1.159   6.501
 2290WAT    HW211448   3.554   1.217   6.598
 2290WAT    LP111449   3.572   1.215   6.462
 2290WAT    LP211450   3.494   1.290   6.498
 2291WAT     OW11451   6.719   2.020   3.176
 2291WAT    HW111452   6.688   2.047   3.263
 2291WAT    HW211453   6.807   1.987   3.191
 2291WAT    LP111454   6.677   1.970   3.149
 2291WAT    LP211455   6.720   2.075   3.132
 2292WAT     OW11456   5.734   5.951   5.195
 2292WAT    HW111457   5.708   5.885   5.260
 2292WAT    HW211458   5.723   6.034   5.240
 2292WAT    LP111459   5.801   5.941   5.175
 2292WAT    LP211460   5.693   5.947   5.139
 2293WAT     OW11461   4.721   0.042   6.309
 2293WAT    HW111462   4.652  -0.021   6.331
 2293WAT    HW211463   4.705   0.064   6.217
 2293WAT    LP111464   4.715   0.099   6.349
 2293WAT    LP211465   4.784   0.014   6.317
 2294WAT     OW11466   2.493   3.738   5.010
 2294WAT    HW111467   2.537   3.662   5.049
 2294WAT    HW211468   2.543   3.813   5.042
 2294WAT    LP111469   2.494   3.734   4.940
 2294WAT    LP211470   2.426   3.742   5.032
 2295WAT     OW11471   5.239   0.374   3.953
 2295WAT    HW111472   5.234   0.331   4.038
 2295WAT    HW211473   5.235   0.468   3.973
 2295WAT    LP111474   5.300   0.359   3.921
 2295WAT    LP211475   5.186   0.355   3.912
 2296WAT     OW11476   2.580   2.538   4.086
 2296WAT    HW111477   2.561   2.601   4.016
 2296WAT    HW211478   2.563   2.452   4.046
 2296WAT    LP111479   2.647   2.543   4.106
 2296WAT    LP211480   2.538   2.549   4.140
 2297WAT     OW11481   2.593   4.289   1.125
 2297WAT    HW111482   2.661   4.223   1.132
 2297WAT    HW211483   2.592   4.331   1.211
 2297WAT    LP111484   2.609   4.336   1.075
 2297WAT    LP211485   2.531   4.260   1.111
 2298WAT     OW11486   5.917   0.269   1.719
 2298WAT    HW111487   5.967   0.189   1.703
 2298WAT    HW211488   5.853   0.272   1.648
 2298WAT    LP111489   5.884   0.267   1.781
 2298WAT    LP211490   5.959   0.326   1.717
 2299WAT     OW11491   0.373   0.629   6.599
 2299WAT    HW111492   0.349   0.710   6.643
 2299WAT    HW211493   0.409   0.574   6.668
 2299WAT    LP111494   0.316   0.598   6.571
 2299WAT    LP211495   0.420   0.640   6.549
 2300WAT     OW11496   0.709   3.114   1.461
 2300WAT    HW111497   0.760   3.046   1.505
 2300WAT    HW211498   0.775   3.177   1.431
 2300WAT    LP111499   0.674   3.087   1.406
 2300WAT    LP211500   0.664   3.144   1.505
 2301WAT     OW11501   1.326   6.173   4.831
 2301WAT    HW111502   1.331   6.237   4.902
 2301WAT    HW211503   1.236   6.181   4.798
 2301WAT    LP111504   1.372   6.189   4.781
 2301WAT    LP211505   1.338   6.109   4.855
 2302WAT     OW11506   5.716   3.837   4.977
 2302WAT    HW111507   5.787   3.854   5.039
 2302WAT    HW211508   5.736   3.893   4.901
 2302WAT    LP111509   5.715   3.770   4.958
 2302WAT    LP211510   5.654   3.855   5.004
 2303WAT     OW11511   4.996   5.389   5.651
 2303WAT    HW111512   5.072   5.426   5.697
 2303WAT    HW211513   4.935   5.366   5.721
 2303WAT    LP111514   4.967   5.436   5.608
 2303WAT    LP211515   5.015   5.332   5.615
 2304WAT     OW11516   5.788   4.136   3.938
 2304WAT    HW111517   5.838   4.115   3.860
 2304WAT    HW211518   5.735   4.058   3.954
 2304WAT    LP111519   5.830   4.149   3.992
 2304WAT    LP211520   5.746   4.192   3.927
 2305WAT     OW11521   2.131   5.534   1.591
 2305WAT    HW111522   2.160   5.514   1.502
 2305WAT    HW211523   2.182   5.475   1.647
 2305WAT    LP111524   2.144   5.601   1.607
 2305WAT    LP211525   2.062   5.521   1.598
 2306WAT     OW11526   2.628   0.209   1.313
 2306WAT    HW111527   2.625   0.131   1.257
 2306WAT    HW211528   2.541   0.249   1.303
 2306WAT    LP111529   2.638   0.191   1.380
 2306WAT    LP211530   2.678   0.253   1.293
 2307WAT     OW11531   6.160   3.997   0.445
 2307WAT    HW111532   6.237   4.033   0.488
 2307WAT    HW211533   6.171   3.902   0.450
 2307WAT    LP111534   6.101   4.017   0.477
 2307WAT    LP211535   6.158   4.018   0.378
 2308WAT     OW11536   3.434   1.149   4.285
 2308WAT    HW111537   3.400   1.131   4.372
 2308WAT    HW211538   3.373   1.107   4.225
 2308WAT    LP111539   3.436   1.218   4.273
 2308WAT    LP211540   3.498   1.123   4.277
 2309WAT     OW11541   5.812   2.950   5.249
 2309WAT    HW111542   5.900   2.941   5.286
 2309WAT    HW211543   5.792   2.864   5.212
 2309WAT    LP111544   5.766   2.966   5.299
 2309WAT    LP211545   5.811   2.999   5.199
 2310WAT     OW11546   0.622   6.129   5.464
 2310WAT    HW111547   0.542   6.098   5.506
 2310WAT    HW211548   0.592   6.170   5.383
 2310WAT    LP111549   0.655   6.175   5.504
 2310WAT    LP211550   0.665   6.075   5.450
 2311WAT     OW11551   5.529   6.078   3.438
 2311WAT    HW111552   5.612   6.061   3.392
 2311WAT    HW211553   5.500   5.991   3.467
 2311WAT    LP111554   5.539   6.120   3.492
 2311WAT    LP211555   5.482   6.106   3.394
 2312WAT     OW11556   2.406   0.452   1.694
 2312WAT    HW111557   2.394   0.369   1.742
 2312WAT    HW211558   2.318   0.475   1.666
 2312WAT    LP111559   2.432   0.501   1.736
 2312WAT    LP211560   2.448   0.442   1.639
 2313WAT     OW11561   4.244   3.557   6.090
 2313WAT    HW111562   4.212   3.469   6.112
 2313WAT    HW211563   4.165   3.611   6.088
 2313WAT    LP111564   4.288   3.580   6.139
 2313WAT    LP211565   4.276   3.557   6.028
 2314WAT     OW11566   2.784   2.571   2.938
 2314WAT    HW111567   2.749   2.629   3.005
 2314WAT    HW211568   2.710   2.516   2.912
 2314WAT    LP111569   2.809   2.607   2.884
 2314WAT    LP211570   2.836   2.531   2.965
 2315WAT     OW11571   3.616   4.617   1.807
 2315WAT    HW111572   3.642   4.540   1.857
 2315WAT    HW211573   3.537   4.649   1.851
 2315WAT    LP111574   3.666   4.666   1.808
 2315WAT    LP211575   3.602   4.600   1.740
 2316WAT     OW11576   3.699   5.770   5.471
 2316WAT    HW111577   3.775   5.826   5.487
 2316WAT    HW211578   3.623   5.827   5.482
 2316WAT    LP111579   3.701   5.744   5.406
 2316WAT    LP211580   3.697   5.717   5.517
 2317WAT     OW11581   5.063   2.326   6.099
 2317WAT    HW111582   4.999   2.305   6.167
 2317WAT    HW211583   5.148   2.308   6.138
 2317WAT    LP111584   5.053   2.286   6.042
 2317WAT    LP211585   5.058   2.393   6.080
 2318WAT     OW11586   0.053   5.699   3.441
 2318WAT    HW111587   0.009   5.760   3.381
 2318WAT    HW211588  -0.016   5.668   3.499
 2318WAT    LP111589   0.081   5.646   3.405
 2318WAT    LP211590   0.103   5.732   3.477
 2319WAT     OW11591   2.481   6.124   3.208
 2319WAT    HW111592   2.460   6.031   3.197
 2319WAT    HW211593   2.511   6.152   3.122
 2319WAT    LP111594   2.424   6.160   3.228
 2319WAT    LP211595   2.531   6.132   3.256
 2320WAT     OW11596   4.213   6.082   0.792
 2320WAT    HW111597   4.268   6.042   0.859
 2320WAT    HW211598   4.262   6.070   0.711
 2320WAT    LP111599   4.151   6.049   0.788
 2320WAT    LP211600   4.203   6.150   0.805
 2321WAT     OW11601   5.636   1.914   1.228
 2321WAT    HW111602   5.568   1.850   1.207
 2321WAT    HW211603   5.620   1.938   1.319
 2321WAT    LP111604   5.700   1.886   1.221
 2321WAT    LP211605   5.630   1.970   1.187
 2322WAT     OW11606   6.488   1.139   2.252
 2322WAT    HW111607   6.529   1.214   2.297
 2322WAT    HW211608   6.396   1.142   2.280
 2322WAT    LP111609   6.493   1.146   2.183
 2322WAT    LP211610   6.517   1.079   2.272
 2323WAT     OW11611   2.026   0.153   1.716
 2323WAT    HW111612   2.043   0.132   1.625
 2323WAT    HW211613   2.098   0.112   1.764
 2323WAT    LP111614   2.026   0.222   1.726
 2323WAT    LP211615   1.964   0.126   1.737
 2324WAT     OW11616   5.351   6.116   1.915
 2324WAT    HW111617   5.316   6.194   1.958
 2324WAT    HW211618   5.308   6.043   1.958
 2324WAT    LP111619   5.336   6.116   1.846
 2324WAT    LP211620   5.420   6.112   1.923
 2325WAT     OW11621   5.301   1.243   0.713
 2325WAT    HW111622   5.282   1.158   0.672
 2325WAT    HW211623   5.396   1.253   0.702
 2325WAT    LP111624   5.267   1.294   0.680
 2325WAT    LP211625   5.284   1.242   0.780
 2326WAT     OW11626   0.919   6.493   3.942
 2326WAT    HW111627   0.840   6.546   3.951
 2326WAT    HW211628   0.974   6.519   4.015
 2326WAT    LP111629   0.904   6.425   3.945
 2326WAT    LP211630   0.951   6.507   3.881
 2327WAT     OW11631   3.994   4.272   4.706
 2327WAT    HW111632   4.037   4.187   4.714
 2327WAT    HW211633   4.062   4.331   4.674
 2327WAT    LP111634   3.941   4.268   4.661
 2327WAT    LP211635   3.970   4.294   4.769
 2328WAT     OW11636   2.251   2.345   4.227
 2328WAT    HW111637   2.322   2.402   4.255
 2328WAT    HW211638   2.171   2.391   4.254
 2328WAT    LP111639   2.252   2.336   4.158
 2328WAT    LP211640   2.255   2.283   4.259
 2329WAT     OW11641   3.196   0.252   0.445
 2329WAT    HW111642   3.109   0.290   0.431
 2329WAT    HW211643   3.193   0.216   0.533
 2329WAT    LP111644   3.208   0.202   0.398
 2329WAT    LP211645   3.245   0.301   0.440
 2330WAT     OW11646   3.961   3.496   1.424
 2330WAT    HW111647   4.016   3.421   1.400
 2330WAT    HW211648   3.910   3.464   1.499
 2330WAT    LP111649   4.000   3.551   1.441
 2330WAT    LP211650   3.918   3.513   1.371
 2331WAT     OW11651   6.181   4.763   2.494
 2331WAT    HW111652   6.262   4.734   2.536
 2331WAT    HW211653   6.119   4.774   2.566
 2331WAT    LP111654   6.192   4.824   2.461
 2331WAT    LP211655   6.158   4.715   2.449
 2332WAT     OW11656   5.916   6.469   4.923
 2332WAT    HW111657   5.953   6.381   4.916
 2332WAT    HW211658   5.865   6.468   5.004
 2332WAT    LP111659   5.966   6.517   4.925
 2332WAT    LP211660   5.874   6.482   4.868
 2333WAT     OW11661   1.722   6.157   2.699
 2333WAT    HW111662   1.816   6.162   2.683
 2333WAT    HW211663   1.682   6.171   2.613
 2333WAT    LP111664   1.705   6.094   2.724
 2333WAT    LP211665   1.702   6.206   2.744
 2334WAT     OW11666   5.881   3.561   6.541
 2334WAT    HW111667   5.897   3.506   6.618
 2334WAT    HW211668   5.848   3.643   6.577
 2334WAT    LP111669   5.940   3.571   6.506
 2334WAT    LP211670   5.833   3.531   6.499
 2335WAT     OW11671   1.814   1.300   6.562
 2335WAT    HW111672   1.901   1.280   6.598
 2335WAT    HW211673   1.810   1.250   6.480
 2335WAT    LP111674   1.764   1.280   6.606
 2335WAT    LP211675   1.808   1.369   6.549
 2336WAT     OW11676   6.069   5.969   3.579
 2336WAT    HW111677   6.021   6.051   3.588
 2336WAT    HW211678   6.147   5.980   3.634
 2336WAT    LP111679   6.030   5.915   3.602
 2336WAT    LP211680   6.087   5.958   3.512
 2337WAT     OW11681   1.956   6.242   2.408
 2337WAT    HW111682   2.038   6.291   2.406
 2337WAT    HW211683   1.888   6.308   2.398
 2337WAT    LP111684   1.953   6.196   2.356
 2337WAT    LP211685   1.949   6.208   2.469
 2338WAT     OW11686   1.310   3.243   3.894
 2338WAT    HW111687   1.383   3.205   3.942
 2338WAT    HW211688   1.285   3.176   3.830
 2338WAT    LP111689   1.256   3.257   3.937
 2338WAT    LP211690   1.329   3.302   3.861
 2339WAT     OW11691   5.242   0.901   3.326
 2339WAT    HW111692   5.242   0.806   3.335
 2339WAT    HW211693   5.209   0.917   3.237
 2339WAT    LP111694   5.200   0.931   3.373
 2339WAT    LP211695   5.307   0.927   3.333
 2340WAT     OW11696   0.471   4.977   3.866
 2340WAT    HW111697   0.491   4.993   3.773
 2340WAT    HW211698   0.555   4.955   3.905
 2340WAT    LP111699   0.444   5.035   3.895
 2340WAT    LP211700   0.425   4.925   3.872
 2341WAT     OW11701   4.014   3.033   3.737
 2341WAT    HW111702   4.043   3.032   3.645
 2341WAT    HW211703   4.062   3.105   3.777
 2341WAT    LP111704   3.945   3.043   3.741
 2341WAT    LP211705   4.031   2.972   3.768
 2342WAT     OW11706   0.287   0.990   3.061
 2342WAT    HW111707   0.250   0.932   3.127
 2342WAT    HW211708   0.216   1.052   3.042
 2342WAT    LP111709   0.343   1.024   3.086
 2342WAT    LP211710   0.305   0.954   3.003
 2343WAT     OW11711   5.772   6.449   5.867
 2343WAT    HW111712   5.819   6.524   5.902
 2343WAT    HW211713   5.840   6.389   5.837
 2343WAT    LP111714   5.732   6.419   5.916
 2343WAT    LP211715   5.731   6.469   5.813
 2344WAT     OW11716   1.674   5.267   4.003
 2344WAT    HW111717   1.603   5.267   3.939
 2344WAT    HW211718   1.668   5.353   4.046
 2344WAT    LP111719   1.667   5.216   4.049
 2344WAT    LP211720   1.736   5.261   3.970
 2345WAT     OW11721   1.762   3.334   1.120
 2345WAT    HW111722   1.761   3.281   1.041
 2345WAT    HW211723   1.674   3.372   1.125
 2345WAT    LP111724   1.775   3.295   1.177
 2345WAT    LP211725   1.810   3.385   1.116
 2346WAT     OW11726   2.740   4.847   0.759
 2346WAT    HW111727   2.771   4.808   0.677
 2346WAT    HW211728   2.688   4.922   0.732
 2346WAT    LP111729   2.701   4.801   0.795
 2346WAT    LP211730   2.794   4.866   0.799
 2347WAT     OW11731   5.481   5.283   1.546
 2347WAT    HW111732   5.502   5.192   1.523
 2347WAT    HW211733   5.466   5.281   1.640
 2347WAT    LP111734   5.535   5.325   1.531
 2347WAT    LP211735   5.424   5.305   1.512
 2348WAT     OW11736   1.311   4.134   4.220
 2348WAT    HW111737   1.314   4.178   4.305
 2348WAT    HW211738   1.248   4.185   4.169
 2348WAT    LP111739   1.374   4.135   4.189
 2348WAT    LP211740   1.289   4.068   4.228
 2349WAT     OW11741   6.408   2.781   4.239
 2349WAT    HW111742   6.497   2.793   4.207
 2349WAT    HW211743   6.412   2.704   4.295
 2349WAT    LP111744   6.387   2.837   4.275
 2349WAT    LP211745   6.364   2.770   4.186
 2350WAT     OW11746   2.314   0.943   5.950
 2350WAT    HW111747   2.286   0.857   5.920
 2350WAT    HW211748   2.351   0.985   5.873
 2350WAT    LP111749   2.259   0.980   5.974
 2350WAT    LP211750   2.362   0.937   6.001
 2351WAT     OW11751   2.734   1.008   2.343
 2351WAT    HW111752   2.806   1.071   2.343
 2351WAT    HW211753   2.659   1.058   2.310
 2351WAT    LP111754   2.748   0.954   2.300
 2351WAT    LP211755   2.721   0.985   2.407
 2352WAT     OW11756   3.318   0.878   5.227
 2352WAT    HW111757   3.397   0.927   5.247
 2352WAT    HW211758   3.260   0.893   5.301
 2352WAT    LP111759   3.289   0.901   5.168
 2352WAT    LP211760   3.332   0.809   5.220
 2353WAT     OW11761   0.331   2.988   4.286
 2353WAT    HW111762   0.296   2.979   4.375
 2353WAT    HW211763   0.399   2.921   4.281
 2353WAT    LP111764   0.281   2.977   4.238
 2353WAT    LP211765   0.358   3.052   4.277
 2354WAT     OW11766   1.928   1.465   1.005
 2354WAT    HW111767   1.973   1.525   0.946
 2354WAT    HW211768   1.931   1.380   0.960
 2354WAT    LP111769   1.961   1.462   1.067
 2354WAT    LP211770   1.862   1.485   1.015
 2355WAT     OW11771   5.143   6.436   0.053
 2355WAT    HW111772   5.220   6.465   0.003
 2355WAT    HW211773   5.171   6.354   0.095
 2355WAT    LP111774   5.125   6.483   0.101
 2355WAT    LP211775   5.089   6.424   0.010
 2356WAT     OW11776   0.771   1.997   1.421
 2356WAT    HW111777   0.847   1.955   1.461
 2356WAT    HW211778   0.775   1.972   1.329
 2356WAT    LP111779   0.712   1.975   1.451
 2356WAT    LP211780   0.775   2.067   1.428
 2357WAT     OW11781   4.638   3.696   5.830
 2357WAT    HW111782   4.546   3.670   5.841
 2357WAT    HW211783   4.688   3.625   5.870
 2357WAT    LP111784   4.654   3.703   5.763
 2357WAT    LP211785   4.650   3.757   5.864
 2358WAT     OW11786   3.417   2.125   2.608
 2358WAT    HW111787   3.388   2.034   2.605
 2358WAT    HW211788   3.338   2.175   2.627
 2358WAT    LP111789   3.465   2.134   2.658
 2358WAT    LP211790   3.444   2.144   2.546
 2359WAT     OW11791   4.070   0.420   4.376
 2359WAT    HW111792   4.031   0.444   4.460
 2359WAT    HW211793   3.996   0.387   4.324
 2359WAT    LP111794   4.099   0.475   4.345
 2359WAT    LP211795   4.118   0.370   4.384
 2360WAT     OW11796   2.801   1.806   2.366
 2360WAT    HW111797   2.886   1.852   2.367
 2360WAT    HW211798   2.791   1.777   2.275
 2360WAT    LP111799   2.802   1.751   2.410
 2360WAT    LP211800   2.749   1.849   2.384
 2361WAT     OW11801   0.112   0.457   2.493
 2361WAT    HW111802   0.205   0.439   2.480
 2361WAT    HW211803   0.109   0.533   2.550
 2361WAT    LP111804   0.081   0.471   2.432
 2361WAT    LP211805   0.081   0.402   2.523
 2362WAT     OW11806   0.797   3.856   1.493
 2362WAT    HW111807   0.826   3.780   1.443
 2362WAT    HW211808   0.763   3.818   1.575
 2362WAT    LP111809   0.850   3.899   1.506
 2362WAT    LP211810   0.747   3.890   1.459
 2363WAT     OW11811   5.442   3.187   1.997
 2363WAT    HW111812   5.495   3.115   1.963
 2363WAT    HW211813   5.463   3.261   1.939
 2363WAT    LP111814   5.374   3.171   1.993
 2363WAT    LP211815   5.460   3.201   2.063
 2364WAT     OW11816   5.771   5.426   4.636
 2364WAT    HW111817   5.792   5.374   4.713
 2364WAT    HW211818   5.839   5.494   4.634
 2364WAT    LP111819   5.774   5.387   4.578
 2364WAT    LP211820   5.708   5.455   4.642
 2365WAT     OW11821   6.280   1.008   0.251
 2365WAT    HW111822   6.359   1.017   0.304
 2365WAT    HW211823   6.308   0.954   0.177
 2365WAT    LP111824   6.229   0.977   0.287
 2365WAT    LP211825   6.258   1.071   0.228
 2366WAT     OW11826   6.090   1.655   4.389
 2366WAT    HW111827   6.078   1.744   4.422
 2366WAT    HW211828   6.001   1.620   4.383
 2366WAT    LP111829   6.120   1.656   4.326
 2366WAT    LP211830   6.129   1.617   4.433
 2367WAT     OW11831   1.617   1.796   2.080
 2367WAT    HW111832   1.653   1.720   2.126
 2367WAT    HW211833   1.558   1.837   2.143
 2367WAT    LP111834   1.668   1.840   2.062
 2367WAT    LP211835   1.582   1.776   2.023
 2368WAT     OW11836   2.474   6.640   2.235
 2368WAT    HW111837   2.539   6.580   2.273
 2368WAT    HW211838   2.481   6.719   2.288
 2368WAT    LP111839   2.489   6.654   2.168
 2368WAT    LP211840   2.410   6.613   2.239
 2369WAT     OW11841   3.611   0.051   3.352
 2369WAT    HW111842   3.701   0.019   3.354
 2369WAT    HW211843   3.558  -0.022   3.382
 2369WAT    LP111844   3.603   0.106   3.395
 2369WAT    LP211845   3.593   0.070   3.287
 2370WAT     OW11846   0.186   4.127   6.045
 2370WAT    HW111847   0.140   4.094   6.122
 2370WAT    HW211848   0.130   4.102   5.971
 2370WAT    LP111849   0.194   4.196   6.048
 2370WAT    LP211850   0.249   4.096   6.039
 2371WAT     OW11851   3.595   5.451   2.694
 2371WAT    HW111852   3.558   5.465   2.607
 2371WAT    HW211853   3.587   5.357   2.709
 2371WAT    LP111854   3.662   5.471   2.696
 2371WAT    LP211855   3.559   5.487   2.743
 2372WAT     OW11856   1.303   4.649   1.042
 2372WAT    HW111857   1.240   4.592   0.998
 2372WAT    HW211858   1.269   4.737   1.030
 2372WAT    LP111859   1.307   4.633   1.110
 2372WAT    LP211860   1.367   4.643   1.013
 2373WAT     OW11861   3.952   1.744   1.481
 2373WAT    HW111862   4.004   1.780   1.409
 2373WAT    HW211863   4.004   1.669   1.512
 2373WAT    LP111864   3.944   1.791   1.532
 2373WAT    LP211865   3.890   1.723   1.458
 2374WAT     OW11866   6.230   6.586   0.907
 2374WAT    HW111867   6.253   6.609   0.817
 2374WAT    HW211868   6.224   6.669   0.952
 2374WAT    LP111869   6.169   6.552   0.909
 2374WAT    LP211870   6.280   6.545   0.935
 2375WAT     OW11871   3.367   6.398   3.144
 2375WAT    HW111872   3.445   6.386   3.089
 2375WAT    HW211873   3.387   6.347   3.223
 2375WAT    LP111874   3.358   6.465   3.159
 2375WAT    LP211875   3.310   6.372   3.112
 2376WAT     OW11876   2.941   3.708   4.884
 2376WAT    HW111877   2.929   3.719   4.979
 2376WAT    HW211878   2.963   3.616   4.873
 2376WAT    LP111879   2.882   3.724   4.850
 2376WAT    LP211880   2.993   3.749   4.861
 2377WAT     OW11881   6.458   3.458   3.941
 2377WAT    HW111882   6.500   3.520   4.000
 2377WAT    HW211883   6.524   3.437   3.875
 2377WAT    LP111884   6.438   3.400   3.976
 2377WAT    LP211885   6.401   3.487   3.911
 2378WAT     OW11886   5.486   0.003   4.254
 2378WAT    HW111887   5.455  -0.039   4.334
 2378WAT    HW211888   5.415  -0.008   4.191
 2378WAT    LP111889   5.498   0.071   4.265
 2378WAT    LP211890   5.545  -0.027   4.231
 2379WAT     OW11891   3.705   5.079   3.774
 2379WAT    HW111892   3.671   5.167   3.759
 2379WAT    HW211893   3.628   5.023   3.776
 2379WAT    LP111894   3.749   5.060   3.723
 2379WAT    LP211895   3.739   5.076   3.835
 2380WAT     OW11896   2.667   4.604   4.018
 2380WAT    HW111897   2.648   4.556   4.099
 2380WAT    HW211898   2.697   4.537   3.957
 2380WAT    LP111899   2.610   4.636   3.994
 2380WAT    LP211900   2.717   4.651   4.029
 2381WAT     OW11901   4.157   1.426   1.203
 2381WAT    HW111902   4.066   1.409   1.224
 2381WAT    HW211903   4.194   1.340   1.180
 2381WAT    LP111904   4.162   1.470   1.148
 2381WAT    LP211905   4.191   1.453   1.258
 2382WAT     OW11906   0.263   6.562   5.323
 2382WAT    HW111907   0.344   6.577   5.273
 2382WAT    HW211908   0.257   6.467   5.332
 2382WAT    LP111909   0.267   6.593   5.386
 2382WAT    LP211910   0.208   6.587   5.288
 2383WAT     OW11911   4.805   4.931   3.497
 2383WAT    HW111912   4.842   4.912   3.411
 2383WAT    HW211913   4.823   5.024   3.510
 2383WAT    LP111914   4.736   4.919   3.498
 2383WAT    LP211915   4.836   4.893   3.547
 2384WAT     OW11916   1.157   2.648   0.305
 2384WAT    HW111917   1.205   2.578   0.261
 2384WAT    HW211918   1.181   2.640   0.397
 2384WAT    LP111919   1.176   2.710   0.280
 2384WAT    LP211920   1.088   2.639   0.297
 2385WAT     OW11921   0.589   1.550   4.332
 2385WAT    HW111922   0.605   1.645   4.333
 2385WAT    HW211923   0.611   1.522   4.244
 2385WAT    LP111924   0.629   1.518   4.379
 2385WAT    LP211925   0.522   1.537   4.347
 2386WAT     OW11926   4.163   1.457   0.783
 2386WAT    HW111927   4.102   1.385   0.797
 2386WAT    HW211928   4.150   1.515   0.858
 2386WAT    LP111929   4.229   1.433   0.782
 2386WAT    LP211930   4.150   1.490   0.723
 2387WAT     OW11931   4.619   0.008   1.528
 2387WAT    HW111932   4.683  -0.056   1.559
 2387WAT    HW211933   4.609  -0.011   1.435
 2387WAT    LP111934   4.558   0.001   1.562
 2387WAT    LP211935   4.643   0.073   1.538
 2388WAT     OW11936   4.375   6.391   2.980
 2388WAT    HW111937   4.384   6.468   3.035
 2388WAT    HW211938   4.465   6.364   2.960
 2388WAT    LP111939   4.341   6.340   3.014
 2388WAT    LP211940   4.340   6.406   2.921
 2389WAT     OW11941   5.701   4.205   5.123
 2389WAT    HW111942   5.713   4.188   5.216
 2389WAT    HW211943   5.607   4.222   5.113
 2389WAT    LP111944   5.739   4.260   5.102
 2389WAT    LP211945   5.720   4.149   5.085
 2390WAT     OW11946   4.874   2.941   1.731
 2390WAT    HW111947   4.906   2.852   1.748
 2390WAT    HW211948   4.829   2.935   1.647
 2390WAT    LP111949   4.829   2.961   1.782
 2390WAT    LP211950   4.927   2.986   1.728
 2391WAT     OW11951   5.219   1.904   2.403
 2391WAT    HW111952   5.290   1.957   2.368
 2391WAT    HW211953   5.176   1.960   2.467
 2391WAT    LP111954   5.174   1.886   2.352
 2391WAT    LP211955   5.244   1.846   2.433
 2392WAT     OW11956   0.826   5.020   3.670
 2392WAT    HW111957   0.872   4.937   3.685
 2392WAT    HW211958   0.737   4.994   3.647
 2392WAT    LP111959   0.826   5.059   3.728
 2392WAT    LP211960   0.856   5.056   3.618
 2393WAT     OW11961   6.265   3.070   0.533
 2393WAT    HW111962   6.360   3.083   0.544
 2393WAT    HW211963   6.241   3.014   0.607
 2393WAT    LP111964   6.231   3.131   0.536
 2393WAT    LP211965   6.251   3.038   0.472
 2394WAT     OW11966   2.623   5.272   0.865
 2394WAT    HW111967   2.572   5.294   0.943
 2394WAT    HW211968   2.612   5.346   0.806
 2394WAT    LP111969   2.691   5.264   0.882
 2394WAT    LP211970   2.600   5.213   0.836
 2395WAT     OW11971   5.925   5.856   3.367
 2395WAT    HW111972   5.979   5.821   3.296
 2395WAT    HW211973   5.989   5.890   3.430
 2395WAT    LP111974   5.884   5.907   3.344
 2395WAT    LP211975   5.886   5.806   3.396
 2396WAT     OW11976   3.516   2.331   1.294
 2396WAT    HW111977   3.475   2.332   1.207
 2396WAT    HW211978   3.453   2.374   1.351
 2396WAT    LP111979   3.528   2.266   1.315
 2396WAT    LP211980   3.577   2.367   1.292
 2397WAT     OW11981   4.872   3.590   2.296
 2397WAT    HW111982   4.808   3.613   2.228
 2397WAT    HW211983   4.879   3.495   2.291
 2397WAT    LP111984   4.934   3.620   2.283
 2397WAT    LP211985   4.849   3.610   2.359
 2398WAT     OW11986   0.836   3.563   1.157
 2398WAT    HW111987   0.856   3.571   1.250
 2398WAT    HW211988   0.748   3.600   1.149
 2398WAT    LP111989   0.882   3.598   1.118
 2398WAT    LP211990   0.836   3.495   1.138
 2399WAT     OW11991   0.629   3.587   5.507
 2399WAT    HW111992   0.614   3.649   5.578
 2399WAT    HW211993   0.665   3.640   5.436
 2399WAT    LP111994   0.675   3.538   5.527
 2399WAT    LP211995   0.569   3.556   5.488
 2400WAT     OW11996   3.881   0.899   3.407
 2400WAT    HW111997   3.878   0.907   3.311
 2400WAT    HW211998   3.917   0.982   3.437
 2400WAT    LP111999   3.816   0.890   3.432
 2400WAT    LP212000   3.921   0.845   3.426
 2401WAT     OW12001   1.216   2.901   0.232
 2401WAT    HW112002   1.197   2.808   0.244
 2401WAT    HW212003   1.306   2.911   0.265
 2401WAT    LP112004   1.212   2.918   0.165
 2401WAT    LP212005   1.172   2.940   0.270
 2402WAT     OW12006   1.848   1.850   0.896
 2402WAT    HW112007   1.836   1.944   0.884
 2402WAT    HW212008   1.804   1.832   0.979
 2402WAT    LP112009   1.818   1.814   0.844
 2402WAT    LP212010   1.916   1.834   0.900
 2403WAT     OW12011   6.153   5.262   5.468
 2403WAT    HW112012   6.160   5.205   5.391
 2403WAT    HW212013   6.059   5.278   5.477
 2403WAT    LP112014   6.178   5.230   5.525
 2403WAT    LP212015   6.187   5.322   5.457
 2404WAT     OW12016   0.861   5.419   5.688
 2404WAT    HW112017   0.882   5.477   5.761
 2404WAT    HW212018   0.830   5.479   5.619
 2404WAT    LP112019   0.917   5.384   5.666
 2404WAT    LP212020   0.810   5.374   5.706
 2405WAT     OW12021   2.360   1.264   2.058
 2405WAT    HW112022   2.427   1.221   2.112
 2405WAT    HW212023   2.342   1.346   2.103
 2405WAT    LP112024   2.383   1.275   1.993
 2405WAT    LP212025   2.302   1.224   2.056
 2406WAT     OW12026   5.124   6.215   2.898
 2406WAT    HW112027   5.101   6.222   2.991
 2406WAT    HW212028   5.219   6.222   2.897
 2406WAT    LP112029   5.103   6.154   2.872
 2406WAT    LP212030   5.095   6.268   2.862
 2407WAT     OW12031   0.899   6.601   5.193
 2407WAT    HW112032   0.986   6.570   5.216
 2407WAT    HW212033   0.839   6.547   5.246
 2407WAT    LP112034   0.891   6.669   5.210
 2407WAT    LP212035   0.886   6.592   5.125
 2408WAT     OW12036   5.667   4.204   6.312
 2408WAT    HW112037   5.588   4.165   6.349
 2408WAT    HW212038   5.732   4.195   6.380
 2408WAT    LP112039   5.686   4.170   6.254
 2408WAT    LP212040   5.656   4.271   6.296
 2409WAT     OW12041   3.247   1.699   0.486
 2409WAT    HW112042   3.169   1.691   0.541
 2409WAT    HW212043   3.224   1.765   0.421
 2409WAT    LP112044   3.302   1.721   0.524
 2409WAT    LP212045   3.262   1.638   0.455
 2410WAT     OW12046   5.822   6.603   1.382
 2410WAT    HW112047   5.805   6.509   1.374
 2410WAT    HW212048   5.917   6.609   1.388
 2410WAT    LP112049   5.798   6.637   1.326
 2410WAT    LP212050   5.792   6.629   1.440
 2411WAT     OW12051   0.806   0.444   3.696
 2411WAT    HW112052   0.823   0.492   3.615
 2411WAT    HW212053   0.795   0.513   3.762
 2411WAT    LP112054   0.748   0.406   3.691
 2411WAT    LP212055   0.860   0.403   3.713
 2412WAT     OW12056   1.545   0.967   4.100
 2412WAT    HW112057   1.451   0.970   4.115
 2412WAT    HW212058   1.584   1.005   4.179
 2412WAT    LP112059   1.567   0.901   4.091
 2412WAT    LP212060   1.562   1.005   4.043
 2413WAT     OW12061   0.175   1.763   2.106
 2413WAT    HW112062   0.259   1.796   2.072
 2413WAT    HW212063   0.141   1.834   2.159
 2413WAT    LP112064   0.132   1.747   2.053
 2413WAT    LP212065   0.186   1.706   2.145
 2414WAT     OW12066   4.535   0.678   0.167
 2414WAT    HW112067   4.563   0.763   0.200
 2414WAT    HW212068   4.568   0.615   0.231
 2414WAT    LP112069   4.465   0.675   0.162
 2414WAT    LP212070   4.563   0.666   0.104
 2415WAT     OW12071   1.340   0.964   0.673
 2415WAT    HW112072   1.371   1.045   0.715
 2415WAT    HW212073   1.317   0.991   0.584
 2415WAT    LP112074   1.391   0.916   0.672
 2415WAT    LP212075   1.284   0.939   0.706
 2416WAT     OW12076   6.376   2.933   2.633
 2416WAT    HW112077   6.281   2.937   2.621
 2416WAT    HW212078   6.409   2.900   2.549
 2416WAT    LP112079   6.402   2.996   2.647
 2416WAT    LP212080   6.392   2.889   2.685
 2417WAT     OW12081   4.020   4.544   4.364
 2417WAT    HW112082   3.969   4.620   4.336
 2417WAT    HW212083   4.101   4.550   4.312
 2417WAT    LP112084   4.034   4.547   4.432
 2417WAT    LP212085   3.986   4.484   4.349
 2418WAT     OW12086   5.624   2.244   0.838
 2418WAT    HW112087   5.699   2.302   0.827
 2418WAT    HW212088   5.637   2.204   0.923
 2418WAT    LP112089   5.564   2.280   0.836
 2418WAT    LP212090   5.623   2.195   0.787
 2419WAT     OW12091   3.811   3.054   5.005
 2419WAT    HW112092   3.792   3.143   5.035
 2419WAT    HW212093   3.777   2.997   5.074
 2419WAT    LP112094   3.779   3.041   4.944
 2419WAT    LP212095   3.880   3.045   4.998
 2420WAT     OW12096   3.052   3.471   5.217
 2420WAT    HW112097   3.042   3.453   5.123
 2420WAT    HW212098   3.146   3.462   5.233
 2420WAT    LP112099   3.031   3.535   5.233
 2420WAT    LP212100   3.016   3.424   5.255
 2421WAT     OW12101   1.795   0.824   4.403
 2421WAT    HW112102   1.702   0.813   4.424
 2421WAT    HW212103   1.839   0.819   4.488
 2421WAT    LP112104   1.817   0.772   4.361
 2421WAT    LP212105   1.806   0.886   4.372
 2422WAT     OW12106   5.701   5.727   0.078
 2422WAT    HW112107   5.638   5.798   0.080
 2422WAT    HW212108   5.732   5.725  -0.012
 2422WAT    LP112109   5.754   5.739   0.122
 2422WAT    LP212110   5.671   5.666   0.094
 2423WAT     OW12111   4.593   0.320   2.902
 2423WAT    HW112112   4.539   0.246   2.928
 2423WAT    HW212113   4.668   0.317   2.961
 2423WAT    LP112114   4.614   0.313   2.836
 2423WAT    LP212115   4.558   0.380   2.910
 2424WAT     OW12116   6.682   1.080   6.604
 2424WAT    HW112117   6.759   1.024   6.596
 2424WAT    HW212118   6.611   1.028   6.565
 2424WAT    LP112119   6.668   1.094   6.671
 2424WAT    LP212120   6.691   1.140   6.569
 2425WAT     OW12121   3.549   1.546   1.782
 2425WAT    HW112122   3.592   1.585   1.706
 2425WAT    HW212123   3.511   1.465   1.749
 2425WAT    LP112124   3.596   1.532   1.832
 2425WAT    LP212125   3.500   1.588   1.807
 2426WAT     OW12126   0.793   4.579   2.197
 2426WAT    HW112127   0.814   4.552   2.287
 2426WAT    HW212128   0.802   4.674   2.198
 2426WAT    LP112129   0.838   4.551   2.152
 2426WAT    LP212130   0.728   4.561   2.180
 2427WAT     OW12131   3.969   6.283   2.449
 2427WAT    HW112132   3.882   6.259   2.418
 2427WAT    HW212133   4.019   6.299   2.368
 2427WAT    LP112134   3.967   6.341   2.488
 2427WAT    LP212135   3.998   6.231   2.485
 2428WAT     OW12136   6.779   2.599   1.351
 2428WAT    HW112137   6.786   2.510   1.386
 2428WAT    HW212138   6.830   2.652   1.412
 2428WAT    LP112139   6.805   2.603   1.287
 2428WAT    LP212140   6.712   2.620   1.351
 2429WAT     OW12141   5.085   2.417   2.356
 2429WAT    HW112142   5.001   2.397   2.314
 2429WAT    HW212143   5.127   2.479   2.298
 2429WAT    LP112144   5.074   2.445   2.419
 2429WAT    LP212145   5.123   2.359   2.363
 2430WAT     OW12146   1.891   1.334   1.582
 2430WAT    HW112147   1.959   1.378   1.634
 2430WAT    HW212148   1.940   1.289   1.513
 2430WAT    LP112149   1.856   1.288   1.621
 2430WAT    LP212150   1.847   1.381   1.555
 2431WAT     OW12151   3.058   3.242   3.766
 2431WAT    HW112152   2.966   3.242   3.793
 2431WAT    HW212153   3.103   3.290   3.835
 2431WAT    LP112154   3.082   3.176   3.762
 2431WAT    LP212155   3.065   3.274   3.704
 2432WAT     OW12156   3.281   2.390   4.995
 2432WAT    HW112157   3.190   2.386   4.967
 2432WAT    HW212158   3.280   2.449   5.070
 2432WAT    LP112159   3.305   2.327   5.014
 2432WAT    LP212160   3.322   2.416   4.944
 2433WAT     OW12161   6.082   1.604   2.686
 2433WAT    HW112162   6.142   1.610   2.612
 2433WAT    HW212163   6.138   1.581   2.760
 2433WAT    LP112164   6.050   1.665   2.697
 2433WAT    LP212165   6.034   1.554   2.675
 2434WAT     OW12166   1.589   1.441   1.228
 2434WAT    HW112167   1.620   1.354   1.206
 2434WAT    HW212168   1.496   1.440   1.208
 2434WAT    LP112169   1.600   1.454   1.296
 2434WAT    LP212170   1.622   1.490   1.190
 2435WAT     OW12171   1.039   1.912   2.094
 2435WAT    HW112172   1.125   1.952   2.080
 2435WAT    HW212173   1.022   1.862   2.014
 2435WAT    LP112174   1.040   1.870   2.150
 2435WAT    LP212175   0.990   1.962   2.103
 2436WAT     OW12176   4.216   5.701   4.727
 2436WAT    HW112177   4.134   5.748   4.740
 2436WAT    HW212178   4.190   5.609   4.719
 2436WAT    LP112179   4.248   5.722   4.668
 2436WAT    LP212180   4.259   5.710   4.781
 2437WAT     OW12181   1.524   3.314   6.175
 2437WAT    HW112182   1.541   3.353   6.089
 2437WAT    HW212183   1.606   3.325   6.223
 2437WAT    LP112184   1.472   3.349   6.207
 2437WAT    LP212185   1.507   3.247   6.169
 2438WAT     OW12186   5.617   2.117   4.541
 2438WAT    HW112187   5.624   2.133   4.635
 2438WAT    HW212188   5.524   2.130   4.522
 2438WAT    LP112189   5.656   2.163   4.505
 2438WAT    LP212190   5.636   2.052   4.525
 2439WAT     OW12191   6.530   3.140   0.557
 2439WAT    HW112192   6.524   3.220   0.505
 2439WAT    HW212193   6.599   3.089   0.515
 2439WAT    LP112194   6.547   3.155   0.624
 2439WAT    LP212195   6.469   3.105   0.556
 2440WAT     OW12196   2.305   0.588   6.129
 2440WAT    HW112197   2.264   0.523   6.186
 2440WAT    HW212198   2.296   0.551   6.041
 2440WAT    LP112199   2.271   0.650   6.134
 2440WAT    LP212200   2.372   0.597   6.146
 2441WAT     OW12201   6.091   5.770   3.154
 2441WAT    HW112202   6.139   5.689   3.168
 2441WAT    HW212203   6.157   5.839   3.163
 2441WAT    LP112204   6.062   5.772   3.090
 2441WAT    LP212205   6.041   5.778   3.203
 2442WAT     OW12206   0.032   0.814   0.202
 2442WAT    HW112207   0.049   0.854   0.116
 2442WAT    HW212208   0.009   0.724   0.181
 2442WAT    LP112209   0.089   0.817   0.242
 2442WAT    LP212210  -0.021   0.847   0.234
 2443WAT     OW12211   4.370   4.399   6.133
 2443WAT    HW112212   4.348   4.310   6.103
 2443WAT    HW212213   4.392   4.388   6.225
 2443WAT    LP112214   4.424   4.425   6.097
 2443WAT    LP212215   4.314   4.441   6.126
 2444WAT     OW12216   3.426   6.101   1.611
 2444WAT    HW112217   3.384   6.153   1.680
 2444WAT    HW212218   3.507   6.149   1.591
 2444WAT    LP112219   3.441   6.037   1.635
 2444WAT    LP212220   3.385   6.097   1.555
 2445WAT     OW12221   5.241   3.872   5.971
 2445WAT    HW112222   5.165   3.867   5.913
 2445WAT    HW212223   5.213   3.828   6.051
 2445WAT    LP112224   5.296   3.839   5.942
 2445WAT    LP212225   5.258   3.939   5.984
 2446WAT     OW12226   2.962   3.144   2.921
 2446WAT    HW112227   2.931   3.234   2.918
 2446WAT    HW212228   2.896   3.094   2.873
 2446WAT    LP112229   3.025   3.138   2.889
 2446WAT    LP212230   2.967   3.121   2.987
 2447WAT     OW12231   0.635   2.486   0.763
 2447WAT    HW112232   0.557   2.485   0.818
 2447WAT    HW212233   0.605   2.454   0.677
 2447WAT    LP112234   0.660   2.551   0.757
 2447WAT    LP212235   0.684   2.444   0.789
 2448WAT     OW12236   2.567   1.365   2.509
 2448WAT    HW112237   2.507   1.434   2.536
 2448WAT    HW212238   2.558   1.298   2.577
 2448WAT    LP112239   2.548   1.338   2.447
 2448WAT    LP212240   2.633   1.388   2.505
 2449WAT     OW12241   0.132   3.974   2.160
 2449WAT    HW112242   0.073   3.967   2.084
 2449WAT    HW212243   0.108   3.899   2.215
 2449WAT    LP112244   0.199   3.969   2.140
 2449WAT    LP212245   0.122   4.034   2.193
 2450WAT     OW12246   0.158   3.128   0.459
 2450WAT    HW112247   0.217   3.052   0.455
 2450WAT    HW212248   0.071   3.091   0.446
 2450WAT    LP112249   0.162   3.159   0.522
 2450WAT    LP212250   0.174   3.174   0.409
 2451WAT     OW12251   4.301   6.009   1.990
 2451WAT    HW112252   4.313   5.916   1.973
 2451WAT    HW212253   4.309   6.051   1.905
 2451WAT    LP112254   4.237   6.021   2.017
 2451WAT    LP212255   4.350   6.032   2.034
 2452WAT     OW12256   6.552   2.745   0.422
 2452WAT    HW112257   6.469   2.733   0.468
 2452WAT    HW212258   6.531   2.805   0.350
 2452WAT    LP112259   6.600   2.773   0.465
 2452WAT    LP212260   6.576   2.684   0.397
 2453WAT     OW12261   2.465   2.623   5.802
 2453WAT    HW112262   2.511   2.546   5.768
 2453WAT    HW212263   2.530   2.693   5.797
 2453WAT    LP112264   2.409   2.638   5.762
 2453WAT    LP212265   2.444   2.613   5.868
 2454WAT     OW12266   3.350   2.085   1.165
 2454WAT    HW112267   3.324   2.107   1.255
 2454WAT    HW212268   3.350   2.168   1.118
 2454WAT    LP112269   3.414   2.056   1.165
 2454WAT    LP212270   3.304   2.040   1.137
 2455WAT     OW12271   0.204   4.737   1.369
 2455WAT    HW112272   0.175   4.784   1.291
 2455WAT    HW212273   0.240   4.806   1.426
 2455WAT    LP112274   0.150   4.706   1.401
 2455WAT    LP212275   0.253   4.690   1.354
 2456WAT     OW12276   1.317   0.698   5.545
 2456WAT    HW112277   1.388   0.757   5.519
 2456WAT    HW212278   1.290   0.656   5.463
 2456WAT    LP112279   1.340   0.650   5.590
 2456WAT    LP212280   1.264   0.733   5.573
 2457WAT     OW12281   4.583   0.509   0.377
 2457WAT    HW112282   4.506   0.454   0.368
 2457WAT    HW212283   4.654   0.448   0.398
 2457WAT    LP112284   4.596   0.543   0.317
 2457WAT    LP212285   4.575   0.555   0.429
 2458WAT     OW12286   6.044   2.991   6.527
 2458WAT    HW112287   6.058   3.065   6.586
 2458WAT    HW212288   5.960   3.009   6.485
 2458WAT    LP112289   6.095   2.988   6.479
 2458WAT    LP212290   6.042   2.931   6.562
 2459WAT     OW12291   6.555   1.368   1.707
 2459WAT    HW112292   6.584   1.453   1.674
 2459WAT    HW212293   6.591   1.363   1.795
 2459WAT    LP112294   6.485   1.365   1.708
 2459WAT    LP212295   6.580   1.316   1.667
 2460WAT     OW12296   1.232   0.534   1.489
 2460WAT    HW112297   1.309   0.477   1.490
 2460WAT    HW212298   1.198   0.530   1.578
 2460WAT    LP112299   1.250   0.599   1.472
 2460WAT    LP212300   1.184   0.510   1.444
 2461WAT     OW12301   3.227   4.012   5.818
 2461WAT    HW112302   3.160   4.069   5.855
 2461WAT    HW212303   3.178   3.942   5.774
 2461WAT    LP112304   3.267   4.047   5.772
 2461WAT    LP212305   3.268   3.985   5.869
 2462WAT     OW12306   5.444   6.553   4.490
 2462WAT    HW112307   5.464   6.459   4.489
 2462WAT    HW212308   5.508   6.589   4.552
 2462WAT    LP112309   5.453   6.580   4.427
 2462WAT    LP212310   5.379   6.564   4.513
 2463WAT     OW12311   4.350   0.366   2.536
 2463WAT    HW112312   4.387   0.448   2.568
 2463WAT    HW212313   4.313   0.387   2.451
 2463WAT    LP112314   4.400   0.317   2.530
 2463WAT    LP212315   4.300   0.343   2.580
 2464WAT     OW12316   6.040   4.418   4.476
 2464WAT    HW112317   6.102   4.422   4.548
 2464WAT    HW212318   6.060   4.496   4.423
 2464WAT    LP112319   6.048   4.360   4.438
 2464WAT    LP212320   5.974   4.421   4.500
 2465WAT     OW12321   6.199   2.291   1.089
 2465WAT    HW112322   6.283   2.337   1.097
 2465WAT    HW212323   6.187   2.280   0.995
 2465WAT    LP112324   6.201   2.229   1.121
 2465WAT    LP212325   6.147   2.330   1.116
 2466WAT     OW12326   5.021   1.501   2.510
 2466WAT    HW112327   5.077   1.432   2.545
 2466WAT    HW212328   5.035   1.498   2.415
 2466WAT    LP112329   4.954   1.488   2.525
 2466WAT    LP212330   5.039   1.563   2.536
 2467WAT     OW12331   1.701   2.334   5.312
 2467WAT    HW112332   1.793   2.312   5.326
 2467WAT    HW212333   1.701   2.385   5.231
 2467WAT    LP112334   1.663   2.275   5.305
 2467WAT    LP212335   1.676   2.372   5.365
 2468WAT     OW12336   0.343   5.824   5.441
 2468WAT    HW112337   0.301   5.884   5.379
 2468WAT    HW212338   0.362   5.746   5.390
 2468WAT    LP112339   0.401   5.852   5.467
 2468WAT    LP212340   0.299   5.809   5.494
 2469WAT     OW12341   5.002   6.020   2.741
 2469WAT    HW112342   4.982   6.058   2.656
 2469WAT    HW212343   5.041   6.091   2.791
 2469WAT    LP112344   4.943   5.997   2.772
 2469WAT    LP212345   5.047   5.966   2.734
 2470WAT     OW12346   3.875   2.741   0.096
 2470WAT    HW112347   3.805   2.758   0.033
 2470WAT    HW212348   3.888   2.646   0.093
 2470WAT    LP112349   3.934   2.775   0.076
 2470WAT    LP212350   3.857   2.762   0.160
 2471WAT     OW12351   4.790   5.667   4.840
 2471WAT    HW112352   4.880   5.664   4.810
 2471WAT    HW212353   4.747   5.732   4.784
 2471WAT    LP112354   4.759   5.605   4.834
 2471WAT    LP212355   4.787   5.687   4.907
 2472WAT     OW12356   3.483   5.943   5.480
 2472WAT    HW112357   3.495   6.035   5.455
 2472WAT    HW212358   3.438   5.903   5.405
 2472WAT    LP112359   3.545   5.912   5.491
 2472WAT    LP212360   3.444   5.938   5.538
 2473WAT     OW12361   1.316   0.283   5.627
 2473WAT    HW112362   1.324   0.191   5.655
 2473WAT    HW212363   1.376   0.291   5.553
 2473WAT    LP112364   1.250   0.296   5.607
 2473WAT    LP212365   1.334   0.326   5.679
 2474WAT     OW12366   5.109   2.481   4.674
 2474WAT    HW112367   5.156   2.537   4.612
 2474WAT    HW212368   5.070   2.542   4.737
 2474WAT    LP112369   5.059   2.444   4.641
 2474WAT    LP212370   5.153   2.437   4.706
 2475WAT     OW12371   0.308   4.979   5.815
 2475WAT    HW112372   0.311   5.057   5.869
 2475WAT    HW212373   0.221   4.980   5.776
 2475WAT    LP112374   0.357   4.982   5.765
 2475WAT    LP212375   0.318   4.921   5.853
 2476WAT     OW12376   4.947   5.192   1.400
 2476WAT    HW112377   4.904   5.239   1.471
 2476WAT    HW212378   4.992   5.260   1.349
 2476WAT    LP112379   4.993   5.145   1.424
 2476WAT    LP212380   4.899   5.159   1.360
 2477WAT     OW12381   2.607   5.615   1.697
 2477WAT    HW112382   2.627   5.586   1.786
 2477WAT    HW212383   2.690   5.650   1.665
 2477WAT    LP112384   2.586   5.561   1.658
 2477WAT    LP212385   2.558   5.665   1.698
 2478WAT     OW12386   4.455   3.340   3.570
 2478WAT    HW112387   4.448   3.366   3.478
 2478WAT    HW212388   4.371   3.365   3.609
 2478WAT    LP112389   4.466   3.271   3.576
 2478WAT    LP212390   4.508   3.375   3.601
 2479WAT     OW12391   1.884   3.889   6.100
 2479WAT    HW112392   1.912   3.808   6.056
 2479WAT    HW212393   1.836   3.937   6.033
 2479WAT    LP112394   1.843   3.875   6.154
 2479WAT    LP212395   1.940   3.926   6.121
 2480WAT     OW12396   6.585   3.670   4.101
 2480WAT    HW112397   6.653   3.720   4.056
 2480WAT    HW212398   6.554   3.728   4.170
 2480WAT    LP112399   6.533   3.654   4.056
 2480WAT    LP212400   6.612   3.611   4.127
 2481WAT     OW12401   4.352   1.312   1.604
 2481WAT    HW112402   4.283   1.310   1.670
 2481WAT    HW212403   4.433   1.304   1.653
 2481WAT    LP112404   4.345   1.259   1.559
 2481WAT    LP212405   4.350   1.372   1.568
 2482WAT     OW12406   4.486   5.234   1.369
 2482WAT    HW112407   4.532   5.181   1.433
 2482WAT    HW212408   4.463   5.315   1.416
 2482WAT    LP112409   4.527   5.249   1.314
 2482WAT    LP212410   4.428   5.202   1.346
 2483WAT     OW12411   4.541   2.010   2.308
 2483WAT    HW112412   4.516   1.970   2.225
 2483WAT    HW212413   4.466   1.995   2.365
 2483WAT    LP112414   4.598   1.979   2.333
 2483WAT    LP212415   4.553   2.078   2.299
 2484WAT     OW12416   0.176   5.526   3.262
 2484WAT    HW112417   0.265   5.560   3.256
 2484WAT    HW212418   0.134   5.579   3.330
 2484WAT    LP112419   0.143   5.533   3.201
 2484WAT    LP212420   0.177   5.458   3.280
 2485WAT     OW12421   1.463   1.031   4.563
 2485WAT    HW112422   1.496   0.946   4.534
 2485WAT    HW212423   1.483   1.034   4.656
 2485WAT    LP112424   1.495   1.083   4.529
 2485WAT    LP212425   1.394   1.035   4.552
 2486WAT     OW12426   3.690   4.329   6.438
 2486WAT    HW112427   3.696   4.314   6.344
 2486WAT    HW212428   3.658   4.246   6.473
 2486WAT    LP112429   3.754   4.344   6.464
 2486WAT    LP212430   3.646   4.381   6.452
 2487WAT     OW12431   4.799   1.320   1.085
 2487WAT    HW112432   4.772   1.259   1.016
 2487WAT    HW212433   4.789   1.407   1.046
 2487WAT    LP112434   4.759   1.313   1.141
 2487WAT    LP212435   4.866   1.309   1.102
 2488WAT     OW12436   0.165   2.859   0.916
 2488WAT    HW112437   0.216   2.933   0.884
 2488WAT    HW212438   0.191   2.786   0.860
 2488WAT    LP112439   0.180   2.845   0.983
 2488WAT    LP212440   0.096   2.871   0.910
 2489WAT     OW12441   4.806   2.934   4.615
 2489WAT    HW112442   4.844   3.010   4.660
 2489WAT    HW212443   4.865   2.916   4.542
 2489WAT    LP112444   4.803   2.879   4.659
 2489WAT    LP212445   4.742   2.948   4.592
 2490WAT     OW12446   4.994   4.082   4.096
 2490WAT    HW112447   4.963   4.022   4.162
 2490WAT    HW212448   5.007   4.028   4.018
 2490WAT    LP112449   4.947   4.133   4.084
 2490WAT    LP212450   5.055   4.111   4.116
 2491WAT     OW12451   1.282   5.044   4.057
 2491WAT    HW112452   1.290   5.107   4.128
 2491WAT    HW212453   1.352   4.981   4.072
 2491WAT    LP112454   1.219   5.012   4.059
 2491WAT    LP212455   1.290   5.075   3.994
 2492WAT     OW12456   0.128   0.711   6.049
 2492WAT    HW112457   0.106   0.804   6.045
 2492WAT    HW212458   0.190   0.698   5.977
 2492WAT    LP112459   0.158   0.695   6.110
 2492WAT    LP212460   0.071   0.672   6.040
 2493WAT     OW12461   4.806   2.155   0.803
 2493WAT    HW112462   4.730   2.150   0.861
 2493WAT    HW212463   4.875   2.109   0.851
 2493WAT    LP112464   4.793   2.122   0.742
 2493WAT    LP212465   4.824   2.221   0.791
 2494WAT     OW12466   5.910   2.549   4.964
 2494WAT    HW112467   5.937   2.476   5.018
 2494WAT    HW212468   5.865   2.609   5.024
 2494WAT    LP112469   5.966   2.580   4.935
 2494WAT    LP212470   5.866   2.528   4.913
 2495WAT     OW12471   6.291   0.829   0.672
 2495WAT    HW112472   6.323   0.919   0.687
 2495WAT    HW212473   6.370   0.778   0.657
 2495WAT    LP112474   6.258   0.806   0.729
 2495WAT    LP212475   6.249   0.827   0.617
 2496WAT     OW12476   1.905   3.306   3.828
 2496WAT    HW112477   1.956   3.263   3.759
 2496WAT    HW212478   1.958   3.296   3.907
 2496WAT    LP112479   1.895   3.373   3.813
 2496WAT    LP212480   1.843   3.275   3.836
 2497WAT     OW12481   0.276   1.404   5.123
 2497WAT    HW112482   0.345   1.458   5.085
 2497WAT    HW212483   0.311   1.377   5.208
 2497WAT    LP112484   0.217   1.441   5.131
 2497WAT    LP212485   0.263   1.348   5.083
 2498WAT     OW12486   1.103   4.128   5.814
 2498WAT    HW112487   1.185   4.138   5.862
 2498WAT    HW212488   1.127   4.142   5.722
 2498WAT    LP112489   1.076   4.064   5.823
 2498WAT    LP212490   1.056   4.176   5.834
 2499WAT     OW12491   6.392   2.031   2.825
 2499WAT    HW112492   6.431   1.984   2.899
 2499WAT    HW212493   6.405   2.124   2.846
 2499WAT    LP112494   6.424   2.014   2.765
 2499WAT    LP212495   6.324   2.017   2.819
 2500WAT     OW12496   0.520   3.122   6.244
 2500WAT    HW112497   0.504   3.216   6.242
 2500WAT    HW212498   0.601   3.112   6.294
 2500WAT    LP112499   0.467   3.088   6.276
 2500WAT    LP212500   0.527   3.096   6.179
 2501WAT     OW12501   4.501   4.157   5.568
 2501WAT    HW112502   4.504   4.170   5.663
 2501WAT    HW212503   4.428   4.097   5.555
 2501WAT    LP112504   4.490   4.218   5.535
 2501WAT    LP212505   4.561   4.128   5.545
 2502WAT     OW12506   4.988   6.609   0.196
 2502WAT    HW112507   5.048   6.551   0.149
 2502WAT    HW212508   5.024   6.614   0.284
 2502WAT    LP112509   4.987   6.673   0.166
 2502WAT    LP212510   4.923   6.583   0.196
 2503WAT     OW12511   4.556   4.588   0.346
 2503WAT    HW112512   4.499   4.602   0.422
 2503WAT    HW212513   4.549   4.495   0.328
 2503WAT    LP112514   4.534   4.626   0.291
 2503WAT    LP212515   4.622   4.606   0.361
 2504WAT     OW12516   2.303   1.501   6.003
 2504WAT    HW112517   2.238   1.444   5.962
 2504WAT    HW212518   2.387   1.469   5.969
 2504WAT    LP112519   2.293   1.568   5.986
 2504WAT    LP212520   2.301   1.494   6.073
 2505WAT     OW12521   0.539   0.270   2.861
 2505WAT    HW112522   0.483   0.302   2.791
 2505WAT    HW212523   0.516   0.325   2.937
 2505WAT    LP112524   0.526   0.203   2.874
 2505WAT    LP212525   0.607   0.278   2.845
 2506WAT     OW12526   3.907   5.959   5.494
 2506WAT    HW112527   3.991   5.915   5.487
 2506WAT    HW212528   3.922   6.029   5.558
 2506WAT    LP112529   3.887   5.986   5.432
 2506WAT    LP212530   3.857   5.915   5.517
 2507WAT     OW12531   3.066   5.276   4.576
 2507WAT    HW112532   3.037   5.364   4.599
 2507WAT    HW212533   3.103   5.241   4.656
 2507WAT    LP112534   3.012   5.237   4.555
 2507WAT    LP212535   3.114   5.279   4.525
 2508WAT     OW12536   0.131   0.899   2.243
 2508WAT    HW112537   0.048   0.851   2.242
 2508WAT    HW212538   0.187   0.850   2.304
 2508WAT    LP112539   0.160   0.900   2.179
 2508WAT    LP212540   0.121   0.965   2.266
 2509WAT     OW12541   2.226   5.669   3.090
 2509WAT    HW112542   2.239   5.585   3.046
 2509WAT    HW212543   2.136   5.666   3.123
 2509WAT    LP112544   2.272   5.677   3.142
 2509WAT    LP212545   2.233   5.722   3.044
 2510WAT     OW12546   2.407   0.227   1.858
 2510WAT    HW112547   2.488   0.180   1.878
 2510WAT    HW212548   2.340   0.159   1.853
 2510WAT    LP112549   2.392   0.273   1.909
 2510WAT    LP212550   2.413   0.261   1.797
 2511WAT     OW12551   3.449   5.259   0.910
 2511WAT    HW112552   3.412   5.178   0.873
 2511WAT    HW212553   3.413   5.329   0.856
 2511WAT    LP112554   3.428   5.266   0.977
 2511WAT    LP212555   3.519   5.258   0.907
 2512WAT     OW12556   3.954   4.054   2.484
 2512WAT    HW112557   4.012   3.979   2.494
 2512WAT    HW212558   4.003   4.128   2.520
 2512WAT    LP112559   3.939   4.065   2.416
 2512WAT    LP212560   3.894   4.044   2.519
 2513WAT     OW12561   6.386   4.600   3.453
 2513WAT    HW112562   6.346   4.660   3.516
 2513WAT    HW212563   6.439   4.541   3.507
 2513WAT    LP112564   6.336   4.564   3.419
 2513WAT    LP212565   6.425   4.634   3.407
 2514WAT     OW12566   6.040   1.576   5.049
 2514WAT    HW112567   6.126   1.617   5.053
 2514WAT    HW212568   6.020   1.569   4.956
 2514WAT    LP112569   6.040   1.513   5.079
 2514WAT    LP212570   5.992   1.617   5.081
 2515WAT     OW12571   2.514   3.865   4.722
 2515WAT    HW112572   2.595   3.875   4.772
 2515WAT    HW212573   2.448   3.909   4.775
 2515WAT    LP112574   2.520   3.895   4.659
 2515WAT    LP212575   2.498   3.797   4.714
 2516WAT     OW12576   5.491   2.849   2.214
 2516WAT    HW112577   5.570   2.856   2.266
 2516WAT    HW212578   5.421   2.880   2.272
 2516WAT    LP112579   5.495   2.888   2.157
 2516WAT    LP212580   5.480   2.782   2.196
 2517WAT     OW12581   4.755   5.069   6.122
 2517WAT    HW112582   4.727   5.106   6.039
 2517WAT    HW212583   4.717   5.126   6.188
 2517WAT    LP112584   4.731   5.003   6.129
 2517WAT    LP212585   4.825   5.069   6.127
 2518WAT     OW12586   5.286   3.205   0.760
 2518WAT    HW112587   5.372   3.228   0.797
 2518WAT    HW212588   5.307   3.165   0.676
 2518WAT    LP112589   5.253   3.159   0.802
 2518WAT    LP212590   5.246   3.261   0.752
 2519WAT     OW12591   1.831   1.117   5.921
 2519WAT    HW112592   1.811   1.202   5.961
 2519WAT    HW212593   1.914   1.091   5.961
 2519WAT    LP112594   1.781   1.070   5.935
 2519WAT    LP212595   1.839   1.124   5.852
 2520WAT     OW12596   0.965   0.759   6.131
 2520WAT    HW112597   0.905   0.775   6.204
 2520WAT    HW212598   0.932   0.679   6.090
 2520WAT    LP112599   0.963   0.813   6.085
 2520WAT    LP212600   1.030   0.750   6.154
 2521WAT     OW12601   1.173   0.497   2.006
 2521WAT    HW112602   1.229   0.569   2.033
 2521WAT    HW212603   1.097   0.501   2.065
 2521WAT    LP112604   1.153   0.505   1.940
 2521WAT    LP212605   1.206   0.436   2.013
 2522WAT     OW12606   1.588   3.569   3.656
 2522WAT    HW112607   1.650   3.509   3.614
 2522WAT    HW212608   1.541   3.610   3.583
 2522WAT    LP112609   1.543   3.534   3.696
 2522WAT    LP212610   1.621   3.617   3.694
 2523WAT     OW12611   2.888   1.269   1.198
 2523WAT    HW112612   2.867   1.353   1.239
 2523WAT    HW212613   2.936   1.221   1.266
 2523WAT    LP112614   2.830   1.235   1.181
 2523WAT    LP212615   2.928   1.278   1.142
 2524WAT     OW12616   4.709   3.018   1.933
 2524WAT    HW112617   4.771   3.004   1.860
 2524WAT    HW212618   4.749   2.971   2.006
 2524WAT    LP112619   4.703   3.086   1.947
 2524WAT    LP212620   4.647   2.991   1.917
 2525WAT     OW12621   6.218   1.075   2.064
 2525WAT    HW112622   6.264   1.012   2.120
 2525WAT    HW212623   6.135   1.031   2.042
 2525WAT    LP112624   6.206   1.135   2.099
 2525WAT    LP212625   6.255   1.089   2.007
 2526WAT     OW12626   2.343   5.642   1.985
 2526WAT    HW112627   2.356   5.547   1.986
 2526WAT    HW212628   2.263   5.656   2.036
 2526WAT    LP112629   2.397   5.675   2.015
 2526WAT    LP212630   2.335   5.665   1.920
 2527WAT     OW12631   0.902   1.007   3.060
 2527WAT    HW112632   0.890   0.916   3.086
 2527WAT    HW212633   0.992   1.028   3.085
 2527WAT    LP112634   0.893   1.014   2.991
 2527WAT    LP212635   0.856   1.048   3.093
 2528WAT     OW12636   1.000   1.619   2.889
 2528WAT    HW112637   0.931   1.624   2.823
 2528WAT    HW212638   0.986   1.696   2.944
 2528WAT    LP112639   0.994   1.560   2.926
 2528WAT    LP212640   1.063   1.621   2.859
 2529WAT     OW12641   5.974   4.587   5.559
 2529WAT    HW112642   5.901   4.576   5.620
 2529WAT    HW212643   5.981   4.682   5.546
 2529WAT    LP112644   6.033   4.562   5.586
 2529WAT    LP212645   5.960   4.555   5.498
 2530WAT     OW12646   4.340   4.719   5.876
 2530WAT    HW112647   4.307   4.792   5.929
 2530WAT    HW212648   4.271   4.653   5.881
 2530WAT    LP112649   4.351   4.739   5.810
 2530WAT    LP212650   4.400   4.694   5.903
 2531WAT     OW12651   4.982   4.081   2.691
 2531WAT    HW112652   5.034   4.152   2.728
 2531WAT    HW212653   5.047   4.018   2.659
 2531WAT    LP112654   4.941   4.052   2.740
 2531WAT    LP212655   4.942   4.104   2.639
 2532WAT     OW12656   4.126   5.320   0.317
 2532WAT    HW112657   4.055   5.354   0.371
 2532WAT    HW212658   4.115   5.225   0.320
 2532WAT    LP112659   4.120   5.343   0.251
 2532WAT    LP212660   4.188   5.339   0.343
 2533WAT     OW12661   5.538   1.486   3.152
 2533WAT    HW112662   5.555   1.533   3.234
 2533WAT    HW212663   5.475   1.541   3.106
 2533WAT    LP112664   5.596   1.478   3.115
 2533WAT    LP212665   5.510   1.423   3.166
 2534WAT     OW12666   1.039   0.910   4.050
 2534WAT    HW112667   0.959   0.897   4.100
 2534WAT    HW212668   1.012   0.965   3.976
 2534WAT    LP112669   1.088   0.942   4.088
 2534WAT    LP212670   1.064   0.848   4.027
 2535WAT     OW12671   6.554   5.207   0.284
 2535WAT    HW112672   6.538   5.216   0.190
 2535WAT    HW212673   6.535   5.294   0.320
 2535WAT    LP112674   6.511   5.159   0.311
 2535WAT    LP212675   6.620   5.189   0.296
 2536WAT     OW12676   4.375   3.631   5.851
 2536WAT    HW112677   4.336   3.594   5.931
 2536WAT    HW212678   4.329   3.714   5.838
 2536WAT    LP112679   4.444   3.642   5.860
 2536WAT    LP212680   4.365   3.588   5.797
 2537WAT     OW12681   4.853   5.312   1.633
 2537WAT    HW112682   4.924   5.376   1.631
 2537WAT    HW212683   4.840   5.292   1.726
 2537WAT    LP112684   4.795   5.339   1.605
 2537WAT    LP212685   4.871   5.254   1.598
 2538WAT     OW12686   4.334   2.733   6.119
 2538WAT    HW112687   4.348   2.698   6.207
 2538WAT    HW212688   4.361   2.824   6.125
 2538WAT    LP112689   4.374   2.698   6.073
 2538WAT    LP212690   4.267   2.728   6.101
 2539WAT     OW12691   0.056   0.606   5.458
 2539WAT    HW112692   0.060   0.618   5.363
 2539WAT    HW212693   0.037   0.693   5.492
 2539WAT    LP112694   0.005   0.561   5.475
 2539WAT    LP212695   0.117   0.583   5.482
 2540WAT     OW12696   4.724   5.109   5.603
 2540WAT    HW112697   4.661   5.069   5.663
 2540WAT    HW212698   4.670   5.161   5.543
 2540WAT    LP112699   4.769   5.149   5.637
 2540WAT    LP212700   4.759   5.059   5.567
 2541WAT     OW12701   0.859   4.046   5.624
 2541WAT    HW112702   0.789   4.018   5.683
 2541WAT    HW212703   0.911   4.108   5.674
 2541WAT    LP112704   0.898   3.991   5.605
 2541WAT    LP212705   0.832   4.076   5.567
 2542WAT     OW12706   3.625   4.537   0.175
 2542WAT    HW112707   3.588   4.624   0.162
 2542WAT    HW212708   3.695   4.530   0.109
 2542WAT    LP112709   3.651   4.530   0.239
 2542WAT    LP212710   3.576   4.487   0.164
 2543WAT     OW12711   1.041   5.291   3.339
 2543WAT    HW112712   0.960   5.296   3.389
 2543WAT    HW212713   1.075   5.203   3.358
 2543WAT    LP112714   1.028   5.298   3.271
 2543WAT    LP212715   1.087   5.340   3.360
 2544WAT     OW12716   6.376   4.661   2.650
 2544WAT    HW112717   6.326   4.604   2.708
 2544WAT    HW212718   6.420   4.723   2.708
 2544WAT    LP112719   6.423   4.624   2.613
 2544WAT    LP212720   6.334   4.694   2.605
 2545WAT     OW12721   3.963   0.364   0.974
 2545WAT    HW112722   3.873   0.397   0.981
 2545WAT    HW212723   4.018   0.442   0.972
 2545WAT    LP112724   3.979   0.324   1.030
 2545WAT    LP212725   3.971   0.326   0.916
 2546WAT     OW12726   3.072   2.196   5.583
 2546WAT    HW112727   3.141   2.146   5.629
 2546WAT    HW212728   2.990   2.157   5.614
 2546WAT    LP112729   3.075   2.264   5.600
 2546WAT    LP212730   3.079   2.189   5.514
 2547WAT     OW12731   0.591   4.284   2.944
 2547WAT    HW112732   0.572   4.222   3.015
 2547WAT    HW212733   0.518   4.274   2.883
 2547WAT    LP112734   0.594   4.349   2.969
 2547WAT    LP212735   0.652   4.268   2.913
 2548WAT     OW12736   4.619   0.917   0.294
 2548WAT    HW112737   4.527   0.934   0.315
 2548WAT    HW212738   4.647   0.995   0.247
 2548WAT    LP112739   4.657   0.908   0.352
 2548WAT    LP212740   4.625   0.860   0.253
 2549WAT     OW12741   0.433   1.802   2.573
 2549WAT    HW112742   0.342   1.774   2.567
 2549WAT    HW212743   0.444   1.831   2.664
 2549WAT    LP112744   0.476   1.749   2.559
 2549WAT    LP212745   0.446   1.855   2.529
 2550WAT     OW12746   3.583   5.347   4.679
 2550WAT    HW112747   3.587   5.441   4.696
 2550WAT    HW212748   3.532   5.340   4.598
 2550WAT    LP112749   3.648   5.321   4.670
 2550WAT    LP212750   3.552   5.314   4.732
 2551WAT     OW12751   6.282   5.194   2.904
 2551WAT    HW112752   6.376   5.208   2.916
 2551WAT    HW212753   6.240   5.247   2.971
 2551WAT    LP112754   6.261   5.214   2.840
 2551WAT    LP212755   6.266   5.126   2.912
 2552WAT     OW12756   1.938   3.612   0.233
 2552WAT    HW112757   1.878   3.610   0.158
 2552WAT    HW212758   1.918   3.532   0.281
 2552WAT    LP112759   2.004   3.613   0.212
 2552WAT    LP212760   1.925   3.668   0.273
 2553WAT     OW12761   4.778   0.269   4.070
 2553WAT    HW112762   4.691   0.229   4.071
 2553WAT    HW212763   4.799   0.275   3.977
 2553WAT    LP112764   4.776   0.332   4.099
 2553WAT    LP212765   4.824   0.229   4.103
 2554WAT     OW12766   1.629   3.862   2.902
 2554WAT    HW112767   1.654   3.775   2.935
 2554WAT    HW212768   1.604   3.911   2.980
 2554WAT    LP112769   1.683   3.892   2.869
 2554WAT    LP212770   1.575   3.856   2.858
 2555WAT     OW12771   0.065   0.036   2.788
 2555WAT    HW112772   0.104  -0.041   2.746
 2555WAT    HW212773  -0.025   0.037   2.757
 2555WAT    LP112774   0.067   0.029   2.857
 2555WAT    LP212775   0.099   0.094   2.769
 2556WAT     OW12776   1.156   4.212   5.559
 2556WAT    HW112777   1.231   4.271   5.562
 2556WAT    HW212778   1.180   4.146   5.493
 2556WAT    LP112779   1.146   4.181   5.621
 2556WAT    LP212780   1.098   4.246   5.540
 2557WAT     OW12781   6.771   3.851   0.636
 2557WAT    HW112782   6.701   3.860   0.571
 2557WAT    HW212783   6.737   3.897   0.713
 2557WAT    LP112784   6.782   3.784   0.651
 2557WAT    LP212785   6.830   3.881   0.613
 2558WAT     OW12786   0.155   0.642   0.637
 2558WAT    HW112787   0.238   0.609   0.602
 2558WAT    HW212788   0.178   0.679   0.722
 2558WAT    LP112789   0.128   0.691   0.594
 2558WAT    LP212790   0.109   0.590   0.644
 2559WAT     OW12791   0.458   6.282   3.339
 2559WAT    HW112792   0.528   6.320   3.286
 2559WAT    HW212793   0.461   6.330   3.422
 2559WAT    LP112794   0.396   6.292   3.308
 2559WAT    LP212795   0.468   6.214   3.349
 2560WAT     OW12796   6.355   2.750   4.958
 2560WAT    HW112797   6.390   2.669   4.996
 2560WAT    HW212798   6.278   2.721   4.909
 2560WAT    LP112799   6.337   2.795   5.008
 2560WAT    LP212800   6.402   2.779   4.915
 2561WAT     OW12801   1.416   0.074   5.980
 2561WAT    HW112802   1.440   0.051   6.070
 2561WAT    HW212803   1.386  -0.008   5.941
 2561WAT    LP112804   1.364   0.121   5.980
 2561WAT    LP212805   1.471   0.100   5.945
 2562WAT     OW12806   4.763   2.905   1.477
 2562WAT    HW112807   4.772   2.818   1.436
 2562WAT    HW212808   4.677   2.936   1.448
 2562WAT    LP112809   4.766   2.900   1.546
 2562WAT    LP212810   4.814   2.948   1.454
 2563WAT     OW12811   0.472   3.574   2.752
 2563WAT    HW112812   0.509   3.662   2.748
 2563WAT    HW212813   0.513   3.534   2.829
 2563WAT    LP112814   0.402   3.576   2.759
 2563WAT    LP212815   0.489   3.538   2.694
 2564WAT     OW12816   2.955   3.654   2.854
 2564WAT    HW112817   2.964   3.700   2.937
 2564WAT    HW212818   2.933   3.564   2.878
 2564WAT    LP112819   2.905   3.682   2.814
 2564WAT    LP212820   3.016   3.655   2.818
 2565WAT     OW12821   1.908   5.434   3.841
 2565WAT    HW112822   1.925   5.458   3.932
 2565WAT    HW212823   1.821   5.469   3.823
 2565WAT    LP112824   1.955   5.463   3.798
 2565WAT    LP212825   1.908   5.364   3.833
 2566WAT     OW12826   5.889   1.096   2.540
 2566WAT    HW112827   5.799   1.079   2.568
 2566WAT    HW212828   5.897   1.048   2.458
 2566WAT    LP112829   5.900   1.164   2.531
 2566WAT    LP212830   5.935   1.071   2.588
 2567WAT     OW12831   3.051   5.377   0.537
 2567WAT    HW112832   3.000   5.304   0.573
 2567WAT    HW212833   3.104   5.406   0.611
 2567WAT    LP112834   3.091   5.355   0.484
 2567WAT    LP212835   3.009   5.428   0.515
 2568WAT     OW12836   0.492   3.152   4.123
 2568WAT    HW112837   0.413   3.113   4.160
 2568WAT    HW212838   0.467   3.243   4.103
 2568WAT    LP112839   0.544   3.151   4.170
 2568WAT    LP212840   0.512   3.119   4.065
 2569WAT     OW12841   0.689   1.625   0.939
 2569WAT    HW112842   0.737   1.603   0.860
 2569WAT    HW212843   0.665   1.717   0.928
 2569WAT    LP112844   0.632   1.585   0.945
 2569WAT    LP212845   0.729   1.616   0.996
 2570WAT     OW12846   4.307   0.490   1.138
 2570WAT    HW112847   4.241   0.505   1.070
 2570WAT    HW212848   4.384   0.458   1.089
 2570WAT    LP112849   4.322   0.549   1.172
 2570WAT    LP212850   4.285   0.441   1.183
 2571WAT     OW12851   3.458   1.651   2.184
 2571WAT    HW112852   3.430   1.726   2.237
 2571WAT    HW212853   3.399   1.580   2.209
 2571WAT    LP112854   3.451   1.666   2.116
 2571WAT    LP212855   3.524   1.634   2.198
 2572WAT     OW12856   5.386   2.280   5.253
 2572WAT    HW112857   5.413   2.354   5.307
 2572WAT    HW212858   5.339   2.222   5.313
 2572WAT    LP112859   5.344   2.302   5.201
 2572WAT    LP212860   5.441   2.248   5.226
 2573WAT     OW12861   1.807   2.345   0.707
 2573WAT    HW112862   1.737   2.359   0.643
 2573WAT    HW212863   1.887   2.349   0.655
 2573WAT    LP112864   1.806   2.395   0.756
 2573WAT    LP212865   1.799   2.282   0.737
 2574WAT     OW12866   1.909   6.315   1.648
 2574WAT    HW112867   1.821   6.350   1.665
 2574WAT    HW212868   1.903   6.223   1.674
 2574WAT    LP112869   1.925   6.320   1.580
 2574WAT    LP212870   1.956   6.349   1.686
 2575WAT     OW12871   2.092   0.158   3.608
 2575WAT    HW112872   2.115   0.122   3.522
 2575WAT    HW212873   2.152   0.232   3.620
 2575WAT    LP112874   2.025   0.181   3.608
 2575WAT    LP212875   2.101   0.111   3.658
 2576WAT     OW12876   6.352   3.717   1.141
 2576WAT    HW112877   6.385   3.795   1.186
 2576WAT    HW212878   6.430   3.679   1.099
 2576WAT    LP112879   6.324   3.672   1.187
 2576WAT    LP212880   6.304   3.735   1.093
 2577WAT     OW12881   6.784   3.837   3.998
 2577WAT    HW112882   6.865   3.787   3.995
 2577WAT    HW212883   6.802   3.910   4.057
 2577WAT    LP112884   6.767   3.861   3.934
 2577WAT    LP212885   6.731   3.798   4.023
 2578WAT     OW12886   3.045   0.251   5.415
 2578WAT    HW112887   3.099   0.314   5.463
 2578WAT    HW212888   2.965   0.243   5.467
 2578WAT    LP112889   3.030   0.276   5.351
 2578WAT    LP212890   3.077   0.190   5.409
 2579WAT     OW12891   4.016   4.568   5.012
 2579WAT    HW112892   3.961   4.493   4.991
 2579WAT    HW212893   3.973   4.609   5.087
 2579WAT    LP112894   4.081   4.548   5.028
 2579WAT    LP212895   4.019   4.613   4.958
 2580WAT     OW12896   3.003   5.211   5.218
 2580WAT    HW112897   2.987   5.232   5.126
 2580WAT    HW212898   2.962   5.126   5.231
 2580WAT    LP112899   3.072   5.208   5.230
 2580WAT    LP212900   2.974   5.259   5.260
 2581WAT     OW12901   6.494   0.975   4.478
 2581WAT    HW112902   6.526   1.023   4.554
 2581WAT    HW212903   6.527   1.023   4.402
 2581WAT    LP112904   6.518   0.909   4.479
 2581WAT    LP212905   6.424   0.974   4.478
 2582WAT     OW12906   1.497   1.682   4.325
 2582WAT    HW112907   1.470   1.635   4.246
 2582WAT    HW212908   1.461   1.631   4.398
 2582WAT    LP112909   1.567   1.685   4.329
 2582WAT    LP212910   1.471   1.747   4.326
 2583WAT     OW12911   0.446   4.094   6.622
 2583WAT    HW112912   0.394   4.168   6.655
 2583WAT    HW212913   0.489   4.129   6.544
 2583WAT    LP112914   0.493   4.074   6.669
 2583WAT    LP212915   0.405   4.040   6.606
 2584WAT     OW12916   5.803   3.111   2.245
 2584WAT    HW112917   5.715   3.149   2.242
 2584WAT    HW212918   5.833   3.113   2.154
 2584WAT    LP112919   5.845   3.148   2.286
 2584WAT    LP212920   5.800   3.045   2.268
 2585WAT     OW12921   4.504   3.072   3.546
 2585WAT    HW112922   4.502   3.167   3.553
 2585WAT    HW212923   4.469   3.041   3.629
 2585WAT    LP112924   4.463   3.050   3.493
 2585WAT    LP212925   4.569   3.049   3.536
 2586WAT     OW12926   3.575   1.815   1.373
 2586WAT    HW112927   3.595   1.908   1.378
 2586WAT    HW212928   3.603   1.780   1.458
 2586WAT    LP112929   3.506   1.805   1.364
 2586WAT    LP212930   3.610   1.784   1.321
 2587WAT     OW12931   5.775   0.371   3.626
 2587WAT    HW112932   5.839   0.330   3.569
 2587WAT    HW212933   5.700   0.312   3.624
 2587WAT    LP112934   5.800   0.377   3.691
 2587WAT    LP212935   5.757   0.434   3.602
 2588WAT     OW12936   2.046   1.448   5.587
 2588WAT    HW112937   2.118   1.388   5.608
 2588WAT    HW212938   1.994   1.402   5.521
 2588WAT    LP112939   2.007   1.461   5.644
 2588WAT    LP212940   2.071   1.508   5.561
 2589WAT     OW12941   6.206   2.680   1.974
 2589WAT    HW112942   6.199   2.731   1.894
 2589WAT    HW212943   6.300   2.679   1.993
 2589WAT    LP112944   6.171   2.711   2.026
 2589WAT    LP212945   6.182   2.615   1.965
 2590WAT     OW12946   5.974   0.157   0.385
 2590WAT    HW112947   6.041   0.220   0.360
 2590WAT    HW212948   5.999   0.130   0.473
 2590WAT    LP112949   5.911   0.187   0.386
 2590WAT    LP212950   5.974   0.103   0.341
 2591WAT     OW12951   5.793   3.582   0.974
 2591WAT    HW112952   5.812   3.534   1.055
 2591WAT    HW212953   5.841   3.535   0.906
 2591WAT    LP112954   5.724   3.582   0.961
 2591WAT    LP212955   5.816   3.648   0.979
 2592WAT     OW12956   3.861   6.010   0.180
 2592WAT    HW112957   3.854   5.984   0.088
 2592WAT    HW212958   3.886   5.930   0.226
 2592WAT    LP112959   3.909   6.060   0.188
 2592WAT    LP212960   3.799   6.033   0.204
 2593WAT     OW12961   6.654   6.401   5.592
 2593WAT    HW112962   6.652   6.386   5.498
 2593WAT    HW212963   6.615   6.322   5.630
 2593WAT    LP112964   6.720   6.409   5.615
 2593WAT    LP212965   6.616   6.457   5.610
 2594WAT     OW12966   0.756   2.266   1.479
 2594WAT    HW112967   0.753   2.179   1.441
 2594WAT    HW212968   0.799   2.255   1.564
 2594WAT    LP112969   0.792   2.310   1.438
 2594WAT    LP212970   0.691   2.292   1.488
 2595WAT     OW12971   3.523   0.114   3.099
 2595WAT    HW112972   3.490   0.203   3.112
 2595WAT    HW212973   3.564   0.091   3.182
 2595WAT    LP112974   3.470   0.070   3.085
 2595WAT    LP212975   3.569   0.112   3.047
 2596WAT     OW12976   4.283   1.156   2.424
 2596WAT    HW112977   4.302   1.233   2.478
 2596WAT    HW212978   4.347   1.160   2.353
 2596WAT    LP112979   4.291   1.097   2.461
 2596WAT    LP212980   4.218   1.159   2.398
 2597WAT     OW12981   1.581   5.003   3.747
 2597WAT    HW112982   1.638   5.079   3.736
 2597WAT    HW212983   1.626   4.948   3.811
 2597WAT    LP112984   1.518   5.022   3.772
 2597WAT    LP212985   1.572   4.969   3.686
 2598WAT     OW12986   5.649   0.388   2.075
 2598WAT    HW112987   5.596   0.336   2.013
 2598WAT    HW212988   5.618   0.478   2.063
 2598WAT    LP112989   5.638   0.366   2.141
 2598WAT    LP212990   5.717   0.383   2.060
 2599WAT     OW12991   0.182   2.746   3.231
 2599WAT    HW112992   0.261   2.780   3.189
 2599WAT    HW212993   0.208   2.661   3.266
 2599WAT    LP112994   0.161   2.789   3.283
 2599WAT    LP212995   0.130   2.739   3.185
 2600WAT     OW12996   1.808   3.507   0.725
 2600WAT    HW112997   1.822   3.585   0.672
 2600WAT    HW212998   1.888   3.498   0.776
 2600WAT    LP112999   1.753   3.515   0.767
 2600WAT    LP213000   1.798   3.451   0.684
 2601WAT     OW13001   0.701   2.798   2.658
 2601WAT    HW113002   0.719   2.743   2.734
 2601WAT    HW213003   0.649   2.870   2.692
 2601WAT    LP113004   0.761   2.822   2.630
 2601WAT    LP213005   0.665   2.762   2.609
 2602WAT     OW13006   5.632   0.037   0.644
 2602WAT    HW113007   5.665   0.107   0.587
 2602WAT    HW213008   5.710  -0.012   0.669
 2602WAT    LP113009   5.600   0.063   0.700
 2602WAT    LP213010   5.587  -0.004   0.609
 2603WAT     OW13011   2.166   3.456   5.326
 2603WAT    HW113012   2.245   3.505   5.352
 2603WAT    HW213013   2.181   3.432   5.235
 2603WAT    LP113014   2.158   3.399   5.366
 2603WAT    LP213015   2.109   3.497   5.332
 2604WAT     OW13016   4.921   3.516   4.121
 2604WAT    HW113017   4.986   3.492   4.055
 2604WAT    HW213018   4.892   3.604   4.097
 2604WAT    LP113019   4.867   3.471   4.119
 2604WAT    LP213020   4.949   3.515   4.185
 2605WAT     OW13021   5.326   1.003   1.664
 2605WAT    HW113022   5.364   1.063   1.729
 2605WAT    HW213023   5.300   1.060   1.592
 2605WAT    LP113024   5.373   0.956   1.643
 2605WAT    LP213025   5.270   0.970   1.691
 2606WAT     OW13026   0.175   3.226   0.727
 2606WAT    HW113027   0.235   3.155   0.749
 2606WAT    HW213028   0.158   3.216   0.633
 2606WAT    LP113029   0.116   3.220   0.763
 2606WAT    LP213030   0.204   3.288   0.740
 2607WAT     OW13031   4.789   0.934   5.966
 2607WAT    HW113032   4.785   0.900   5.876
 2607WAT    HW213033   4.741   0.869   6.017
 2607WAT    LP113034   4.856   0.938   5.987
 2607WAT    LP213035   4.759   0.996   5.970
 2608WAT     OW13036   5.293   6.678   2.532
 2608WAT    HW113037   5.327   6.710   2.449
 2608WAT    HW213038   5.206   6.644   2.512
 2608WAT    LP113039   5.335   6.627   2.558
 2608WAT    LP213040   5.289   6.730   2.579
 2609WAT     OW13041   2.143   1.859   0.033
 2609WAT    HW113042   2.085   1.862   0.109
 2609WAT    HW213043   2.232   1.859   0.070
 2609WAT    LP113044   2.132   1.800  -0.004
 2609WAT    LP213045   2.134   1.914  -0.008
 2610WAT     OW13046   0.026   2.479   5.442
 2610WAT    HW113047   0.117   2.460   5.463
 2610WAT    HW213048   0.028   2.522   5.356
 2610WAT    LP113049  -0.012   2.420   5.440
 2610WAT    LP213050  -0.002   2.522   5.490
 2611WAT     OW13051   2.074   1.891   1.473
 2611WAT    HW113052   2.039   1.956   1.533
 2611WAT    HW213053   2.036   1.913   1.388
 2611WAT    LP113054   2.144   1.895   1.471
 2611WAT    LP213055   2.055   1.826   1.492
 2612WAT     OW13056   4.191   2.624   1.337
 2612WAT    HW113057   4.106   2.623   1.293
 2612WAT    HW213058   4.224   2.535   1.327
 2612WAT    LP113059   4.234   2.670   1.307
 2612WAT    LP213060   4.183   2.640   1.405
 2613WAT     OW13061   3.104   5.734   0.639
 2613WAT    HW113062   3.141   5.819   0.612
 2613WAT    HW213063   3.010   5.743   0.620
 2613WAT    LP113064   3.132   5.682   0.601
 2613WAT    LP213065   3.115   5.723   0.707
 2614WAT     OW13066   2.458   5.982   3.695
 2614WAT    HW113067   2.437   5.925   3.621
 2614WAT    HW213068   2.544   5.951   3.725
 2614WAT    LP113069   2.462   6.049   3.675
 2614WAT    LP213070   2.411   5.976   3.746
 2615WAT     OW13071   1.346   0.180   2.223
 2615WAT    HW113072   1.370   0.088   2.214
 2615WAT    HW213073   1.286   0.182   2.298
 2615WAT    LP113074   1.403   0.219   2.237
 2615WAT    LP213075   1.315   0.203   2.166
 2616WAT     OW13076   2.422   5.372   1.962
 2616WAT    HW113077   2.441   5.284   1.996
 2616WAT    HW213078   2.507   5.415   1.959
 2616WAT    LP113079   2.395   5.368   1.897
 2616WAT    LP213080   2.378   5.406   2.004
 2617WAT     OW13081   2.948   5.754   3.292
 2617WAT    HW113082   3.010   5.760   3.219
 2617WAT    HW213083   2.965   5.667   3.330
 2617WAT    LP113084   2.960   5.804   3.340
 2617WAT    LP213085   2.882   5.758   3.270
 2618WAT     OW13086   3.035   4.274   4.510
 2618WAT    HW113087   2.995   4.241   4.591
 2618WAT    HW213088   3.126   4.290   4.534
 2618WAT    LP113089   3.030   4.227   4.459
 2618WAT    LP213090   3.004   4.334   4.490
 2619WAT     OW13091   5.674   1.890   4.946
 2619WAT    HW113092   5.661   1.821   4.881
 2619WAT    HW213093   5.618   1.864   5.020
 2619WAT    LP113094   5.741   1.893   4.966
 2619WAT    LP213095   5.654   1.952   4.921
 2620WAT     OW13096   3.011   3.061   2.283
 2620WAT    HW113097   2.940   3.122   2.298
 2620WAT    HW213098   3.016   3.052   2.188
 2620WAT    LP113099   3.071   3.086   2.308
 2620WAT    LP213100   2.997   2.999   2.313
 2621WAT     OW13101   2.113   4.138   5.445
 2621WAT    HW113102   2.168   4.172   5.375
 2621WAT    HW213103   2.070   4.062   5.406
 2621WAT    LP113104   2.152   4.119   5.500
 2621WAT    LP213105   2.066   4.185   5.465
 2622WAT     OW13106   2.929   1.849   5.538
 2622WAT    HW113107   2.994   1.845   5.608
 2622WAT    HW213108   2.883   1.931   5.553
 2622WAT    LP113109   2.961   1.850   5.475
 2622WAT    LP213110   2.886   1.795   5.541
 2623WAT     OW13111   1.678   5.167   2.380
 2623WAT    HW113112   1.601   5.221   2.362
 2623WAT    HW213113   1.655   5.080   2.346
 2623WAT    LP113114   1.734   5.192   2.348
 2623WAT    LP213115   1.689   5.163   2.449
 2624WAT     OW13116   5.546   0.952   6.361
 2624WAT    HW113117   5.578   0.870   6.323
 2624WAT    HW213118   5.606   0.970   6.433
 2624WAT    LP113119   5.548   1.004   6.313
 2624WAT    LP213120   5.481   0.944   6.384
 2625WAT     OW13121   2.963   2.598   0.878
 2625WAT    HW113122   2.962   2.571   0.787
 2625WAT    HW213123   2.893   2.547   0.920
 2625WAT    LP113124   3.025   2.583   0.908
 2625WAT    LP213125   2.950   2.667   0.884
 2626WAT     OW13126   3.755   5.308   6.349
 2626WAT    HW113127   3.678   5.329   6.296
 2626WAT    HW213128   3.720   5.266   6.427
 2626WAT    LP113129   3.797   5.263   6.314
 2626WAT    LP213130   3.791   5.365   6.365
 2627WAT     OW13131   4.758   6.527   5.806
 2627WAT    HW113132   4.764   6.622   5.802
 2627WAT    HW213133   4.789   6.497   5.720
 2627WAT    LP113134   4.799   6.501   5.857
 2627WAT    LP213135   4.692   6.507   5.817
 2628WAT     OW13136   4.324   3.008   1.999
 2628WAT    HW113137   4.302   3.096   1.970
 2628WAT    HW213138   4.371   2.968   1.926
 2628WAT    LP113139   4.363   3.010   2.057
 2628WAT    LP213140   4.265   2.971   2.013
 2629WAT     OW13141   1.684   2.461   5.070
 2629WAT    HW113142   1.605   2.512   5.050
 2629WAT    HW213143   1.675   2.382   5.016
 2629WAT    LP113144   1.741   2.496   5.052
 2629WAT    LP213145   1.686   2.445   5.138
 2630WAT     OW13146   6.716   2.636   1.846
 2630WAT    HW113147   6.759   2.564   1.890
 2630WAT    HW213148   6.783   2.705   1.841
 2630WAT    LP113149   6.696   2.618   1.781
 2630WAT    LP213150   6.661   2.658   1.882
 2631WAT     OW13151   3.049   0.752   3.481
 2631WAT    HW113152   3.141   0.737   3.456
 2631WAT    HW213153   3.005   0.772   3.398
 2631WAT    LP113154   3.022   0.695   3.510
 2631WAT    LP213155   3.045   0.806   3.525
 2632WAT     OW13156   4.208   2.447   4.526
 2632WAT    HW113157   4.244   2.532   4.550
 2632WAT    HW213158   4.113   2.459   4.532
 2632WAT    LP113159   4.227   2.429   4.461
 2632WAT    LP213160   4.229   2.397   4.571
 2633WAT     OW13161   2.364   5.090   5.945
 2633WAT    HW113162   2.345   5.058   5.857
 2633WAT    HW213163   2.423   5.164   5.932
 2633WAT    LP113164   2.305   5.111   5.977
 2633WAT    LP213165   2.394   5.040   5.983
 2634WAT     OW13166   6.690   3.720   6.020
 2634WAT    HW113167   6.713   3.650   5.958
 2634WAT    HW213168   6.640   3.676   6.088
 2634WAT    LP113169   6.748   3.749   6.046
 2634WAT    LP213170   6.652   3.769   5.989
 2635WAT     OW13171   0.835   5.603   6.237
 2635WAT    HW113172   0.854   5.688   6.276
 2635WAT    HW213173   0.791   5.554   6.306
 2635WAT    LP113174   0.794   5.610   6.181
 2635WAT    LP213175   0.895   5.571   6.218
 2636WAT     OW13176   2.638   6.291   0.379
 2636WAT    HW113177   2.733   6.302   0.384
 2636WAT    HW213178   2.625   6.197   0.367
 2636WAT    LP113179   2.607   6.313   0.438
 2636WAT    LP213180   2.612   6.327   0.325
 2637WAT     OW13181   5.414   1.165   1.875
 2637WAT    HW113182   5.498   1.210   1.886
 2637WAT    HW213183   5.348   1.234   1.883
 2637WAT    LP113184   5.410   1.134   1.812
 2637WAT    LP213185   5.405   1.117   1.925
 2638WAT     OW13186   3.985   0.721   5.426
 2638WAT    HW113187   4.052   0.654   5.439
 2638WAT    HW213188   4.032   0.804   5.430
 2638WAT    LP113189   3.955   0.713   5.363
 2638WAT    LP213190   3.936   0.717   5.476
 2639WAT     OW13191   5.839   4.199   6.525
 2639WAT    HW113192   5.922   4.152   6.531
 2639WAT    HW213193   5.807   4.202   6.615
 2639WAT    LP113194   5.849   4.264   6.500
 2639WAT    LP213195   5.794   4.165   6.484
 2640WAT     OW13196   0.810   1.039   2.803
 2640WAT    HW113197   0.857   1.031   2.886
 2640WAT    HW213198   0.766   1.124   2.808
 2640WAT    LP113199   0.856   1.038   2.749
 2640WAT    LP213200   0.764   0.988   2.795
 2641WAT     OW13201   1.353   2.958   4.619
 2641WAT    HW113202   1.414   3.023   4.654
 2641WAT    HW213203   1.344   2.982   4.526
 2641WAT    LP113204   1.379   2.894   4.625
 2641WAT    LP213205   1.291   2.962   4.652
 2642WAT     OW13206   3.433   6.565   5.567
 2642WAT    HW113207   3.481   6.648   5.559
 2642WAT    HW213208   3.498   6.498   5.547
 2642WAT    LP113209   3.408   6.557   5.632
 2642WAT    LP213210   3.380   6.563   5.521
 2643WAT     OW13211   5.449   1.722   1.154
 2643WAT    HW113212   5.387   1.672   1.208
 2643WAT    HW213213   5.501   1.655   1.109
 2643WAT    LP113214   5.414   1.762   1.108
 2643WAT    LP213215   5.489   1.762   1.194
 2644WAT     OW13216   2.602   0.530   5.712
 2644WAT    HW113217   2.547   0.500   5.640
 2644WAT    HW213218   2.597   0.459   5.777
 2644WAT    LP113219   2.668   0.539   5.691
 2644WAT    LP213220   2.577   0.590   5.739
 2645WAT     OW13221   1.995   3.005   5.330
 2645WAT    HW113222   2.043   3.069   5.381
 2645WAT    HW213223   1.903   3.026   5.346
 2645WAT    LP113224   2.010   3.010   5.262
 2645WAT    LP213225   2.010   2.940   5.353
 2646WAT     OW13226   6.580   1.650   1.095
 2646WAT    HW113227   6.608   1.604   1.016
 2646WAT    HW213228   6.661   1.669   1.143
 2646WAT    LP113229   6.547   1.710   1.078
 2646WAT    LP213230   6.537   1.610   1.134
 2647WAT     OW13231   2.031   1.207   1.387
 2647WAT    HW113232   2.064   1.264   1.317
 2647WAT    HW213233   2.093   1.134   1.389
 2647WAT    LP113234   2.030   1.240   1.448
 2647WAT    LP213235   1.966   1.184   1.372
 2648WAT     OW13236   4.505   2.210   4.810
 2648WAT    HW113237   4.432   2.198   4.750
 2648WAT    HW213238   4.468   2.262   4.882
 2648WAT    LP113239   4.528   2.149   4.834
 2648WAT    LP213240   4.557   2.245   4.779
 2649WAT     OW13241   0.396   1.155   4.874
 2649WAT    HW113242   0.321   1.200   4.834
 2649WAT    HW213243   0.472   1.185   4.822
 2649WAT    LP113244   0.404   1.174   4.941
 2649WAT    LP213245   0.389   1.086   4.870
 2650WAT     OW13246   2.412   3.808   2.038
 2650WAT    HW113247   2.414   3.802   2.133
 2650WAT    HW213248   2.337   3.755   2.011
 2650WAT    LP113249   2.403   3.875   2.018
 2650WAT    LP213250   2.471   3.783   2.010
 2651WAT     OW13251   5.047   3.428   1.678
 2651WAT    HW113252   5.032   3.347   1.726
 2651WAT    HW213253   5.041   3.403   1.586
 2651WAT    LP113254   4.998   3.476   1.694
 2651WAT    LP213255   5.111   3.454   1.693
 2652WAT     OW13256   5.941   1.936   4.996
 2652WAT    HW113257   5.989   1.943   4.914
 2652WAT    HW213258   5.850   1.925   4.970
 2652WAT    LP113259   5.963   1.881   5.034
 2652WAT    LP213260   5.949   1.994   5.034
 2653WAT     OW13261   6.157   0.543   1.223
 2653WAT    HW113262   6.120   0.621   1.264
 2653WAT    HW213263   6.161   0.478   1.293
 2653WAT    LP113264   6.116   0.521   1.171
 2653WAT    LP213265   6.221   0.556   1.198
 2654WAT     OW13266   5.411   2.446   3.811
 2654WAT    HW113267   5.380   2.485   3.729
 2654WAT    HW213268   5.507   2.447   3.804
 2654WAT    LP113269   5.390   2.485   3.866
 2654WAT    LP213270   5.388   2.381   3.818
 2655WAT     OW13271   5.944   0.289   0.842
 2655WAT    HW113272   5.970   0.352   0.909
 2655WAT    HW213273   5.869   0.243   0.879
 2655WAT    LP113274   5.925   0.323   0.783
 2655WAT    LP213275   5.996   0.244   0.828
 2656WAT     OW13276   6.398   2.452   6.185
 2656WAT    HW113277   6.327   2.466   6.122
 2656WAT    HW213278   6.475   2.489   6.142
 2656WAT    LP113279   6.385   2.485   6.245
 2656WAT    LP213280   6.407   2.383   6.197
 2657WAT     OW13281   5.014   1.768   3.181
 2657WAT    HW113282   4.963   1.754   3.101
 2657WAT    HW213283   5.069   1.844   3.161
 2657WAT    LP113284   4.971   1.782   3.235
 2657WAT    LP213285   5.053   1.712   3.195
 2658WAT     OW13286   0.564   3.980   4.808
 2658WAT    HW113287   0.532   3.890   4.803
 2658WAT    HW213288   0.497   4.026   4.859
 2658WAT    LP113289   0.626   3.982   4.841
 2658WAT    LP213290   0.571   4.007   4.744
 2659WAT     OW13291   6.078   1.979   0.535
 2659WAT    HW113292   6.159   2.024   0.510
 2659WAT    HW213293   6.095   1.887   0.517
 2659WAT    LP113294   6.065   1.989   0.603
 2659WAT    LP213295   6.025   2.003   0.496
 2660WAT     OW13296   2.292   2.735   3.837
 2660WAT    HW113297   2.381   2.700   3.841
 2660WAT    HW213298   2.260   2.708   3.751
 2660WAT    LP113299   2.252   2.709   3.888
 2660WAT    LP213300   2.293   2.805   3.842
 2661WAT     OW13301   3.739   2.933   1.705
 2661WAT    HW113302   3.720   2.863   1.643
 2661WAT    HW213303   3.835   2.938   1.707
 2661WAT    LP113304   3.712   2.994   1.683
 2661WAT    LP213305   3.714   2.918   1.769
 2662WAT     OW13306   5.687   1.645   0.845
 2662WAT    HW113307   5.770   1.683   0.874
 2662WAT    HW213308   5.653   1.599   0.922
 2662WAT    LP113309   5.642   1.696   0.825
 2662WAT    LP213310   5.696   1.600   0.792
 2663WAT     OW13311   6.176   4.539   6.164
 2663WAT    HW113312   6.246   4.498   6.215
 2663WAT    HW213313   6.132   4.596   6.227
 2663WAT    LP113314   6.201   4.576   6.111
 2663WAT    LP213315   6.132   4.490   6.140
 2664WAT     OW13316   4.255   1.548   6.353
 2664WAT    HW113317   4.200   1.608   6.303
 2664WAT    HW213318   4.339   1.548   6.307
 2664WAT    LP113319   4.263   1.571   6.419
 2664WAT    LP213320   4.227   1.484   6.355
 2665WAT     OW13321   4.980   5.859   5.815
 2665WAT    HW113322   5.007   5.790   5.877
 2665WAT    HW213323   4.974   5.938   5.868
 2665WAT    LP113324   5.028   5.866   5.765
 2665WAT    LP213325   4.918   5.843   5.787
 2666WAT     OW13326   4.946   3.603   5.090
 2666WAT    HW113327   5.012   3.634   5.153
 2666WAT    HW213328   4.982   3.625   5.004
 2666WAT    LP113329   4.936   3.534   5.096
 2666WAT    LP213330   4.885   3.636   5.100
 2667WAT     OW13331   5.630   5.517   6.043
 2667WAT    HW113332   5.668   5.430   6.034
 2667WAT    HW213333   5.543   5.501   6.078
 2667WAT    LP113334   5.668   5.556   6.086
 2667WAT    LP213335   5.626   5.549   5.980
 2668WAT     OW13336   6.727   2.243   4.873
 2668WAT    HW113337   6.709   2.168   4.931
 2668WAT    HW213338   6.821   2.237   4.855
 2668WAT    LP113339   6.690   2.238   4.814
 2668WAT    LP213340   6.712   2.303   4.906
 2669WAT     OW13341   1.986   0.750   1.705
 2669WAT    HW113342   1.908   0.727   1.655
 2669WAT    HW213343   1.971   0.839   1.735
 2669WAT    LP113344   1.995   0.706   1.759
 2669WAT    LP213345   2.043   0.747   1.664
 2670WAT     OW13346   5.687   0.246   4.699
 2670WAT    HW113347   5.617   0.308   4.677
 2670WAT    HW213348   5.747   0.250   4.624
 2670WAT    LP113349   5.720   0.264   4.758
 2670WAT    LP213350   5.661   0.181   4.706
 2671WAT     OW13351   3.666   5.936   1.116
 2671WAT    HW113352   3.590   5.911   1.170
 2671WAT    HW213353   3.629   5.993   1.048
 2671WAT    LP113354   3.713   5.971   1.154
 2671WAT    LP213355   3.695   5.880   1.088
 2672WAT     OW13356   6.572   1.781   3.752
 2672WAT    HW113357   6.630   1.770   3.827
 2672WAT    HW213358   6.515   1.855   3.776
 2672WAT    LP113359   6.609   1.796   3.694
 2672WAT    LP213360   6.534   1.723   3.741
 2673WAT     OW13361   6.775   3.672   2.046
 2673WAT    HW113362   6.779   3.749   1.990
 2673WAT    HW213363   6.849   3.617   2.018
 2673WAT    LP113364   6.782   3.690   2.113
 2673WAT    LP213365   6.715   3.638   2.037
 2674WAT     OW13366   2.480   2.659   1.851
 2674WAT    HW113367   2.501   2.752   1.842
 2674WAT    HW213368   2.436   2.653   1.936
 2674WAT    LP113369   2.437   2.639   1.799
 2674WAT    LP213370   2.538   2.620   1.850
 2675WAT     OW13371   5.583   6.430   6.420
 2675WAT    HW113372   5.635   6.510   6.407
 2675WAT    HW213373   5.505   6.460   6.467
 2675WAT    LP113374   5.565   6.402   6.358
 2675WAT    LP213375   5.619   6.383   6.457
 2676WAT     OW13376   4.346   0.887   6.518
 2676WAT    HW113377   4.363   0.971   6.475
 2676WAT    HW213378   4.280   0.907   6.584
 2676WAT    LP113379   4.322   0.840   6.472
 2676WAT    LP213380   4.404   0.863   6.548
 2677WAT     OW13381   4.787   3.686   2.554
 2677WAT    HW113382   4.826   3.663   2.638
 2677WAT    HW213383   4.840   3.640   2.489
 2677WAT    LP113384   4.720   3.665   2.551
 2677WAT    LP213385   4.790   3.755   2.544
 2678WAT     OW13386   1.170   1.474   0.949
 2678WAT    HW113387   1.084   1.431   0.941
 2678WAT    HW213388   1.153   1.552   1.000
 2678WAT    LP113389   1.215   1.432   0.982
 2678WAT    LP213390   1.195   1.490   0.886
 2679WAT     OW13391   2.248   5.682   5.741
 2679WAT    HW113392   2.268   5.714   5.653
 2679WAT    HW213393   2.212   5.758   5.787
 2679WAT    LP113394   2.201   5.630   5.739
 2679WAT    LP213395   2.306   5.659   5.773
 2680WAT     OW13396   5.376   2.838   5.417
 2680WAT    HW113397   5.433   2.814   5.490
 2680WAT    HW213398   5.289   2.847   5.456
 2680WAT    LP113399   5.397   2.899   5.388
 2680WAT    LP213400   5.377   2.788   5.368
 2681WAT     OW13401   3.750   6.334   6.012
 2681WAT    HW113402   3.755   6.304   5.921
 2681WAT    HW213403   3.770   6.427   6.008
 2681WAT    LP113404   3.686   6.323   6.038
 2681WAT    LP213405   3.798   6.300   6.051
 2682WAT     OW13406   1.138   3.633   1.548
 2682WAT    HW113407   1.164   3.566   1.611
 2682WAT    HW213408   1.128   3.713   1.600
 2682WAT    LP113409   1.188   3.642   1.499
 2682WAT    LP213410   1.078   3.616   1.517
 2683WAT     OW13411   6.256   2.748   3.412
 2683WAT    HW113412   6.201   2.822   3.384
 2683WAT    HW213413   6.302   2.721   3.333
 2683WAT    LP113414   6.301   2.769   3.461
 2683WAT    LP213415   6.217   2.696   3.437
 2684WAT     OW13416   4.636   3.694   6.412
 2684WAT    HW113417   4.552   3.686   6.368
 2684WAT    HW213418   4.694   3.635   6.365
 2684WAT    LP113419   4.660   3.760   6.408
 2684WAT    LP213420   4.631   3.675   6.479
 2685WAT     OW13421   5.173   5.027   0.542
 2685WAT    HW113422   5.146   4.994   0.628
 2685WAT    HW213423   5.238   4.964   0.511
 2685WAT    LP113424   5.118   5.030   0.498
 2685WAT    LP213425   5.201   5.091   0.548
 2686WAT     OW13426   2.711   5.704   3.674
 2686WAT    HW113427   2.717   5.784   3.725
 2686WAT    HW213428   2.801   5.678   3.657
 2686WAT    LP113429   2.677   5.654   3.710
 2686WAT    LP213430   2.677   5.715   3.614
 2687WAT     OW13431   4.962   5.721   1.048
 2687WAT    HW113432   4.942   5.815   1.055
 2687WAT    HW213433   4.954   5.688   1.137
 2687WAT    LP113434   4.917   5.689   1.006
 2687WAT    LP213435   5.027   5.712   1.024
 2688WAT     OW13436   1.261   5.931   2.727
 2688WAT    HW113437   1.326   5.873   2.767
 2688WAT    HW213438   1.312   6.006   2.695
 2688WAT    LP113439   1.229   5.898   2.674
 2688WAT    LP213440   1.214   5.951   2.774
 2689WAT     OW13441   5.613   3.888   3.688
 2689WAT    HW113442   5.625   3.901   3.782
 2689WAT    HW213443   5.518   3.884   3.677
 2689WAT    LP113444   5.640   3.941   3.652
 2689WAT    LP213445   5.643   3.828   3.667
 2690WAT     OW13446   5.851   2.691   1.416
 2690WAT    HW113447   5.781   2.732   1.466
 2690WAT    HW213448   5.817   2.606   1.391
 2690WAT    LP113449   5.866   2.729   1.359
 2690WAT    LP213450   5.909   2.685   1.454
 2691WAT     OW13451   1.921   0.264   1.285
 2691WAT    HW113452   1.890   0.334   1.342
 2691WAT    HW213453   1.972   0.310   1.217
 2691WAT    LP113454   1.962   0.219   1.320
 2691WAT    LP213455   1.868   0.229   1.256
 2692WAT     OW13456   4.413   3.935   2.515
 2692WAT    HW113457   4.432   4.011   2.571
 2692WAT    HW213458   4.491   3.925   2.462
 2692WAT    LP113459   4.401   3.878   2.554
 2692WAT    LP213460   4.357   3.948   2.475
 2693WAT     OW13461   1.365   1.478   3.026
 2693WAT    HW113462   1.330   1.507   2.942
 2693WAT    HW213463   1.399   1.390   3.009
 2693WAT    LP113464   1.417   1.520   3.047
 2693WAT    LP213465   1.315   1.476   3.075
 2694WAT     OW13466   4.036   3.569   4.582
 2694WAT    HW113467   4.121   3.573   4.538
 2694WAT    HW213468   3.985   3.507   4.530
 2694WAT    LP113469   4.044   3.545   4.648
 2694WAT    LP213470   4.006   3.632   4.584
 2695WAT     OW13471   0.400   6.205   1.293
 2695WAT    HW113472   0.328   6.162   1.340
 2695WAT    HW213473   0.358   6.246   1.217
 2695WAT    LP113474   0.431   6.253   1.333
 2695WAT    LP213475   0.447   6.158   1.272
 2696WAT     OW13476   5.606   4.342   3.998
 2696WAT    HW113477   5.596   4.408   3.929
 2696WAT    HW213478   5.668   4.279   3.962
 2696WAT    LP113479   5.632   4.372   4.056
 2696WAT    LP213480   5.545   4.311   4.013
 2697WAT     OW13481   6.002   4.280   4.055
 2697WAT    HW113482   6.009   4.242   4.143
 2697WAT    HW213483   5.933   4.228   4.013
 2697WAT    LP113484   5.984   4.347   4.058
 2697WAT    LP213485   6.062   4.273   4.020
 2698WAT     OW13486   3.775   3.376   2.044
 2698WAT    HW113487   3.714   3.377   1.971
 2698WAT    HW213488   3.739   3.438   2.108
 2698WAT    LP113489   3.780   3.312   2.072
 2698WAT    LP213490   3.839   3.397   2.024
 2699WAT     OW13491   1.130   3.100   2.173
 2699WAT    HW113492   1.135   3.028   2.236
 2699WAT    HW213493   1.079   3.167   2.217
 2699WAT    LP113494   1.194   3.123   2.157
 2699WAT    LP213495   1.098   3.079   2.114
 2700WAT     OW13496   5.065   2.945   0.790
 2700WAT    HW113497   5.145   2.935   0.842
 2700WAT    HW213498   5.018   3.016   0.832
 2700WAT    LP113499   5.081   2.961   0.723
 2700WAT    LP213500   5.027   2.886   0.791
 2701WAT     OW13501   6.290   1.627   2.508
 2701WAT    HW113502   6.269   1.663   2.422
 2701WAT    HW213503   6.345   1.694   2.549
 2701WAT    LP113504   6.232   1.617   2.546
 2701WAT    LP213505   6.325   1.567   2.502
 2702WAT     OW13506   0.325   4.109   5.717
 2702WAT    HW113507   0.322   4.062   5.634
 2702WAT    HW213508   0.233   4.126   5.739
 2702WAT    LP113509   0.355   4.071   5.767
 2702WAT    LP213510   0.359   4.170   5.710
 2703WAT     OW13511   3.370   2.752   4.683
 2703WAT    HW113512   3.389   2.670   4.728
 2703WAT    HW213513   3.438   2.759   4.615
 2703WAT    LP113514   3.307   2.751   4.654
 2703WAT    LP213515   3.375   2.806   4.727
 2704WAT     OW13516   5.099   0.541   5.130
 2704WAT    HW113517   5.126   0.450   5.115
 2704WAT    HW213518   5.100   0.551   5.225
 2704WAT    LP113519   5.145   0.585   5.100
 2704WAT    LP213520   5.035   0.552   5.104
 2705WAT     OW13521   4.396   0.035   1.701
 2705WAT    HW113522   4.469   0.036   1.638
 2705WAT    HW213523   4.401   0.120   1.744
 2705WAT    LP113524   4.335   0.028   1.668
 2705WAT    LP213525   4.405  -0.016   1.747
 2706WAT     OW13526   2.731   6.462   5.978
 2706WAT    HW113527   2.705   6.374   6.004
 2706WAT    HW213528   2.724   6.463   5.883
 2706WAT    LP113529   2.687   6.509   6.006
 2706WAT    LP213530   2.796   6.476   5.999
 2707WAT     OW13531   4.219   2.446   0.311
 2707WAT    HW113532   4.190   2.389   0.239
 2707WAT    HW213533   4.250   2.525   0.267
 2707WAT    LP113534   4.166   2.461   0.354
 2707WAT    LP213535   4.270   2.416   0.347
 2708WAT     OW13536   4.413   4.382   4.113
 2708WAT    HW113537   4.374   4.294   4.114
 2708WAT    HW213538   4.494   4.374   4.163
 2708WAT    LP113539   4.426   4.402   4.047
 2708WAT    LP213540   4.370   4.428   4.143
 2709WAT     OW13541   0.708   5.855   0.086
 2709WAT    HW113542   0.746   5.770   0.063
 2709WAT    HW213543   0.719   5.908   0.007
 2709WAT    LP113544   0.641   5.849   0.103
 2709WAT    LP213545   0.743   5.884   0.140
 2710WAT     OW13546   0.833   4.304   2.817
 2710WAT    HW113547   0.744   4.318   2.848
 2710WAT    HW213548   0.863   4.225   2.863
 2710WAT    LP113549   0.834   4.294   2.747
 2710WAT    LP213550   0.874   4.359   2.832
 2711WAT     OW13551   6.451   6.618   4.013
 2711WAT    HW113552   6.497   6.702   4.011
 2711WAT    HW213553   6.359   6.643   4.025
 2711WAT    LP113554   6.460   6.583   3.953
 2711WAT    LP213555   6.473   6.579   4.067
 2712WAT     OW13556   1.869   5.461   4.378
 2712WAT    HW113557   1.920   5.483   4.457
 2712WAT    HW213558   1.843   5.370   4.391
 2712WAT    LP113559   1.813   5.503   4.373
 2712WAT    LP213560   1.908   5.468   4.321
 2713WAT     OW13561   2.700   5.098   6.312
 2713WAT    HW113562   2.676   5.005   6.311
 2713WAT    HW213563   2.774   5.105   6.252
 2713WAT    LP113564   2.647   5.138   6.290
 2713WAT    LP213565   2.719   5.118   6.377
 2714WAT     OW13566   3.897   2.846   0.363
 2714WAT    HW113567   3.982   2.890   0.361
 2714WAT    HW213568   3.879   2.824   0.271
 2714WAT    LP113569   3.899   2.789   0.402
 2714WAT    LP213570   3.848   2.890   0.387
 2715WAT     OW13571   2.314   6.526   0.898
 2715WAT    HW113572   2.254   6.452   0.895
 2715WAT    HW213573   2.258   6.601   0.917
 2715WAT    LP113574   2.362   6.518   0.949
 2715WAT    LP213575   2.347   6.534   0.837
 2716WAT     OW13576   0.254   1.894   1.247
 2716WAT    HW113577   0.319   1.938   1.193
 2716WAT    HW213578   0.213   1.830   1.189
 2716WAT    LP113579   0.285   1.862   1.301
 2716WAT    LP213580   0.207   1.939   1.272
 2717WAT     OW13581   3.226   2.414   3.667
 2717WAT    HW113582   3.281   2.480   3.709
 2717WAT    HW213583   3.149   2.408   3.723
 2717WAT    LP113584   3.208   2.434   3.602
 2717WAT    LP213585   3.260   2.353   3.664
 2718WAT     OW13586   2.246   6.186   0.633
 2718WAT    HW113587   2.330   6.146   0.654
 2718WAT    HW213588   2.197   6.117   0.588
 2718WAT    LP113589   2.213   6.206   0.691
 2718WAT    LP213590   2.254   6.242   0.591
 2719WAT     OW13591   3.371   0.437   5.323
 2719WAT    HW113592   3.375   0.343   5.306
 2719WAT    HW213593   3.306   0.447   5.392
 2719WAT    LP113594   3.433   0.461   5.344
 2719WAT    LP213595   3.352   0.472   5.265
 2720WAT     OW13596   0.631   1.289   3.812
 2720WAT    HW113597   0.552   1.343   3.823
 2720WAT    HW213598   0.691   1.345   3.763
 2720WAT    LP113599   0.658   1.272   3.874
 2720WAT    LP213600   0.616   1.231   3.776
 2721WAT     OW13601   5.113   3.607   5.734
 2721WAT    HW113602   5.079   3.668   5.800
 2721WAT    HW213603   5.036   3.556   5.708
 2721WAT    LP113604   5.140   3.642   5.680
 2721WAT    LP213605   5.162   3.566   5.762
 2722WAT     OW13606   3.727   4.037   3.995
 2722WAT    HW113607   3.679   4.118   3.974
 2722WAT    HW213608   3.815   4.052   3.961
 2722WAT    LP113609   3.729   4.027   4.064
 2722WAT    LP213610   3.697   3.982   3.964
 2723WAT     OW13611   5.822   3.860   0.949
 2723WAT    HW113612   5.899   3.901   0.989
 2723WAT    HW213613   5.828   3.769   0.975
 2723WAT    LP113614   5.763   3.889   0.973
 2723WAT    LP213615   5.824   3.867   0.880
 2724WAT     OW13616   3.567   2.103   2.834
 2724WAT    HW113617   3.575   2.194   2.862
 2724WAT    HW213618   3.520   2.108   2.750
 2724WAT    LP113619   3.630   2.075   2.824
 2724WAT    LP213620   3.531   2.066   2.880
 2725WAT     OW13621   4.732   2.622   2.074
 2725WAT    HW113622   4.687   2.625   1.989
 2725WAT    HW213623   4.781   2.704   2.077
 2725WAT    LP113624   4.685   2.619   2.126
 2725WAT    LP213625   4.775   2.567   2.078
 2726WAT     OW13626   6.537   3.599   6.209
 2726WAT    HW113627   6.455   3.565   6.172
 2726WAT    HW213628   6.576   3.524   6.253
 2726WAT    LP113629   6.579   3.623   6.158
 2726WAT    LP213630   6.524   3.651   6.254
 2727WAT     OW13631   4.690   6.604   5.445
 2727WAT    HW113632   4.756   6.546   5.483
 2727WAT    HW213633   4.739   6.679   5.414
 2727WAT    LP113634   4.657   6.572   5.393
 2727WAT    LP213635   4.643   6.623   5.494
 2728WAT     OW13636   6.558   5.071   3.999
 2728WAT    HW113637   6.581   5.042   3.910
 2728WAT    HW213638   6.602   5.155   4.008
 2728WAT    LP113639   6.489   5.078   4.005
 2728WAT    LP213640   6.581   5.025   4.046
 2729WAT     OW13641   6.048   4.970   1.876
 2729WAT    HW113642   6.046   4.898   1.813
 2729WAT    HW213643   6.095   4.934   1.952
 2729WAT    LP113644   6.083   5.025   1.850
 2729WAT    LP213645   5.983   4.990   1.894
 2730WAT     OW13646   2.221   1.242   5.644
 2730WAT    HW113647   2.182   1.162   5.608
 2730WAT    HW213648   2.312   1.239   5.614
 2730WAT    LP113649   2.189   1.299   5.620
 2730WAT    LP213650   2.219   1.241   5.714
 2731WAT     OW13651   2.983   3.411   6.235
 2731WAT    HW113652   3.056   3.387   6.291
 2731WAT    HW213653   3.019   3.477   6.176
 2731WAT    LP113654   2.960   3.356   6.199
 2731WAT    LP213655   2.930   3.438   6.273
 2732WAT     OW13656   3.503   4.683   3.959
 2732WAT    HW113657   3.524   4.614   3.897
 2732WAT    HW213658   3.435   4.646   4.015
 2732WAT    LP113659   3.560   4.700   3.997
 2732WAT    LP213660   3.479   4.740   3.926
 2733WAT     OW13661   2.333   4.694   2.171
 2733WAT    HW113662   2.418   4.668   2.137
 2733WAT    HW213663   2.339   4.789   2.182
 2733WAT    LP113664   2.282   4.678   2.126
 2733WAT    LP213665   2.321   4.663   2.233
 2734WAT     OW13666   0.558   2.040   4.201
 2734WAT    HW113667   0.547   2.135   4.201
 2734WAT    HW213668   0.472   2.005   4.178
 2734WAT    LP113669   0.606   2.020   4.154
 2734WAT    LP213670   0.578   2.017   4.265
 2735WAT     OW13671   1.456   1.594   5.803
 2735WAT    HW113672   1.390   1.587   5.872
 2735WAT    HW213673   1.476   1.687   5.799
 2735WAT    LP113674   1.513   1.557   5.820
 2735WAT    LP213675   1.431   1.571   5.742
 2736WAT     OW13676   2.217   3.197   0.390
 2736WAT    HW113677   2.150   3.243   0.440
 2736WAT    HW213678   2.288   3.261   0.381
 2736WAT    LP113679   2.239   3.140   0.424
 2736WAT    LP213680   2.193   3.178   0.327
 2737WAT     OW13681   4.420   6.070   6.140
 2737WAT    HW113682   4.375   6.006   6.084
 2737WAT    HW213683   4.351   6.132   6.165
 2737WAT    LP113684   4.446   6.038   6.196
 2737WAT    LP213685   4.471   6.102   6.105
 2738WAT     OW13686   4.557   3.594   4.373
 2738WAT    HW113687   4.600   3.542   4.305
 2738WAT    HW213688   4.628   3.642   4.415
 2738WAT    LP113689   4.511   3.638   4.345
 2738WAT    LP213690   4.524   3.552   4.419
 2739WAT     OW13691   6.251   2.323   5.009
 2739WAT    HW113692   6.170   2.343   5.055
 2739WAT    HW213693   6.224   2.304   4.919
 2739WAT    LP113694   6.295   2.377   5.010
 2739WAT    LP213695   6.283   2.267   5.037
 2740WAT     OW13696   2.459   6.287   1.677
 2740WAT    HW113697   2.429   6.204   1.716
 2740WAT    HW213698   2.506   6.331   1.748
 2740WAT    LP113699   2.501   6.275   1.623
 2740WAT    LP213700   2.404   6.325   1.656
 2741WAT     OW13701   3.967   3.148   6.538
 2741WAT    HW113702   3.939   3.112   6.622
 2741WAT    HW213703   4.002   3.072   6.490
 2741WAT    LP113704   3.914   3.176   6.503
 2741WAT    LP213705   4.017   3.196   6.547
 2742WAT     OW13706   1.427   1.519   4.112
 2742WAT    HW113707   1.513   1.490   4.083
 2742WAT    HW213708   1.383   1.439   4.140
 2742WAT    LP113709   1.433   1.564   4.166
 2742WAT    LP213710   1.392   1.549   4.060
 2743WAT     OW13711   0.802   1.952   4.110
 2743WAT    HW113712   0.716   1.993   4.118
 2743WAT    HW213713   0.782   1.861   4.088
 2743WAT    LP113714   0.839   1.982   4.059
 2743WAT    LP213715   0.837   1.955   4.170
 2744WAT     OW13716   3.662   0.191   6.206
 2744WAT    HW113717   3.635   0.185   6.298
 2744WAT    HW213718   3.607   0.260   6.169
 2744WAT    LP113719   3.730   0.209   6.202
 2744WAT    LP213720   3.651   0.131   6.173
 2745WAT     OW13721   1.736   1.435   5.010
 2745WAT    HW113722   1.738   1.427   4.915
 2745WAT    HW213723   1.767   1.524   5.028
 2745WAT    LP113724   1.671   1.427   5.035
 2745WAT    LP213725   1.778   1.388   5.040
 2746WAT     OW13726   2.702   5.828   5.339
 2746WAT    HW113727   2.682   5.749   5.288
 2746WAT    HW213728   2.763   5.877   5.283
 2746WAT    LP113729   2.644   5.865   5.351
 2746WAT    LP213730   2.733   5.811   5.399
 2747WAT     OW13731   5.425   5.703   0.996
 2747WAT    HW113732   5.337   5.715   0.960
 2747WAT    HW213733   5.411   5.670   1.085
 2747WAT    LP113734   5.461   5.657   0.958
 2747WAT    LP213735   5.459   5.764   0.997
 2748WAT     OW13736   6.176   5.463   6.306
 2748WAT    HW113737   6.124   5.543   6.295
 2748WAT    HW213738   6.169   5.443   6.400
 2748WAT    LP113739   6.151   5.411   6.267
 2748WAT    LP213740   6.243   5.475   6.289
 2749WAT     OW13741   1.953   6.511   6.577
 2749WAT    HW113742   1.958   6.431   6.524
 2749WAT    HW213743   1.996   6.578   6.523
 2749WAT    LP113744   1.886   6.528   6.590
 2749WAT    LP213745   1.987   6.502   6.638
 2750WAT     OW13746   4.932   3.331   5.082
 2750WAT    HW113747   4.939   3.426   5.090
 2750WAT    HW213748   4.938   3.298   5.171
 2750WAT    LP113749   4.870   3.313   5.053
 2750WAT    LP213750   4.984   3.305   5.042
 2751WAT     OW13751   1.659   4.129   4.772
 2751WAT    HW113752   1.701   4.043   4.767
 2751WAT    HW213753   1.588   4.117   4.835
 2751WAT    LP113754   1.704   4.177   4.795
 2751WAT    LP213755   1.634   4.148   4.710
 2752WAT     OW13756   5.569   4.168   5.881
 2752WAT    HW113757   5.489   4.214   5.855
 2752WAT    HW213758   5.576   4.095   5.819
 2752WAT    LP113759   5.625   4.209   5.877
 2752WAT    LP213760   5.563   4.144   5.946
 2753WAT     OW13761   3.713   5.646   5.226
 2753WAT    HW113762   3.700   5.679   5.315
 2753WAT    HW213763   3.732   5.725   5.174
 2753WAT    LP113764   3.766   5.602   5.224
 2753WAT    LP213765   3.655   5.615   5.203
 2754WAT     OW13766   1.059   0.561   5.837
 2754WAT    HW113767   1.081   0.649   5.806
 2754WAT    HW213768   1.135   0.534   5.888
 2754WAT    LP113769   1.002   0.563   5.878
 2754WAT    LP213770   1.048   0.518   5.784
 2755WAT     OW13771   2.071   0.002   5.028
 2755WAT    HW113772   2.140   0.067   5.017
 2755WAT    HW213773   2.031  -0.005   4.941
 2755WAT    LP113774   2.097  -0.059   5.048
 2755WAT    LP213775   2.023   0.025   5.074
 2756WAT     OW13776   5.017   2.545   3.543
 2756WAT    HW113777   5.014   2.633   3.505
 2756WAT    HW213778   4.979   2.488   3.476
 2756WAT    LP113779   5.083   2.526   3.558
 2756WAT    LP213780   4.978   2.543   3.602
 2757WAT     OW13781   0.308   3.149   5.734
 2757WAT    HW113782   0.317   3.054   5.737
 2757WAT    HW213783   0.362   3.175   5.659
 2757WAT    LP113784   0.241   3.168   5.724
 2757WAT    LP213785   0.332   3.179   5.793
 2758WAT     OW13786   0.447   3.375   4.568
 2758WAT    HW113787   0.475   3.454   4.522
 2758WAT    HW213788   0.482   3.303   4.515
 2758WAT    LP113789   0.474   3.373   4.633
 2758WAT    LP213790   0.377   3.372   4.572
 2759WAT     OW13791   1.423   5.724   1.460
 2759WAT    HW113792   1.414   5.818   1.479
 2759WAT    HW213793   1.398   5.715   1.368
 2759WAT    LP113794   1.490   5.704   1.469
 2759WAT    LP213795   1.381   5.686   1.502
 2760WAT     OW13796   4.973   0.812   1.294
 2760WAT    HW113797   4.966   0.827   1.388
 2760WAT    HW213798   5.066   0.799   1.279
 2760WAT    LP113799   4.936   0.756   1.275
 2760WAT    LP213800   4.949   0.868   1.258
 2761WAT     OW13801   1.600   3.880   4.476
 2761WAT    HW113802   1.656   3.886   4.399
 2761WAT    HW213803   1.564   3.968   4.486
 2761WAT    LP113804   1.550   3.833   4.467
 2761WAT    LP213805   1.638   3.863   4.533
 2762WAT     OW13806   2.306   5.779   0.549
 2762WAT    HW113807   2.265   5.863   0.526
 2762WAT    HW213808   2.235   5.715   0.540
 2762WAT    LP113809   2.358   5.764   0.505
 2762WAT    LP213810   2.330   5.780   0.615
 2763WAT     OW13811   2.341   4.755   0.925
 2763WAT    HW113812   2.302   4.691   0.983
 2763WAT    HW213813   2.281   4.759   0.850
 2763WAT    LP113814   2.346   4.818   0.956
 2763WAT    LP213815   2.405   4.735   0.904
 2764WAT     OW13816   5.153   0.546   3.604
 2764WAT    HW113817   5.153   0.603   3.527
 2764WAT    HW213818   5.125   0.603   3.676
 2764WAT    LP113819   5.108   0.493   3.596
 2764WAT    LP213820   5.217   0.520   3.616
 2765WAT     OW13821   1.476   4.897   5.767
 2765WAT    HW113822   1.501   4.807   5.791
 2765WAT    HW213823   1.555   4.948   5.783
 2765WAT    LP113824   1.458   4.900   5.700
 2765WAT    LP213825   1.424   4.919   5.807
 2766WAT     OW13826   2.185   2.685   3.585
 2766WAT    HW113827   2.163   2.611   3.529
 2766WAT    HW213828   2.102   2.729   3.602
 2766WAT    LP113829   2.214   2.663   3.645
 2766WAT    LP213830   2.230   2.728   3.553
 2767WAT     OW13831   5.436   0.472   4.214
 2767WAT    HW113832   5.377   0.529   4.164
 2767WAT    HW213833   5.380   0.434   4.282
 2767WAT    LP113834   5.463   0.422   4.173
 2767WAT    LP213835   5.488   0.509   4.243
 2768WAT     OW13836   1.519   1.025   4.833
 2768WAT    HW113837   1.481   0.948   4.875
 2768WAT    HW213838   1.476   1.099   4.875
 2768WAT    LP113839   1.588   1.027   4.844
 2768WAT    LP213840   1.506   1.025   4.764
 2769WAT     OW13841   0.224   1.453   3.061
 2769WAT    HW113842   0.162   1.523   3.080
 2769WAT    HW213843   0.290   1.460   3.130
 2769WAT    LP113844   0.193   1.390   3.063
 2769WAT    LP213845   0.254   1.462   2.998
 2770WAT     OW13846   4.324   5.872   3.562
 2770WAT    HW113847   4.314   5.867   3.657
 2770WAT    HW213848   4.275   5.797   3.529
 2770WAT    LP113849   4.297   5.932   3.538
 2770WAT    LP213850   4.391   5.867   3.544
 2771WAT     OW13851   4.890   1.719   2.139
 2771WAT    HW113852   4.983   1.735   2.149
 2771WAT    HW213853   4.848   1.779   2.200
 2771WAT    LP113854   4.869   1.732   2.073
 2771WAT    LP213855   4.874   1.652   2.155
 2772WAT     OW13856   5.570   4.847   5.127
 2772WAT    HW113857   5.519   4.911   5.077
 2772WAT    HW213858   5.661   4.870   5.110
 2772WAT    LP113859   5.555   4.851   5.195
 2772WAT    LP213860   5.557   4.782   5.104
 2773WAT     OW13861   4.451   5.774   4.845
 2773WAT    HW113862   4.367   5.750   4.805
 2773WAT    HW213863   4.468   5.704   4.908
 2773WAT    LP113864   4.502   5.776   4.797
 2773WAT    LP213865   4.446   5.836   4.877
 2774WAT     OW13866   1.524   0.929   3.134
 2774WAT    HW113867   1.440   0.884   3.144
 2774WAT    HW213868   1.581   0.887   3.199
 2774WAT    LP113869   1.550   0.920   3.070
 2774WAT    LP213870   1.517   0.997   3.148
 2775WAT     OW13871   0.864   4.151   4.472
 2775WAT    HW113872   0.872   4.058   4.453
 2775WAT    HW213873   0.780   4.160   4.516
 2775WAT    LP113874   0.916   4.172   4.514
 2775WAT    LP213875   0.865   4.189   4.413
 2776WAT     OW13876   2.215   2.811   1.646
 2776WAT    HW113877   2.244   2.720   1.642
 2776WAT    HW213878   2.132   2.813   1.599
 2776WAT    LP113879   2.206   2.831   1.713
 2776WAT    LP213880   2.262   2.853   1.615
 2777WAT     OW13881   6.555   6.063   4.089
 2777WAT    HW113882   6.467   6.087   4.060
 2777WAT    HW213883   6.543   6.028   4.178
 2777WAT    LP113884   6.583   6.014   4.047
 2777WAT    LP213885   6.597   6.119   4.090
 2778WAT     OW13886   0.045   4.576   6.445
 2778WAT    HW113887   0.075   4.556   6.533
 2778WAT    HW213888   0.125   4.591   6.395
 2778WAT    LP113889   0.009   4.522   6.418
 2778WAT    LP213890   0.004   4.633   6.445
 2779WAT     OW13891   4.978   2.723   2.728
 2779WAT    HW113892   4.888   2.709   2.758
 2779WAT    HW213893   4.975   2.707   2.634
 2779WAT    LP113894   4.998   2.789   2.741
 2779WAT    LP213895   5.022   2.678   2.760
 2780WAT     OW13896   0.420   6.077   2.175
 2780WAT    HW113897   0.389   5.992   2.205
 2780WAT    HW213898   0.346   6.113   2.124
 2780WAT    LP113899   0.435   6.119   2.229
 2780WAT    LP213900   0.476   6.070   2.134
 2781WAT     OW13901   2.965   6.364   2.558
 2781WAT    HW113902   3.008   6.447   2.539
 2781WAT    HW213903   2.876   6.389   2.584
 2781WAT    LP113904   2.963   6.323   2.501
 2781WAT    LP213905   2.997   6.330   2.610
 2782WAT     OW13906   4.483   5.749   3.212
 2782WAT    HW113907   4.533   5.710   3.284
 2782WAT    HW213908   4.536   5.732   3.134
 2782WAT    LP113909   4.420   5.719   3.206
 2782WAT    LP213910   4.475   5.818   3.222
 2783WAT     OW13911   4.693   5.870   3.766
 2783WAT    HW113912   4.663   5.908   3.683
 2783WAT    HW213913   4.649   5.785   3.771
 2783WAT    LP113914   4.763   5.862   3.766
 2783WAT    LP213915   4.674   5.910   3.820
 2784WAT     OW13916   6.291   5.934   0.805
 2784WAT    HW113917   6.300   5.839   0.816
 2784WAT    HW213918   6.345   5.953   0.728
 2784WAT    LP113919   6.225   5.952   0.794
 2784WAT    LP213920   6.316   5.968   0.861
 2785WAT     OW13921   3.260   0.958   2.868
 2785WAT    HW113922   3.332   1.021   2.866
 2785WAT    HW213923   3.214   0.976   2.950
 2785WAT    LP113924   3.218   0.968   2.813
 2785WAT    LP213925   3.285   0.893   2.867
 2786WAT     OW13926   0.495   1.578   0.054
 2786WAT    HW113927   0.419   1.634   0.071
 2786WAT    HW213928   0.468   1.491   0.084
 2786WAT    LP113929   0.510   1.577  -0.014
 2786WAT    LP213930   0.550   1.601   0.090
 2787WAT     OW13931   1.298   5.418   0.108
 2787WAT    HW113932   1.218   5.379   0.143
 2787WAT    HW213933   1.273   5.449   0.021
 2787WAT    LP113934   1.320   5.471   0.148
 2787WAT    LP213935   1.349   5.370   0.104
 2788WAT     OW13936   4.333   2.531   1.907
 2788WAT    HW113937   4.342   2.443   1.944
 2788WAT    HW213938   4.263   2.523   1.842
 2788WAT    LP113939   4.316   2.577   1.956
 2788WAT    LP213940   4.393   2.550   1.876
 2789WAT     OW13941   2.044   3.518   0.871
 2789WAT    HW113942   2.096   3.596   0.853
 2789WAT    HW213943   2.108   3.447   0.873
 2789WAT    LP113944   2.012   3.524   0.933
 2789WAT    LP213945   1.997   3.507   0.821
 2790WAT     OW13946   2.059   2.003   1.991
 2790WAT    HW113947   2.069   1.908   1.982
 2790WAT    HW213948   1.964   2.015   2.001
 2790WAT    LP113949   2.093   2.026   2.048
 2790WAT    LP213950   2.082   2.036   1.934
 2791WAT     OW13951   6.305   2.104   0.456
 2791WAT    HW113952   6.355   2.105   0.538
 2791WAT    HW213953   6.304   2.196   0.429
 2791WAT    LP113954   6.337   2.065   0.408
 2791WAT    LP213955   6.240   2.081   0.467
 2792WAT     OW13956   0.654   5.504   3.156
 2792WAT    HW113957   0.687   5.455   3.081
 2792WAT    HW213958   0.716   5.576   3.168
 2792WAT    LP113959   0.589   5.529   3.143
 2792WAT    LP213960   0.651   5.464   3.213
 2793WAT     OW13961   0.740   2.485   4.316
 2793WAT    HW113962   0.812   2.495   4.255
 2793WAT    HW213963   0.772   2.425   4.384
 2793WAT    LP113964   0.723   2.547   4.344
 2793WAT    LP213965   0.684   2.458   4.284
 2794WAT     OW13966   1.530   0.699   1.161
 2794WAT    HW113967   1.471   0.724   1.232
 2794WAT    HW213968   1.602   0.762   1.167
 2794WAT    LP113969   1.554   0.634   1.169
 2794WAT    LP213970   1.498   0.705   1.099
 2795WAT     OW13971   5.575   6.484   5.679
 2795WAT    HW113972   5.518   6.545   5.725
 2795WAT    HW213973   5.649   6.471   5.738
 2795WAT    LP113974   5.543   6.423   5.667
 2795WAT    LP213975   5.597   6.511   5.618
 2796WAT     OW13976   1.265   4.080   3.088
 2796WAT    HW113977   1.233   4.111   3.004
 2796WAT    HW213978   1.200   4.015   3.117
 2796WAT    LP113979   1.328   4.050   3.082
 2796WAT    LP213980   1.269   4.133   3.134
 2797WAT     OW13981   1.962   4.902   1.129
 2797WAT    HW113982   1.986   4.924   1.039
 2797WAT    HW213983   1.905   4.826   1.122
 2797WAT    LP113984   2.019   4.887   1.167
 2797WAT    LP213985   1.928   4.956   1.159
 2798WAT     OW13986   4.567   0.245   5.613
 2798WAT    HW113987   4.536   0.157   5.592
 2798WAT    HW213988   4.487   0.297   5.625
 2798WAT    LP113989   4.604   0.245   5.672
 2798WAT    LP213990   4.605   0.271   5.561
 2799WAT     OW13991   5.147   4.786   2.074
 2799WAT    HW113992   5.226   4.758   2.121
 2799WAT    HW213993   5.179   4.817   1.989
 2799WAT    LP113994   5.103   4.732   2.065
 2799WAT    LP213995   5.114   4.837   2.108
 2800WAT     OW13996   5.198   3.845   0.697
 2800WAT    HW113997   5.115   3.806   0.671
 2800WAT    HW213998   5.208   3.821   0.789
 2800WAT    LP113999   5.251   3.819   0.659
 2800WAT    LP214000   5.196   3.915   0.690
 2801WAT     OW14001   1.676   6.604   5.060
 2801WAT    HW114002   1.611   6.671   5.040
 2801WAT    HW214003   1.742   6.649   5.113
 2801WAT    LP114004   1.647   6.551   5.095
 2801WAT    LP214005   1.706   6.580   5.001
 2802WAT     OW14006   5.280   0.251   0.573
 2802WAT    HW114007   5.214   0.264   0.505
 2802WAT    HW214008   5.259   0.167   0.611
 2802WAT    LP114009   5.344   0.251   0.545
 2802WAT    LP214010   5.276   0.302   0.621
 2803WAT     OW14011   5.790   4.633   0.119
 2803WAT    HW114012   5.732   4.593   0.054
 2803WAT    HW214013   5.783   4.727   0.102
 2803WAT    LP114014   5.769   4.618   0.184
 2803WAT    LP214015   5.856   4.611   0.110
 2804WAT     OW14016   4.235   2.479   5.841
 2804WAT    HW114017   4.265   2.529   5.765
 2804WAT    HW214018   4.312   2.475   5.898
 2804WAT    LP114019   4.182   2.512   5.873
 2804WAT    LP214020   4.215   2.415   5.822
 2805WAT     OW14021   1.457   1.236   6.592
 2805WAT    HW114022   1.437   1.311   6.536
 2805WAT    HW214023   1.498   1.172   6.534
 2805WAT    LP114024   1.501   1.254   6.644
 2805WAT    LP214025   1.398   1.210   6.620
 2806WAT     OW14026   0.680   0.695   6.144
 2806WAT    HW114027   0.720   0.613   6.115
 2806WAT    HW214028   0.619   0.669   6.213
 2806WAT    LP114029   0.729   0.739   6.170
 2806WAT    LP214030   0.646   0.726   6.092
 2807WAT     OW14031   4.722   4.025   5.467
 2807WAT    HW114032   4.674   3.949   5.433
 2807WAT    HW214033   4.654   4.084   5.499
 2807WAT    LP114034   4.765   4.006   5.518
 2807WAT    LP214035   4.759   4.056   5.415
 2808WAT     OW14036   6.172   2.971   3.252
 2808WAT    HW114037   6.110   2.969   3.180
 2808WAT    HW214038   6.258   2.971   3.210
 2808WAT    LP114039   6.164   3.028   3.291
 2808WAT    LP214040   6.165   2.914   3.293
 2809WAT     OW14041   5.047   3.804   2.346
 2809WAT    HW114042   5.119   3.790   2.285
 2809WAT    HW214043   4.988   3.730   2.332
 2809WAT    LP114044   5.070   3.804   2.412
 2809WAT    LP214045   5.014   3.865   2.333
 2810WAT     OW14046   5.914   2.754   1.748
 2810WAT    HW114047   5.997   2.735   1.704
 2810WAT    HW214048   5.881   2.833   1.705
 2810WAT    LP114049   5.869   2.701   1.740
 2810WAT    LP214050   5.924   2.765   1.816
 2811WAT     OW14051   1.691   3.196   6.531
 2811WAT    HW114052   1.767   3.152   6.571
 2811WAT    HW214053   1.625   3.127   6.523
 2811WAT    LP114054   1.668   3.248   6.572
 2811WAT    LP214055   1.709   3.222   6.469
 2812WAT     OW14056   0.227   3.462   1.719
 2812WAT    HW114057   0.237   3.384   1.665
 2812WAT    HW214058   0.153   3.509   1.680
 2812WAT    LP114059   0.213   3.445   1.785
 2812WAT    LP214060   0.285   3.501   1.717
 2813WAT     OW14061   4.396   4.663   0.556
 2813WAT    HW114062   4.434   4.636   0.640
 2813WAT    HW214063   4.303   4.641   0.564
 2813WAT    LP114064   4.404   4.732   0.546
 2813WAT    LP214065   4.425   4.628   0.503
 2814WAT     OW14066   6.586   5.699   1.611
 2814WAT    HW114067   6.561   5.777   1.660
 2814WAT    HW214068   6.502   5.662   1.582
 2814WAT    LP114069   6.626   5.716   1.556
 2814WAT    LP214070   6.620   5.654   1.652
 2815WAT     OW14071   3.026   3.670   1.934
 2815WAT    HW114072   3.057   3.583   1.959
 2815WAT    HW214073   2.943   3.680   1.981
 2815WAT    LP114074   3.072   3.719   1.953
 2815WAT    LP214075   3.015   3.673   1.865
 2816WAT     OW14076   4.944   6.581   6.334
 2816WAT    HW114077   4.863   6.631   6.330
 2816WAT    HW214078   4.936   6.528   6.413
 2816WAT    LP114079   4.951   6.540   6.278
 2816WAT    LP214080   5.000   6.624   6.339
 2817WAT     OW14081   2.246   3.720   1.572
 2817WAT    HW114082   2.230   3.639   1.621
 2817WAT    HW214083   2.331   3.706   1.531
 2817WAT    LP114084   2.196   3.729   1.524
 2817WAT    LP214085   2.247   3.775   1.615
 2818WAT     OW14086   2.411   1.154   4.755
 2818WAT    HW114087   2.377   1.121   4.838
 2818WAT    HW214088   2.474   1.088   4.726
 2818WAT    LP114089   2.360   1.162   4.708
 2818WAT    LP214090   2.443   1.216   4.764
 2819WAT     OW14091   3.451   5.424   5.307
 2819WAT    HW114092   3.387   5.364   5.270
 2819WAT    HW214093   3.514   5.439   5.235
 2819WAT    LP114094   3.421   5.484   5.325
 2819WAT    LP214095   3.483   5.396   5.362
 2820WAT     OW14096   5.619   0.225   2.289
 2820WAT    HW114097   5.628   0.287   2.216
 2820WAT    HW214098   5.704   0.181   2.293
 2820WAT    LP114099   5.605   0.258   2.349
 2820WAT    LP214100   5.568   0.179   2.276
 2821WAT     OW14101   4.085   3.393   6.621
 2821WAT    HW114102   4.061   3.309   6.581
 2821WAT    HW214103   4.100   3.372   6.713
 2821WAT    LP114104   4.144   3.418   6.592
 2821WAT    LP214105   4.034   3.439   6.614
 2822WAT     OW14106   2.120   2.024   4.773
 2822WAT    HW114107   2.142   1.937   4.807
 2822WAT    HW214108   2.044   2.051   4.824
 2822WAT    LP114109   2.173   2.069   4.782
 2822WAT    LP214110   2.104   2.020   4.705
 2823WAT     OW14111   4.191   5.101   3.853
 2823WAT    HW114112   4.229   5.061   3.774
 2823WAT    HW214113   4.107   5.136   3.824
 2823WAT    LP114114   4.182   5.053   3.903
 2823WAT    LP214115   4.233   5.152   3.877
 2824WAT     OW14116   6.616   3.419   4.528
 2824WAT    HW114117   6.558   3.382   4.461
 2824WAT    HW214118   6.681   3.469   4.478
 2824WAT    LP114119   6.580   3.461   4.571
 2824WAT    LP214120   6.647   3.369   4.566
 2825WAT     OW14121   1.143   4.079   5.054
 2825WAT    HW114122   1.070   4.073   5.116
 2825WAT    HW214123   1.222   4.080   5.108
 2825WAT    LP114124   1.143   4.024   5.011
 2825WAT    LP214125   1.139   4.138   5.016
 2826WAT     OW14126   4.920   6.668   5.041
 2826WAT    HW114127   4.952   6.582   5.070
 2826WAT    HW214128   4.988   6.700   4.982
 2826WAT    LP114129   4.859   6.662   5.008
 2826WAT    LP214130   4.913   6.711   5.096
 2827WAT     OW14131   4.193   4.465   4.655
 2827WAT    HW114132   4.240   4.519   4.592
 2827WAT    HW214133   4.140   4.527   4.706
 2827WAT    LP114134   4.152   4.418   4.623
 2827WAT    LP214135   4.238   4.431   4.697
 2828WAT     OW14136   6.768   1.297   0.549
 2828WAT    HW114137   6.721   1.214   0.552
 2828WAT    HW214138   6.704   1.362   0.581
 2828WAT    LP114139   6.824   1.295   0.591
 2828WAT    LP214140   6.787   1.312   0.484
 2829WAT     OW14141   1.099   0.901   5.290
 2829WAT    HW114142   1.105   0.807   5.304
 2829WAT    HW214143   1.015   0.926   5.328
 2829WAT    LP114144   1.152   0.934   5.322
 2829WAT    LP214145   1.101   0.916   5.221
 2830WAT     OW14146   4.803   4.947   1.919
 2830WAT    HW114147   4.771   4.903   1.997
 2830WAT    HW214148   4.794   4.882   1.849
 2830WAT    LP114149   4.765   5.004   1.905
 2830WAT    LP214150   4.870   4.966   1.927
 2831WAT     OW14151   4.789   4.740   0.383
 2831WAT    HW114152   4.776   4.788   0.465
 2831WAT    HW214153   4.712   4.683   0.376
 2831WAT    LP114154   4.792   4.784   0.329
 2831WAT    LP214155   4.848   4.702   0.386
 2832WAT     OW14156   0.269   5.598   4.879
 2832WAT    HW114157   0.348   5.547   4.898
 2832WAT    HW214158   0.228   5.552   4.805
 2832WAT    LP114159   0.226   5.598   4.934
 2832WAT    LP214160   0.286   5.663   4.861
 2833WAT     OW14161   2.512   3.797   0.530
 2833WAT    HW114162   2.438   3.752   0.490
 2833WAT    HW214163   2.586   3.778   0.472
 2833WAT    LP114164   2.501   3.866   0.534
 2833WAT    LP214165   2.524   3.771   0.594
 2834WAT     OW14166   1.302   4.866   2.277
 2834WAT    HW114167   1.386   4.912   2.274
 2834WAT    HW214168   1.320   4.779   2.242
 2834WAT    LP114169   1.279   4.862   2.343
 2834WAT    LP214170   1.254   4.899   2.238
 2835WAT     OW14171   3.447   5.581   1.466
 2835WAT    HW114172   3.439   5.675   1.483
 2835WAT    HW214173   3.358   5.554   1.442
 2835WAT    LP114174   3.491   5.569   1.413
 2835WAT    LP214175   3.469   5.547   1.523
 2836WAT     OW14176   3.477   4.905   4.289
 2836WAT    HW114177   3.492   4.940   4.377
 2836WAT    HW214178   3.415   4.833   4.302
 2836WAT    LP114179   3.449   4.954   4.247
 2836WAT    LP214180   3.537   4.882   4.261
 2837WAT     OW14181   1.914   3.641   3.165
 2837WAT    HW114182   1.965   3.722   3.158
 2837WAT    HW214183   1.980   3.572   3.169
 2837WAT    LP114184   1.875   3.641   3.223
 2837WAT    LP214185   1.873   3.633   3.109
 2838WAT     OW14186   3.741   4.107   1.341
 2838WAT    HW114187   3.820   4.151   1.310
 2838WAT    HW214188   3.676   4.121   1.272
 2838WAT    LP114189   3.753   4.038   1.350
 2838WAT    LP214190   3.719   4.135   1.401
 2839WAT     OW14191   4.243   2.629   3.889
 2839WAT    HW114192   4.334   2.602   3.901
 2839WAT    HW214193   4.191   2.563   3.935
 2839WAT    LP114194   4.232   2.693   3.916
 2839WAT    LP214195   4.226   2.630   3.821
 2840WAT     OW14196   5.027   4.006   5.036
 2840WAT    HW114197   4.968   4.034   5.106
 2840WAT    HW214198   5.114   4.015   5.074
 2840WAT    LP114199   5.014   3.940   5.018
 2840WAT    LP214200   5.020   4.048   4.980
 2841WAT     OW14201   5.090   0.556   5.408
 2841WAT    HW114202   5.130   0.481   5.451
 2841WAT    HW214203   5.126   0.632   5.453
 2841WAT    LP114204   5.106   0.557   5.340
 2841WAT    LP214205   5.020   0.553   5.415
 2842WAT     OW14206   5.688   2.489   1.320
 2842WAT    HW114207   5.645   2.445   1.393
 2842WAT    HW214208   5.745   2.423   1.282
 2842WAT    LP114209   5.641   2.512   1.273
 2842WAT    LP214210   5.726   2.544   1.343
 2843WAT     OW14211   4.509   1.749   2.962
 2843WAT    HW114212   4.507   1.654   2.973
 2843WAT    HW214213   4.557   1.763   2.880
 2843WAT    LP114214   4.444   1.775   2.957
 2843WAT    LP214215   4.543   1.780   3.015
 2844WAT     OW14216   1.853   0.438   5.350
 2844WAT    HW114217   1.898   0.414   5.430
 2844WAT    HW214218   1.922   0.467   5.291
 2844WAT    LP114219   1.818   0.384   5.323
 2844WAT    LP214220   1.807   0.490   5.362
 2845WAT     OW14221   5.988   4.375   3.222
 2845WAT    HW114222   5.996   4.280   3.232
 2845WAT    HW214223   5.904   4.396   3.264
 2845WAT    LP114224   6.040   4.408   3.255
 2845WAT    LP214225   5.987   4.393   3.155
 2846WAT     OW14226   4.605   1.288   1.718
 2846WAT    HW114227   4.638   1.211   1.671
 2846WAT    HW214228   4.656   1.361   1.681
 2846WAT    LP114229   4.537   1.297   1.705
 2846WAT    LP214230   4.616   1.283   1.786
 2847WAT     OW14231   3.696   5.849   4.142
 2847WAT    HW114232   3.647   5.782   4.094
 2847WAT    HW214233   3.628   5.911   4.171
 2847WAT    LP114234   3.729   5.821   4.197
 2847WAT    LP214235   3.742   5.881   4.101
 2848WAT     OW14236   2.837   2.647   0.371
 2848WAT    HW114237   2.830   2.742   0.381
 2848WAT    HW214238   2.904   2.635   0.305
 2848WAT    LP114239   2.856   2.617   0.432
 2848WAT    LP214240   2.776   2.620   0.350
 2849WAT     OW14241   0.641   3.051   0.342
 2849WAT    HW114242   0.639   3.100   0.424
 2849WAT    HW214243   0.584   3.101   0.283
 2849WAT    LP114244   0.706   3.048   0.316
 2849WAT    LP214245   0.617   2.986   0.351
 2850WAT     OW14246   5.963   4.078   3.737
 2850WAT    HW114247   5.949   4.130   3.658
 2850WAT    HW214248   6.046   4.110   3.772
 2850WAT    LP114249   5.911   4.090   3.783
 2850WAT    LP214250   5.966   4.010   3.722
 2851WAT     OW14251   6.723   6.259   6.524
 2851WAT    HW114252   6.694   6.262   6.433
 2851WAT    HW214253   6.804   6.208   6.522
 2851WAT    LP114254   6.735   6.324   6.549
 2851WAT    LP214255   6.675   6.227   6.564
 2852WAT     OW14256   6.660   2.218   6.329
 2852WAT    HW114257   6.628   2.237   6.241
 2852WAT    HW214258   6.592   2.254   6.388
 2852WAT    LP114259   6.667   2.149   6.339
 2852WAT    LP214260   6.721   2.250   6.341
 2853WAT     OW14261   1.104   3.287   2.822
 2853WAT    HW114262   1.141   3.349   2.759
 2853WAT    HW214263   1.158   3.209   2.813
 2853WAT    LP114264   1.107   3.313   2.887
 2853WAT    LP214265   1.037   3.273   2.806
 2854WAT     OW14266   5.283   2.494   3.562
 2854WAT    HW114267   5.192   2.522   3.575
 2854WAT    HW214268   5.276   2.405   3.527
 2854WAT    LP114269   5.316   2.536   3.517
 2854WAT    LP214270   5.318   2.494   3.623
 2855WAT     OW14271   4.370   5.652   1.241
 2855WAT    HW114272   4.298   5.652   1.177
 2855WAT    HW214273   4.329   5.680   1.323
 2855WAT    LP114274   4.397   5.588   1.248
 2855WAT    LP214275   4.420   5.697   1.221
 2856WAT     OW14276   4.382   0.553   5.298
 2856WAT    HW114277   4.453   0.571   5.360
 2856WAT    HW214278   4.385   0.626   5.237
 2856WAT    LP114279   4.393   0.493   5.265
 2856WAT    LP214280   4.320   0.551   5.331
 2857WAT     OW14281   2.569   4.609   2.064
 2857WAT    HW114282   2.554   4.569   1.978
 2857WAT    HW214283   2.619   4.543   2.112
 2857WAT    LP114284   2.607   4.668   2.057
 2857WAT    LP214285   2.509   4.623   2.096
 2858WAT     OW14286   5.985   2.386   0.345
 2858WAT    HW114287   5.892   2.405   0.351
 2858WAT    HW214288   5.996   2.348   0.257
 2858WAT    LP114289   6.023   2.445   0.352
 2858WAT    LP214290   6.005   2.340   0.394
 2859WAT     OW14291   3.175   2.542   1.668
 2859WAT    HW114292   3.167   2.621   1.615
 2859WAT    HW214293   3.089   2.531   1.709
 2859WAT    LP114294   3.190   2.487   1.627
 2859WAT    LP214295   3.224   2.549   1.717
 2860WAT     OW14296   6.256   1.964   5.244
 2860WAT    HW114297   6.172   2.010   5.243
 2860WAT    HW214298   6.282   1.964   5.336
 2860WAT    LP114299   6.248   1.899   5.221
 2860WAT    LP214300   6.303   1.998   5.205
 2861WAT     OW14301   1.023   0.212   1.430
 2861WAT    HW114302   0.956   0.161   1.384
 2861WAT    HW214303   1.054   0.155   1.500
 2861WAT    LP114304   1.075   0.229   1.386
 2861WAT    LP214305   0.995   0.271   1.456
 2862WAT     OW14306   5.832   4.643   2.108
 2862WAT    HW114307   5.833   4.591   2.188
 2862WAT    HW214308   5.875   4.725   2.133
 2862WAT    LP114309   5.868   4.611   2.057
 2862WAT    LP214310   5.767   4.655   2.087
 2863WAT     OW14311   3.363   0.106   6.600
 2863WAT    HW114312   3.270   0.105   6.622
 2863WAT    HW214313   3.403   0.045   6.662
 2863WAT    LP114314   3.374   0.085   6.534
 2863WAT    LP214315   3.390   0.170   6.609
 2864WAT     OW14316   5.442   2.901   5.971
 2864WAT    HW114317   5.377   2.930   5.906
 2864WAT    HW214318   5.493   2.979   5.991
 2864WAT    LP114319   5.410   2.876   6.028
 2864WAT    LP214320   5.483   2.851   5.944
 2865WAT     OW14321   1.753   0.250   2.398
 2865WAT    HW114322   1.811   0.177   2.377
 2865WAT    HW214323   1.734   0.240   2.491
 2865WAT    LP114324   1.785   0.311   2.386
 2865WAT    LP214325   1.694   0.247   2.361
 2866WAT     OW14326   6.333   4.218   4.951
 2866WAT    HW114327   6.407   4.259   4.996
 2866WAT    HW214328   6.372   4.173   4.876
 2866WAT    LP114329   6.301   4.173   4.993
 2866WAT    LP214330   6.287   4.267   4.930
 2867WAT     OW14331   4.075   0.855   5.927
 2867WAT    HW114332   4.059   0.871   6.020
 2867WAT    HW214333   4.034   0.770   5.910
 2867WAT    LP114334   4.046   0.905   5.888
 2867WAT    LP214335   4.144   0.852   5.915
 2868WAT     OW14336   4.471   4.094   4.560
 2868WAT    HW114337   4.381   4.079   4.530
 2868WAT    HW214338   4.465   4.176   4.609
 2868WAT    LP114339   4.492   4.042   4.601
 2868WAT    LP214340   4.514   4.101   4.506
 2869WAT     OW14341   4.069   3.445   5.790
 2869WAT    HW114342   4.141   3.399   5.833
 2869WAT    HW214343   3.994   3.433   5.849
 2869WAT    LP114344   4.084   3.513   5.783
 2869WAT    LP214345   4.055   3.418   5.727
 2870WAT     OW14346   6.222   4.394   0.820
 2870WAT    HW114347   6.142   4.344   0.839
 2870WAT    HW214348   6.191   4.472   0.773
 2870WAT    LP114349   6.254   4.412   0.879
 2870WAT    LP214350   6.265   4.357   0.780
 2871WAT     OW14351   5.794   5.519   5.377
 2871WAT    HW114352   5.765   5.506   5.287
 2871WAT    HW214353   5.805   5.431   5.412
 2871WAT    LP114354   5.855   5.554   5.379
 2871WAT    LP214355   5.746   5.554   5.414
 2872WAT     OW14356   4.272   1.131   3.475
 2872WAT    HW114357   4.324   1.210   3.464
 2872WAT    HW214358   4.299   1.095   3.559
 2872WAT    LP114359   4.203   1.146   3.475
 2872WAT    LP214360   4.285   1.085   3.423
 2873WAT     OW14361   0.146   5.234   1.276
 2873WAT    HW114362   0.126   5.227   1.183
 2873WAT    HW214363   0.168   5.326   1.289
 2873WAT    LP114364   0.090   5.216   1.315
 2873WAT    LP214365   0.200   5.193   1.293
 2874WAT     OW14366   0.227   2.121   2.435
 2874WAT    HW114367   0.321   2.103   2.437
 2874WAT    HW214368   0.205   2.141   2.526
 2874WAT    LP114369   0.213   2.175   2.393
 2874WAT    LP214370   0.192   2.064   2.413
 2875WAT     OW14371   3.566   3.012   5.443
 2875WAT    HW114372   3.537   2.930   5.483
 2875WAT    HW214373   3.661   3.012   5.456
 2875WAT    LP114374   3.550   3.014   5.375
 2875WAT    LP214375   3.536   3.067   5.475
 2876WAT     OW14376   4.678   3.663   2.108
 2876WAT    HW114377   4.692   3.757   2.101
 2876WAT    HW214378   4.592   3.654   2.149
 2876WAT    LP114379   4.677   3.633   2.044
 2876WAT    LP214380   4.727   3.633   2.147
 2877WAT     OW14381   4.755   0.684   6.365
 2877WAT    HW114382   4.830   0.693   6.424
 2877WAT    HW214383   4.679   0.693   6.423
 2877WAT    LP114384   4.755   0.734   6.316
 2877WAT    LP214385   4.755   0.621   6.334
 2878WAT     OW14386   1.115   2.007   1.022
 2878WAT    HW114387   1.119   2.071   0.951
 2878WAT    HW214388   1.088   2.057   1.098
 2878WAT    LP114389   1.068   1.957   1.007
 2878WAT    LP214390   1.177   1.977   1.032
 2879WAT     OW14391   6.541   4.107   3.104
 2879WAT    HW114392   6.604   4.103   3.176
 2879WAT    HW214393   6.577   4.172   3.044
 2879WAT    LP114394   6.536   4.045   3.072
 2879WAT    LP214395   6.478   4.127   3.127
 2880WAT     OW14396   6.671   0.045   5.053
 2880WAT    HW114397   6.619   0.073   4.978
 2880WAT    HW214398   6.660   0.115   5.118
 2880WAT    LP114399   6.647  -0.016   5.079
 2880WAT    LP214400   6.739   0.038   5.036
 2881WAT     OW14401   6.603   5.600   2.175
 2881WAT    HW114402   6.573   5.636   2.091
 2881WAT    HW214403   6.539   5.531   2.195
 2881WAT    LP114404   6.667   5.572   2.169
 2881WAT    LP214405   6.603   5.649   2.225
 2882WAT     OW14406   6.393   6.413   5.966
 2882WAT    HW114407   6.322   6.450   5.913
 2882WAT    HW214408   6.351   6.345   6.019
 2882WAT    LP114409   6.442   6.386   5.925
 2882WAT    LP214410   6.421   6.462   6.007
 2883WAT     OW14411   3.496   6.002   3.157
 2883WAT    HW114412   3.578   6.052   3.159
 2883WAT    HW214413   3.518   5.923   3.108
 2883WAT    LP114414   3.476   5.985   3.222
 2883WAT    LP214415   3.446   6.038   3.125
 2884WAT     OW14416   3.144   3.508   1.334
 2884WAT    HW114417   3.066   3.461   1.362
 2884WAT    HW214418   3.112   3.592   1.301
 2884WAT    LP114419   3.188   3.518   1.388
 2884WAT    LP214420   3.177   3.473   1.284
 2885WAT     OW14421   0.388   1.515   3.276
 2885WAT    HW114422   0.411   1.600   3.315
 2885WAT    HW214423   0.353   1.465   3.349
 2885WAT    LP114424   0.341   1.523   3.225
 2885WAT    LP214425   0.446   1.484   3.250
 2886WAT     OW14426   6.603   2.462   1.660
 2886WAT    HW114427   6.637   2.525   1.724
 2886WAT    HW214428   6.570   2.389   1.713
 2886WAT    LP114429   6.551   2.490   1.622
 2886WAT    LP214430   6.654   2.440   1.617
 2887WAT     OW14431   6.364   5.775   5.106
 2887WAT    HW114432   6.413   5.849   5.141
 2887WAT    HW214433   6.324   5.734   5.183
 2887WAT    LP114434   6.315   5.797   5.061
 2887WAT    LP214435   6.406   5.730   5.073
 2888WAT     OW14436   6.056   3.826   4.129
 2888WAT    HW114437   6.051   3.730   4.118
 2888WAT    HW214438   5.965   3.853   4.140
 2888WAT    LP114439   6.094   3.843   4.185
 2888WAT    LP214440   6.083   3.855   4.071
 2889WAT     OW14441   2.348   4.462   5.369
 2889WAT    HW114442   2.368   4.522   5.298
 2889WAT    HW214443   2.316   4.383   5.326
 2889WAT    LP114444   2.406   4.448   5.406
 2889WAT    LP214445   2.300   4.488   5.412
 2890WAT     OW14446   1.059   3.701   4.339
 2890WAT    HW114447   1.128   3.750   4.296
 2890WAT    HW214448   1.035   3.632   4.276
 2890WAT    LP114449   1.082   3.672   4.398
 2890WAT    LP214450   1.004   3.742   4.352
 2891WAT     OW14451   4.653   5.263   2.938
 2891WAT    HW114452   4.692   5.347   2.963
 2891WAT    HW214453   4.680   5.203   3.007
 2891WAT    LP114454   4.584   5.267   2.935
 2891WAT    LP214455   4.678   5.242   2.876
 2892WAT     OW14456   1.911   3.488   4.204
 2892WAT    HW114457   1.837   3.478   4.264
 2892WAT    HW214458   1.871   3.517   4.122
 2892WAT    LP114459   1.956   3.536   4.227
 2892WAT    LP214460   1.944   3.427   4.195
 2893WAT     OW14461   0.922   4.315   5.880
 2893WAT    HW114462   0.993   4.256   5.856
 2893WAT    HW214463   0.963   4.401   5.883
 2893WAT    LP114464   0.871   4.313   5.832
 2893WAT    LP214465   0.896   4.298   5.943
 2894WAT     OW14466   2.826   4.076   2.886
 2894WAT    HW114467   2.838   4.060   2.979
 2894WAT    HW214468   2.746   4.028   2.863
 2894WAT    LP114469   2.818   4.145   2.873
 2894WAT    LP214470   2.881   4.052   2.849
 2895WAT     OW14471   1.672   1.738   2.535
 2895WAT    HW114472   1.650   1.671   2.599
 2895WAT    HW214473   1.643   1.820   2.574
 2895WAT    LP114474   1.741   1.739   2.523
 2895WAT    LP214475   1.639   1.726   2.474
 2896WAT     OW14476   2.720   1.734   2.101
 2896WAT    HW114477   2.637   1.773   2.075
 2896WAT    HW214478   2.778   1.749   2.026
 2896WAT    LP114479   2.746   1.764   2.158
 2896WAT    LP214480   2.713   1.665   2.112
 2897WAT     OW14481   5.905   2.249   4.671
 2897WAT    HW114482   5.864   2.336   4.680
 2897WAT    HW214483   5.843   2.190   4.713
 2897WAT    LP114484   5.914   2.233   4.604
 2897WAT    LP214485   5.967   2.247   4.704
 2898WAT     OW14486   0.722   6.347   4.823
 2898WAT    HW114487   0.748   6.333   4.732
 2898WAT    HW214488   0.769   6.426   4.849
 2898WAT    LP114489   0.653   6.357   4.828
 2898WAT    LP214490   0.741   6.293   4.863
 2899WAT     OW14491   2.566   5.899   2.633
 2899WAT    HW114492   2.631   5.838   2.670
 2899WAT    HW214493   2.614   5.945   2.564
 2899WAT    LP114494   2.512   5.864   2.607
 2899WAT    LP214495   2.544   5.944   2.682
 2900WAT     OW14496   4.831   6.382   1.208
 2900WAT    HW114497   4.815   6.415   1.120
 2900WAT    HW214498   4.843   6.460   1.261
 2900WAT    LP114499   4.776   6.345   1.231
 2900WAT    LP214500   4.888   6.341   1.210
 2901WAT     OW14501   4.531   6.421   5.914
 2901WAT    HW114502   4.600   6.461   5.862
 2901WAT    HW214503   4.572   6.345   5.955
 2901WAT    LP114504   4.506   6.466   5.962
 2901WAT    LP214505   4.478   6.400   5.872
 2902WAT     OW14506   0.332   5.846   3.064
 2902WAT    HW114507   0.326   5.916   3.129
 2902WAT    HW214508   0.350   5.768   3.116
 2902WAT    LP114509   0.271   5.839   3.030
 2902WAT    LP214510   0.383   5.859   3.019
 2903WAT     OW14511   2.001   1.134   2.557
 2903WAT    HW114512   2.031   1.160   2.644
 2903WAT    HW214513   2.040   1.048   2.543
 2903WAT    LP114514   1.931   1.130   2.556
 2903WAT    LP214515   2.022   1.179   2.509
 2904WAT     OW14516   3.219   1.677   0.851
 2904WAT    HW114517   3.196   1.629   0.930
 2904WAT    HW214518   3.142   1.669   0.794
 2904WAT    LP114519   3.232   1.745   0.866
 2904WAT    LP214520   3.276   1.649   0.820
 2905WAT     OW14521   1.789   0.315   6.220
 2905WAT    HW114522   1.709   0.272   6.252
 2905WAT    HW214523   1.783   0.405   6.254
 2905WAT    LP114524   1.846   0.283   6.245
 2905WAT    LP214525   1.791   0.315   6.150
 2906WAT     OW14526   1.621   5.368   1.308
 2906WAT    HW114527   1.641   5.440   1.367
 2906WAT    HW214528   1.562   5.311   1.357
 2906WAT    LP114529   1.590   5.392   1.250
 2906WAT    LP214530   1.679   5.333   1.290
 2907WAT     OW14531   1.546   2.211   1.273
 2907WAT    HW114532   1.520   2.300   1.247
 2907WAT    HW214533   1.561   2.166   1.190
 2907WAT    LP114534   1.604   2.213   1.312
 2907WAT    LP214535   1.494   2.180   1.309
 2908WAT     OW14536   6.477   3.590   0.743
 2908WAT    HW114537   6.454   3.683   0.731
 2908WAT    HW214538   6.539   3.572   0.671
 2908WAT    LP114539   6.507   3.580   0.805
 2908WAT    LP214540   6.420   3.550   0.737
 2909WAT     OW14541   6.648   4.288   0.893
 2909WAT    HW114542   6.743   4.285   0.882
 2909WAT    HW214543   6.632   4.373   0.934
 2909WAT    LP114544   6.616   4.285   0.831
 2909WAT    LP214545   6.626   4.236   0.934
 2910WAT     OW14546   1.884   3.322   5.638
 2910WAT    HW114547   1.894   3.353   5.728
 2910WAT    HW214548   1.832   3.242   5.646
 2910WAT    LP114549   1.850   3.369   5.599
 2910WAT    LP214550   1.946   3.308   5.609
 2911WAT     OW14551   1.177   2.590   2.268
 2911WAT    HW114552   1.193   2.498   2.250
 2911WAT    HW214553   1.263   2.631   2.264
 2911WAT    LP114554   1.135   2.618   2.219
 2911WAT    LP214555   1.148   2.598   2.331
 2912WAT     OW14556   3.190   6.082   3.816
 2912WAT    HW114557   3.189   6.166   3.862
 2912WAT    HW214558   3.191   6.105   3.723
 2912WAT    LP114559   3.247   6.045   3.833
 2912WAT    LP214560   3.133   6.045   3.831
 2913WAT     OW14561   2.023   3.774   2.216
 2913WAT    HW114562   2.003   3.826   2.138
 2913WAT    HW214563   2.009   3.834   2.289
 2913WAT    LP114564   1.980   3.719   2.221
 2913WAT    LP214565   2.089   3.751   2.215
 2914WAT     OW14566   5.378   0.060   1.579
 2914WAT    HW114567   5.471   0.075   1.565
 2914WAT    HW214568   5.367  -0.034   1.570
 2914WAT    LP114569   5.359   0.082   1.643
 2914WAT    LP214570   5.340   0.094   1.531
 2915WAT     OW14571   3.602   1.348   5.601
 2915WAT    HW114572   3.542   1.341   5.527
 2915WAT    HW214573   3.593   1.265   5.648
 2915WAT    LP114574   3.668   1.356   5.579
 2915WAT    LP214575   3.585   1.402   5.643
 2916WAT     OW14576   3.830   0.649   5.209
 2916WAT    HW114577   3.882   0.681   5.283
 2916WAT    HW214578   3.750   0.615   5.248
 2916WAT    LP114579   3.816   0.701   5.164
 2916WAT    LP214580   3.864   0.598   5.175
 2917WAT     OW14581   0.206   2.026   0.834
 2917WAT    HW114582   0.272   2.089   0.863
 2917WAT    HW214583   0.257   1.950   0.805
 2917WAT    LP114584   0.164   2.009   0.887
 2917WAT    LP214585   0.169   2.052   0.781
 2918WAT     OW14586   2.757   4.465   3.422
 2918WAT    HW114587   2.842   4.463   3.379
 2918WAT    HW214588   2.707   4.396   3.379
 2918WAT    LP114589   2.764   4.451   3.490
 2918WAT    LP214590   2.726   4.527   3.413
 2919WAT     OW14591   6.645   3.065   6.525
 2919WAT    HW114592   6.631   2.975   6.555
 2919WAT    HW214593   6.717   3.098   6.577
 2919WAT    LP114594   6.661   3.065   6.457
 2919WAT    LP214595   6.587   3.104   6.535
 2920WAT     OW14596   2.147   1.442   5.047
 2920WAT    HW114597   2.242   1.448   5.041
 2920WAT    HW214598   2.121   1.401   4.964
 2920WAT    LP114599   2.128   1.403   5.101
 2920WAT    LP214600   2.118   1.506   5.052
 2921WAT     OW14601   5.625   3.325   4.657
 2921WAT    HW114602   5.567   3.336   4.732
 2921WAT    HW214603   5.568   3.294   4.587
 2921WAT    LP114604   5.655   3.386   4.640
 2921WAT    LP214605   5.675   3.278   4.671
 2922WAT     OW14606   5.706   2.543   0.594
 2922WAT    HW114607   5.614   2.565   0.606
 2922WAT    HW214608   5.708   2.495   0.511
 2922WAT    LP114609   5.745   2.601   0.590
 2922WAT    LP214610   5.729   2.503   0.646
 2923WAT     OW14611   6.309   2.714   0.557
 2923WAT    HW114612   6.268   2.786   0.606
 2923WAT    HW214613   6.239   2.681   0.501
 2923WAT    LP114614   6.363   2.737   0.519
 2923WAT    LP214615   6.330   2.663   0.601
 2924WAT     OW14616   1.944   0.407   1.728
 2924WAT    HW114617   1.967   0.315   1.737
 2924WAT    HW214618   1.866   0.418   1.783
 2924WAT    LP114619   1.996   0.448   1.750
 2924WAT    LP214620   1.929   0.423   1.661
 2925WAT     OW14621   3.704   1.240   2.127
 2925WAT    HW114622   3.760   1.166   2.103
 2925WAT    HW214623   3.615   1.203   2.127
 2925WAT    LP114624   3.720   1.264   2.190
 2925WAT    LP214625   3.709   1.291   2.080
 2926WAT     OW14626   0.717   5.064   0.103
 2926WAT    HW114627   0.804   5.090   0.073
 2926WAT    HW214628   0.689   5.134   0.161
 2926WAT    LP114629   0.673   5.058   0.048
 2926WAT    LP214630   0.719   5.003   0.137
 2927WAT     OW14631   5.494   4.105   1.160
 2927WAT    HW114632   5.423   4.070   1.215
 2927WAT    HW214633   5.522   4.030   1.107
 2927WAT    LP114634   5.471   4.157   1.119
 2927WAT    LP214635   5.546   4.128   1.200
 2928WAT     OW14636   2.162   0.802   0.118
 2928WAT    HW114637   2.154   0.726   0.061
 2928WAT    HW214638   2.170   0.766   0.206
 2928WAT    LP114639   2.219   0.840   0.101
 2928WAT    LP214640   2.105   0.843   0.113
 2929WAT     OW14641   1.463   1.951   4.297
 2929WAT    HW114642   1.550   1.977   4.267
 2929WAT    HW214643   1.472   1.857   4.315
 2929WAT    LP114644   1.446   1.986   4.355
 2929WAT    LP214645   1.415   1.962   4.247
 2930WAT     OW14646   4.925   5.459   2.593
 2930WAT    HW114647   4.944   5.546   2.556
 2930WAT    HW214648   4.837   5.438   2.560
 2930WAT    LP114649   4.972   5.412   2.571
 2930WAT    LP214650   4.925   5.462   2.663
 2931WAT     OW14651   3.106   2.967   3.751
 2931WAT    HW114652   3.074   2.936   3.836
 2931WAT    HW214653   3.089   3.061   3.752
 2931WAT    LP114654   3.174   2.954   3.744
 2931WAT    LP214655   3.071   2.936   3.699
 2932WAT     OW14656   6.792   6.091   2.550
 2932WAT    HW114657   6.815   6.098   2.643
 2932WAT    HW214658   6.843   6.018   2.518
 2932WAT    LP114659   6.723   6.078   2.543
 2932WAT    LP214660   6.808   6.150   2.516
 2933WAT     OW14661   3.901   2.474   0.063
 2933WAT    HW114662   3.983   2.425   0.065
 2933WAT    HW214663   3.845   2.430   0.127
 2933WAT    LP114664   3.911   2.541   0.080
 2933WAT    LP214665   3.872   2.470  -0.001
 2934WAT     OW14666   4.196   1.272   3.901
 2934WAT    HW114667   4.140   1.345   3.930
 2934WAT    HW214668   4.223   1.229   3.983
 2934WAT    LP114669   4.159   1.228   3.861
 2934WAT    LP214670   4.251   1.296   3.866
 2935WAT     OW14671   5.892   2.281   3.770
 2935WAT    HW114672   5.862   2.206   3.822
 2935WAT    HW214673   5.984   2.291   3.793
 2935WAT    LP114674   5.884   2.268   3.702
 2935WAT    LP214675   5.856   2.339   3.787
 2936WAT     OW14676   0.848   6.640   0.224
 2936WAT    HW114677   0.828   6.705   0.292
 2936WAT    HW214678   0.844   6.556   0.270
 2936WAT    LP114679   0.800   6.642   0.173
 2936WAT    LP214680   0.911   6.651   0.197
 2937WAT     OW14681   3.649   3.006   4.374
 2937WAT    HW114682   3.737   3.045   4.381
 2937WAT    HW214683   3.596   3.058   4.435
 2937WAT    LP114684   3.625   3.012   4.309
 2937WAT    LP214685   3.650   2.939   4.393
 2938WAT     OW14686   0.345   6.389   4.740
 2938WAT    HW114687   0.261   6.433   4.751
 2938WAT    HW214688   0.327   6.316   4.681
 2938WAT    LP114689   0.393   6.432   4.712
 2938WAT    LP214690   0.369   6.365   4.802
 2939WAT     OW14691   1.988   5.323   5.894
 2939WAT    HW114692   2.022   5.382   5.961
 2939WAT    HW214693   1.954   5.248   5.943
 2939WAT    LP114694   1.937   5.353   5.857
 2939WAT    LP214695   2.039   5.302   5.850
 2940WAT     OW14696   3.566   6.352   3.851
 2940WAT    HW114697   3.621   6.395   3.917
 2940WAT    HW214698   3.480   6.393   3.863
 2940WAT    LP114699   3.590   6.364   3.787
 2940WAT    LP214700   3.562   6.283   3.862
 2941WAT     OW14701   5.318   1.934   0.722
 2941WAT    HW114702   5.392   1.873   0.717
 2941WAT    HW214703   5.346   2.011   0.673
 2941WAT    LP114704   5.261   1.906   0.693
 2941WAT    LP214705   5.304   1.951   0.789
 2942WAT     OW14706   3.865   0.814   3.990
 2942WAT    HW114707   3.830   0.812   3.901
 2942WAT    HW214708   3.821   0.889   4.031
 2942WAT    LP114709   3.850   0.755   4.024
 2942WAT    LP214710   3.934   0.824   3.989
 2943WAT     OW14711   6.043   4.539   0.163
 2943WAT    HW114712   6.070   4.489   0.086
 2943WAT    HW214713   5.954   4.566   0.144
 2943WAT    LP114714   6.045   4.498   0.220
 2943WAT    LP214715   6.085   4.594   0.173
 2944WAT     OW14716   5.185   3.766   0.960
 2944WAT    HW114717   5.112   3.705   0.965
 2944WAT    HW214718   5.250   3.730   1.021
 2944WAT    LP114719   5.210   3.770   0.895
 2944WAT    LP214720   5.165   3.830   0.981
 2945WAT     OW14721   0.059   0.005   2.438
 2945WAT    HW114722   0.127  -0.005   2.371
 2945WAT    HW214723   0.078  -0.062   2.503
 2945WAT    LP114724   0.063   0.069   2.467
 2945WAT    LP214725  -0.004  -0.003   2.411
 2946WAT     OW14726   2.585   1.622   5.338
 2946WAT    HW114727   2.648   1.627   5.410
 2946WAT    HW214728   2.516   1.565   5.371
 2946WAT    LP114729   2.559   1.685   5.323
 2946WAT    LP214730   2.615   1.594   5.281
 2947WAT     OW14731   0.609   5.274   2.726
 2947WAT    HW114732   0.608   5.366   2.698
 2947WAT    HW214733   0.702   5.252   2.731
 2947WAT    LP114734   0.578   5.267   2.788
 2947WAT    LP214735   0.577   5.233   2.679
 2948WAT     OW14736   1.308   4.173   0.691
 2948WAT    HW114737   1.339   4.263   0.698
 2948WAT    HW214738   1.387   4.120   0.680
 2948WAT    LP114739   1.274   4.154   0.749
 2948WAT    LP214740   1.266   4.165   0.636
 2949WAT     OW14741   1.933   0.447   3.014
 2949WAT    HW114742   1.907   0.385   3.083
 2949WAT    HW214743   2.023   0.422   2.993
 2949WAT    LP114744   1.892   0.441   2.958
 2949WAT    LP214745   1.931   0.513   3.038
 2950WAT     OW14746   4.803   1.906   2.325
 2950WAT    HW114747   4.823   1.898   2.418
 2950WAT    HW214748   4.712   1.936   2.322
 2950WAT    LP114749   4.846   1.954   2.295
 2950WAT    LP214750   4.811   1.845   2.292
 2951WAT     OW14751   5.037   3.460   4.362
 2951WAT    HW114752   4.990   3.472   4.280
 2951WAT    HW214753   5.080   3.544   4.377
 2951WAT    LP114754   4.993   3.445   4.414
 2951WAT    LP214755   5.085   3.409   4.356
 2952WAT     OW14756   5.756   1.279   4.276
 2952WAT    HW114757   5.724   1.241   4.358
 2952WAT    HW214758   5.684   1.266   4.213
 2952WAT    LP114759   5.770   1.347   4.284
 2952WAT    LP214760   5.814   1.246   4.254
 2953WAT     OW14761   0.112   2.663   4.425
 2953WAT    HW114762   0.114   2.723   4.350
 2953WAT    HW214763   0.200   2.625   4.427
 2953WAT    LP114764   0.100   2.698   4.484
 2953WAT    LP214765   0.064   2.614   4.416
 2954WAT     OW14766   1.213   1.201   5.581
 2954WAT    HW114767   1.218   1.153   5.664
 2954WAT    HW214768   1.256   1.284   5.599
 2954WAT    LP114769   1.245   1.166   5.530
 2954WAT    LP214770   1.146   1.211   5.563
 2955WAT     OW14771   3.214   5.532   1.708
 2955WAT    HW114772   3.192   5.531   1.615
 2955WAT    HW214773   3.252   5.619   1.722
 2955WAT    LP114774   3.157   5.524   1.748
 2955WAT    LP214775   3.261   5.483   1.723
 2956WAT     OW14776   3.795   6.605   0.610
 2956WAT    HW114777   3.876   6.561   0.636
 2956WAT    HW214778   3.787   6.584   0.517
 2956WAT    LP114779   3.741   6.580   0.646
 2956WAT    LP214780   3.800   6.674   0.619
 2957WAT     OW14781   4.027   6.612   2.049
 2957WAT    HW114782   4.027   6.616   2.144
 2957WAT    HW214783   4.030   6.703   2.021
 2957WAT    LP114784   4.084   6.577   2.026
 2957WAT    LP214785   3.969   6.580   2.025
 2958WAT     OW14786   3.548   6.100   0.933
 2958WAT    HW114787   3.456   6.099   0.960
 2958WAT    HW214788   3.568   6.192   0.918
 2958WAT    LP114789   3.589   6.074   0.983
 2958WAT    LP214790   3.556   6.063   0.874
 2959WAT     OW14791   0.775   3.350   4.027
 2959WAT    HW114792   0.732   3.423   3.982
 2959WAT    HW214793   0.754   3.273   3.975
 2959WAT    LP114794   0.844   3.361   4.030
 2959WAT    LP214795   0.751   3.343   4.093
 2960WAT     OW14796   3.735   3.287   3.114
 2960WAT    HW114797   3.802   3.355   3.122
 2960WAT    HW214798   3.784   3.208   3.091
 2960WAT    LP114799   3.701   3.279   3.174
 2960WAT    LP214800   3.690   3.304   3.063
 2961WAT     OW14801   1.087   2.698   5.535
 2961WAT    HW114802   1.076   2.792   5.521
 2961WAT    HW214803   1.122   2.666   5.452
 2961WAT    LP114804   1.133   2.686   5.587
 2961WAT    LP214805   1.026   2.667   5.550
 2962WAT     OW14806   4.647   4.850   3.102
 2962WAT    HW114807   4.688   4.935   3.118
 2962WAT    HW214808   4.630   4.849   3.008
 2962WAT    LP114809   4.691   4.798   3.120
 2962WAT    LP214810   4.588   4.844   3.138
 2963WAT     OW14811   4.295   1.065   1.892
 2963WAT    HW114812   4.329   0.987   1.849
 2963WAT    HW214813   4.372   1.110   1.924
 2963WAT    LP114814   4.259   1.105   1.847
 2963WAT    LP214815   4.253   1.047   1.945
 2964WAT     OW14816   3.222   5.714   5.060
 2964WAT    HW114817   3.264   5.631   5.039
 2964WAT    HW214818   3.154   5.691   5.124
 2964WAT    LP114819   3.267   5.760   5.087
 2964WAT    LP214820   3.193   5.742   5.002
 2965WAT     OW14821   2.949   0.615   5.887
 2965WAT    HW114822   3.025   0.563   5.859
 2965WAT    HW214823   2.906   0.640   5.805
 2965WAT    LP114824   2.906   0.576   5.927
 2965WAT    LP214825   2.969   0.671   5.922
 2966WAT     OW14826   4.747   5.618   0.166
 2966WAT    HW114827   4.724   5.610   0.258
 2966WAT    HW214828   4.663   5.621   0.120
 2966WAT    LP114829   4.784   5.676   0.154
 2966WAT    LP214830   4.784   5.562   0.144
 2967WAT     OW14831   1.921   2.270   0.021
 2967WAT    HW114832   1.833   2.293   0.051
 2967WAT    HW214833   1.910   2.188  -0.026
 2967WAT    LP114834   1.947   2.320  -0.021
 2967WAT    LP214835   1.964   2.262   0.076
 2968WAT     OW14836   4.659   6.280   6.314
 2968WAT    HW114837   4.663   6.258   6.221
 2968WAT    HW214838   4.640   6.373   6.316
 2968WAT    LP114839   4.609   6.243   6.346
 2968WAT    LP214840   4.720   6.266   6.345
 2969WAT     OW14841   1.181   0.435   1.049
 2969WAT    HW114842   1.254   0.475   1.001
 2969WAT    HW214843   1.123   0.509   1.069
 2969WAT    LP114844   1.148   0.388   1.009
 2969WAT    LP214845   1.203   0.405   1.108
 2970WAT     OW14846   1.101   6.433   4.629
 2970WAT    HW114847   1.184   6.409   4.587
 2970WAT    HW214848   1.071   6.352   4.670
 2970WAT    LP114849   1.112   6.482   4.677
 2970WAT    LP214850   1.055   6.456   4.582
 2971WAT     OW14851   5.757   1.386   3.021
 2971WAT    HW114852   5.723   1.399   2.932
 2971WAT    HW214853   5.691   1.425   3.078
 2971WAT    LP114854   5.764   1.318   3.034
 2971WAT    LP214855   5.818   1.418   3.028
 2972WAT     OW14856   5.928   1.440   2.290
 2972WAT    HW114857   5.891   1.521   2.325
 2972WAT    HW214858   5.979   1.404   2.363
 2972WAT    LP114859   5.878   1.395   2.270
 2972WAT    LP214860   5.970   1.454   2.236
 2973WAT     OW14861   2.111   5.973   0.514
 2973WAT    HW114862   2.056   5.939   0.584
 2973WAT    HW214863   2.063   5.952   0.434
 2973WAT    LP114864   2.120   6.042   0.520
 2973WAT    LP214865   2.173   5.941   0.514
 2974WAT     OW14866   2.818   2.085   1.191
 2974WAT    HW114867   2.784   2.055   1.275
 2974WAT    HW214868   2.746   2.135   1.152
 2974WAT    LP114869   2.874   2.125   1.200
 2974WAT    LP214870   2.834   2.030   1.150
 2975WAT     OW14871   5.941   0.951   5.368
 2975WAT    HW114872   5.896   0.868   5.386
 2975WAT    HW214873   5.871   1.016   5.360
 2975WAT    LP114874   5.984   0.967   5.421
 2975WAT    LP214875   5.978   0.946   5.309
 2976WAT     OW14876   5.990   4.412   2.953
 2976WAT    HW114877   6.006   4.320   2.931
 2976WAT    HW214878   5.988   4.415   3.048
 2976WAT    LP114879   6.041   4.453   2.928
 2976WAT    LP214880   5.929   4.434   2.926
 2977WAT     OW14881   4.134   3.589   2.450
 2977WAT    HW114882   4.183   3.530   2.507
 2977WAT    HW214883   4.161   3.565   2.361
 2977WAT    LP114884   4.065   3.579   2.458
 2977WAT    LP214885   4.150   3.655   2.463
 2978WAT     OW14886   6.107   5.694   3.618
 2978WAT    HW114887   6.090   5.692   3.712
 2978WAT    HW214888   6.086   5.783   3.592
 2978WAT    LP114889   6.174   5.679   3.605
 2978WAT    LP214890   6.066   5.648   3.585
 2979WAT     OW14891   0.141   3.052   2.732
 2979WAT    HW114892   0.188   3.131   2.705
 2979WAT    HW214893   0.082   3.034   2.659
 2979WAT    LP114894   0.185   2.999   2.742
 2979WAT    LP214895   0.105   3.064   2.791
 2980WAT     OW14896   3.023   0.176   3.123
 2980WAT    HW114897   3.040   0.110   3.190
 2980WAT    HW214898   3.049   0.259   3.163
 2980WAT    LP114899   3.061   0.163   3.065
 2980WAT    LP214900   2.955   0.177   3.106
 2981WAT     OW14901   1.074   4.418   6.159
 2981WAT    HW114902   1.009   4.480   6.192
 2981WAT    HW214903   1.081   4.439   6.066
 2981WAT    LP114904   1.136   4.427   6.191
 2981WAT    LP214905   1.052   4.352   6.168
 2982WAT     OW14906   2.356   4.045   2.417
 2982WAT    HW114907   2.286   4.098   2.381
 2982WAT    HW214908   2.348   4.055   2.512
 2982WAT    LP114909   2.348   3.978   2.399
 2982WAT    LP214910   2.418   4.067   2.395
 2983WAT     OW14911   5.801   3.527   0.368
 2983WAT    HW114912   5.861   3.597   0.343
 2983WAT    HW214913   5.739   3.568   0.429
 2983WAT    LP114914   5.768   3.502   0.312
 2983WAT    LP214915   5.836   3.475   0.399
 2984WAT     OW14916   4.533   1.472   3.912
 2984WAT    HW114917   4.497   1.545   3.962
 2984WAT    HW214918   4.534   1.399   3.974
 2984WAT    LP114919   4.492   1.457   3.858
 2984WAT    LP214920   4.597   1.486   3.890
 2985WAT     OW14921   6.703   5.080   6.481
 2985WAT    HW114922   6.711   4.992   6.446
 2985WAT    HW214923   6.791   5.117   6.473
 2985WAT    LP114924   6.657   5.118   6.445
 2985WAT    LP214925   6.683   5.078   6.548
 2986WAT     OW14926   0.975   1.351   3.265
 2986WAT    HW114927   0.965   1.341   3.170
 2986WAT    HW214928   1.062   1.390   3.275
 2986WAT    LP114929   0.926   1.393   3.291
 2986WAT    LP214930   0.973   1.289   3.296
 2987WAT     OW14931   1.829   6.263   3.086
 2987WAT    HW114932   1.876   6.204   3.027
 2987WAT    HW214933   1.744   6.275   3.045
 2987WAT    LP114934   1.823   6.235   3.149
 2987WAT    LP214935   1.863   6.324   3.091
 2988WAT     OW14936   4.746   1.142   3.976
 2988WAT    HW114937   4.687   1.195   4.029
 2988WAT    HW214938   4.692   1.111   3.904
 2988WAT    LP114939   4.800   1.180   3.953
 2988WAT    LP214940   4.771   1.088   4.013
 2989WAT     OW14941   2.467   5.278   5.385
 2989WAT    HW114942   2.452   5.313   5.473
 2989WAT    HW214943   2.458   5.354   5.327
 2989WAT    LP114944   2.532   5.252   5.380
 2989WAT    LP214945   2.420   5.229   5.370
 2990WAT     OW14946   0.053   1.786   6.124
 2990WAT    HW114947   0.107   1.712   6.097
 2990WAT    HW214948  -0.032   1.746   6.145
 2990WAT    LP114949   0.080   1.817   6.181
 2990WAT    LP214950   0.046   1.832   6.073
 2991WAT     OW14951   5.215   5.628   2.858
 2991WAT    HW114952   5.257   5.672   2.932
 2991WAT    HW214953   5.202   5.697   2.793
 2991WAT    LP114954   5.256   5.578   2.833
 2991WAT    LP214955   5.153   5.601   2.878
 2992WAT     OW14956   2.843   4.948   5.323
 2992WAT    HW114957   2.762   5.000   5.320
 2992WAT    HW214958   2.825   4.879   5.387
 2992WAT    LP114959   2.856   4.920   5.260
 2992WAT    LP214960   2.897   4.988   5.342
 2993WAT     OW14961   5.977   3.329   3.304
 2993WAT    HW114962   5.912   3.258   3.302
 2993WAT    HW214963   5.927   3.406   3.330
 2993WAT    LP114964   6.027   3.315   3.351
 2993WAT    LP214965   6.006   3.337   3.241
 2994WAT     OW14966   1.098   4.556   2.569
 2994WAT    HW114967   1.138   4.642   2.556
 2994WAT    HW214968   1.151   4.497   2.516
 2994WAT    LP114969   1.101   4.538   2.637
 2994WAT    LP214970   1.031   4.556   2.548
 2995WAT     OW14971   5.386   1.474   5.471
 2995WAT    HW114972   5.395   1.378   5.470
 2995WAT    HW214973   5.323   1.492   5.402
 2995WAT    LP114974   5.363   1.496   5.533
 2995WAT    LP214975   5.448   1.504   5.457
 2996WAT     OW14976   1.608   2.259   4.104
 2996WAT    HW114977   1.636   2.173   4.136
 2996WAT    HW214978   1.518   2.245   4.074
 2996WAT    LP114979   1.610   2.306   4.156
 2996WAT    LP214980   1.649   2.280   4.051
 2997WAT     OW14981   5.543   1.229   4.106
 2997WAT    HW114982   5.468   1.285   4.124
 2997WAT    HW214983   5.505   1.142   4.095
 2997WAT    LP114984   5.576   1.249   4.048
 2997WAT    LP214985   5.588   1.230   4.160
 2998WAT     OW14986   4.992   2.873   0.331
 2998WAT    HW114987   5.038   2.907   0.255
 2998WAT    HW214988   5.024   2.926   0.404
 2998WAT    LP114989   4.923   2.880   0.324
 2998WAT    LP214990   5.007   2.805   0.341
 2999WAT     OW14991   1.365   4.608   2.210
 2999WAT    HW114992   1.425   4.559   2.266
 2999WAT    HW214993   1.362   4.559   2.128
 2999WAT    LP114994   1.301   4.611   2.239
 2999WAT    LP214995   1.388   4.673   2.199
 3000WAT     OW14996   0.615   2.714   6.021
 3000WAT    HW114997   0.596   2.655   6.095
 3000WAT    HW214998   0.563   2.792   6.040
 3000WAT    LP114999   0.683   2.729   6.019
 3000WAT    LP215000   0.595   2.685   5.961
 3001WAT     OW15001   4.591   0.403   1.449
 3001WAT    HW115002   4.625   0.488   1.478
 3001WAT    HW215003   4.628   0.340   1.511
 3001WAT    LP115004   4.521   0.402   1.452
 3001WAT    LP215005   4.612   0.389   1.384
 3002WAT     OW15006   1.729   4.851   3.915
 3002WAT    HW115007   1.817   4.888   3.914
 3002WAT    HW215008   1.740   4.761   3.885
 3002WAT    LP115009   1.702   4.853   3.980
 3002WAT    LP215010   1.687   4.887   3.872
 3003WAT     OW15011   0.338   6.032   3.288
 3003WAT    HW115012   0.385   6.115   3.289
 3003WAT    HW215013   0.262   6.046   3.345
 3003WAT    LP115014   0.317   6.016   3.223
 3003WAT    LP215015   0.378   5.980   3.312
 3004WAT     OW15016   1.053   2.615   3.513
 3004WAT    HW115017   1.133   2.589   3.468
 3004WAT    HW215018   1.035   2.703   3.481
 3004WAT    LP115019   1.001   2.572   3.497
 3004WAT    LP215020   1.063   2.615   3.583
 3005WAT     OW15021   1.960   2.226   5.395
 3005WAT    HW115022   2.048   2.188   5.397
 3005WAT    HW215023   1.912   2.180   5.464
 3005WAT    LP115024   1.962   2.295   5.407
 3005WAT    LP215025   1.930   2.214   5.332
 3006WAT     OW15026   5.185   5.978   0.973
 3006WAT    HW115027   5.090   5.992   0.978
 3006WAT    HW215028   5.195   5.891   0.935
 3006WAT    LP115029   5.215   6.026   0.932
 3006WAT    LP215030   5.213   5.980   1.037
 3007WAT     OW15031   5.862   2.055   4.168
 3007WAT    HW115032   5.837   2.057   4.076
 3007WAT    HW215033   5.882   2.147   4.189
 3007WAT    LP115034   5.809   2.032   4.208
 3007WAT    LP215035   5.918   2.015   4.178
 3008WAT     OW15036   3.837   2.481   3.202
 3008WAT    HW115037   3.800   2.564   3.234
 3008WAT    HW215038   3.761   2.425   3.186
 3008WAT    LP115039   3.872   2.492   3.142
 3008WAT    LP215040   3.879   2.453   3.249
 3009WAT     OW15041   5.327   5.237   5.287
 3009WAT    HW115042   5.333   5.309   5.350
 3009WAT    HW215043   5.387   5.171   5.321
 3009WAT    LP115044   5.262   5.212   5.285
 3009WAT    LP215045   5.347   5.258   5.224
 3010WAT     OW15046   6.473   2.351   0.538
 3010WAT    HW115047   6.445   2.413   0.607
 3010WAT    HW215048   6.411   2.365   0.467
 3010WAT    LP115049   6.538   2.365   0.518
 3010WAT    LP215050   6.469   2.285   0.562
 3011WAT     OW15051   0.150   0.589   2.074
 3011WAT    HW115052   0.134   0.500   2.044
 3011WAT    HW215053   0.099   0.596   2.155
 3011WAT    LP115054   0.219   0.598   2.087
 3011WAT    LP215055   0.129   0.636   2.027
 3012WAT     OW15056   5.187   2.913   1.581
 3012WAT    HW115057   5.256   2.943   1.521
 3012WAT    HW215058   5.230   2.910   1.667
 3012WAT    LP115059   5.133   2.957   1.581
 3012WAT    LP215060   5.166   2.849   1.562
 3013WAT     OW15061   4.285   2.338   3.277
 3013WAT    HW115062   4.264   2.254   3.237
 3013WAT    HW215063   4.376   2.328   3.306
 3013WAT    LP115064   4.280   2.390   3.231
 3013WAT    LP215065   4.243   2.350   3.332
 3014WAT     OW15066   2.661   5.672   0.796
 3014WAT    HW115067   2.589   5.735   0.808
 3014WAT    HW215068   2.617   5.589   0.775
 3014WAT    LP115069   2.703   5.692   0.744
 3014WAT    LP215070   2.698   5.665   0.855
 3015WAT     OW15071   6.278   4.172   3.151
 3015WAT    HW115072   6.286   4.261   3.184
 3015WAT    HW215073   6.368   4.141   3.145
 3015WAT    LP115074   6.241   4.132   3.195
 3015WAT    LP215075   6.247   4.172   3.088
 3016WAT     OW15076   2.262   1.052   4.976
 3016WAT    HW115077   2.294   0.963   4.962
 3016WAT    HW215078   2.292   1.076   5.064
 3016WAT    LP115079   2.290   1.096   4.928
 3016WAT    LP215080   2.193   1.055   4.972
 3017WAT     OW15081   4.430   1.360   3.460
 3017WAT    HW115082   4.455   1.448   3.433
 3017WAT    HW215083   4.410   1.367   3.553
 3017WAT    LP115084   4.373   1.338   3.424
 3017WAT    LP215085   4.482   1.315   3.449
 3018WAT     OW15086   0.518   1.397   6.488
 3018WAT    HW115087   0.474   1.347   6.556
 3018WAT    HW215088   0.542   1.479   6.531
 3018WAT    LP115089   0.575   1.363   6.466
 3018WAT    LP215090   0.476   1.408   6.434
 3019WAT     OW15091   5.951   2.587   3.235
 3019WAT    HW115092   6.031   2.574   3.185
 3019WAT    HW215093   5.882   2.546   3.183
 3019WAT    LP115094   5.956   2.557   3.298
 3019WAT    LP215095   5.938   2.656   3.243
 3020WAT     OW15096   4.002   6.163   5.658
 3020WAT    HW115097   4.079   6.120   5.695
 3020WAT    HW215098   4.031   6.251   5.637
 3020WAT    LP115099   3.980   6.129   5.601
 3020WAT    LP215100   3.950   6.165   5.705
 3021WAT     OW15101   6.363   2.583   2.312
 3021WAT    HW115102   6.380   2.508   2.369
 3021WAT    HW215103   6.437   2.586   2.252
 3021WAT    LP115104   6.303   2.575   2.277
 3021WAT    LP215105   6.360   2.642   2.350
 3022WAT     OW15106   4.689   4.448   5.237
 3022WAT    HW115107   4.633   4.427   5.312
 3022WAT    HW215108   4.654   4.530   5.202
 3022WAT    LP115109   4.756   4.455   5.257
 3022WAT    LP215110   4.685   4.397   5.188
 3023WAT     OW15111   2.791   4.814   6.583
 3023WAT    HW115112   2.700   4.842   6.576
 3023WAT    HW215113   2.808   4.808   6.676
 3023WAT    LP115114   2.800   4.752   6.552
 3023WAT    LP215115   2.833   4.862   6.553
 3024WAT     OW15116   3.433   1.756   1.929
 3024WAT    HW115117   3.430   1.714   2.015
 3024WAT    HW215118   3.461   1.687   1.870
 3024WAT    LP115119   3.370   1.780   1.911
 3024WAT    LP215120   3.479   1.809   1.929
 3025WAT     OW15121   3.259   1.616   5.375
 3025WAT    HW115122   3.259   1.613   5.471
 3025WAT    HW215123   3.351   1.628   5.351
 3025WAT    LP115124   3.234   1.556   5.348
 3025WAT    LP215125   3.220   1.669   5.352
 3026WAT     OW15126   2.535   4.413   1.376
 3026WAT    HW115127   2.567   4.503   1.380
 3026WAT    HW215128   2.554   4.377   1.463
 3026WAT    LP115129   2.466   4.412   1.364
 3026WAT    LP215130   2.568   4.377   1.327
 3027WAT     OW15131   6.287   2.239   6.327
 3027WAT    HW115132   6.337   2.313   6.293
 3027WAT    HW215133   6.253   2.270   6.411
 3027WAT    LP115134   6.234   2.222   6.284
 3027WAT    LP215135   6.328   2.183   6.336
 3028WAT     OW15136   4.311   5.963   1.032
 3028WAT    HW115137   4.279   6.040   1.080
 3028WAT    HW215138   4.393   5.940   1.076
 3028WAT    LP115139   4.265   5.911   1.037
 3028WAT    LP215140   4.322   5.979   0.965
 3029WAT     OW15141   5.568   4.895   1.258
 3029WAT    HW115142   5.636   4.907   1.192
 3029WAT    HW215143   5.486   4.905   1.210
 3029WAT    LP115144   5.572   4.831   1.287
 3029WAT    LP215145   5.573   4.943   1.309
 3030WAT     OW15146   1.270   0.602   6.364
 3030WAT    HW115147   1.196   0.543   6.356
 3030WAT    HW215148   1.284   0.612   6.458
 3030WAT    LP115149   1.327   0.574   6.334
 3030WAT    LP215150   1.256   0.664   6.334
 3031WAT     OW15151   3.059   4.774   5.956
 3031WAT    HW115152   3.076   4.865   5.932
 3031WAT    HW215153   3.026   4.777   6.045
 3031WAT    LP115154   3.011   4.746   5.913
 3031WAT    LP215155   3.118   4.736   5.952
 3032WAT     OW15156   1.357   4.127   2.687
 3032WAT    HW115157   1.321   4.116   2.599
 3032WAT    HW215158   1.281   4.143   2.743
 3032WAT    LP115159   1.391   4.069   2.708
 3032WAT    LP215160   1.401   4.181   2.689
 3033WAT     OW15161   3.005   5.856   2.234
 3033WAT    HW115162   3.081   5.886   2.184
 3033WAT    HW215163   2.930   5.882   2.180
 3033WAT    LP115164   3.007   5.787   2.242
 3033WAT    LP215165   3.002   5.887   2.297
 3034WAT     OW15166   2.774   5.124   3.098
 3034WAT    HW115167   2.816   5.128   3.012
 3034WAT    HW215168   2.683   5.104   3.079
 3034WAT    LP115169   2.803   5.073   3.137
 3034WAT    LP215170   2.780   5.185   3.131
 3035WAT     OW15171   5.486   5.120   2.804
 3035WAT    HW115172   5.502   5.212   2.825
 3035WAT    HW215173   5.571   5.078   2.811
 3035WAT    LP115174   5.440   5.092   2.849
 3035WAT    LP215175   5.460   5.113   2.739
 3036WAT     OW15176   5.681   6.673   3.814
 3036WAT    HW115177   5.662   6.663   3.908
 3036WAT    HW215178   5.772   6.702   3.811
 3036WAT    LP115179   5.674   6.612   3.781
 3036WAT    LP215180   5.639   6.720   3.786
 3037WAT     OW15181   5.972   3.142   3.858
 3037WAT    HW115182   5.908   3.087   3.812
 3037WAT    HW215183   6.039   3.161   3.792
 3037WAT    LP115184   5.943   3.201   3.881
 3037WAT    LP215185   6.000   3.107   3.912
 3038WAT     OW15186   1.769   1.384   0.659
 3038WAT    HW115187   1.746   1.305   0.610
 3038WAT    HW215188   1.735   1.368   0.747
 3038WAT    LP115189   1.839   1.393   0.661
 3038WAT    LP215190   1.739   1.440   0.631
 3039WAT     OW15191   3.542   3.299   1.495
 3039WAT    HW115192   3.528   3.246   1.574
 3039WAT    HW215193   3.473   3.365   1.498
 3039WAT    LP115194   3.605   3.329   1.497
 3039WAT    LP215195   3.536   3.259   1.438
 3040WAT     OW15196   3.019   1.659   0.632
 3040WAT    HW115197   2.955   1.648   0.561
 3040WAT    HW215198   2.982   1.729   0.686
 3040WAT    LP115199   3.025   1.600   0.669
 3040WAT    LP215200   3.081   1.677   0.606
 3041WAT     OW15201   0.386   2.186   1.742
 3041WAT    HW115202   0.480   2.166   1.750
 3041WAT    HW215203   0.372   2.197   1.648
 3041WAT    LP115204   0.348   2.134   1.767
 3041WAT    LP215205   0.371   2.245   1.776
 3042WAT     OW15206   1.836   0.540   0.084
 3042WAT    HW115207   1.827   0.627   0.044
 3042WAT    HW215208   1.773   0.485   0.037
 3042WAT    LP115209   1.901   0.516   0.076
 3042WAT    LP215210   1.820   0.542   0.152
 3043WAT     OW15211   2.558   0.991   0.973
 3043WAT    HW115212   2.644   1.033   0.981
 3043WAT    HW215213   2.567   0.934   0.897
 3043WAT    LP115214   2.544   0.954   1.031
 3043WAT    LP215215   2.509   1.039   0.963
 3044WAT     OW15216   6.054   5.155   3.293
 3044WAT    HW115217   5.960   5.136   3.284
 3044WAT    HW215218   6.097   5.081   3.250
 3044WAT    LP115219   6.070   5.215   3.261
 3044WAT    LP215220   6.072   5.158   3.361
 3045WAT     OW15221   2.357   0.116   3.785
 3045WAT    HW115222   2.304   0.195   3.773
 3045WAT    HW215223   2.447   0.146   3.771
 3045WAT    LP115224   2.349   0.091   3.850
 3045WAT    LP215225   2.339   0.067   3.739
 3046WAT     OW15226   4.776   2.923   2.519
 3046WAT    HW115227   4.809   2.834   2.505
 3046WAT    HW215228   4.713   2.915   2.590
 3046WAT    LP115229   4.829   2.966   2.537
 3046WAT    LP215230   4.745   2.947   2.461
 3047WAT     OW15231   6.325   6.374   6.461
 3047WAT    HW115232   6.240   6.368   6.417
 3047WAT    HW215233   6.343   6.285   6.489
 3047WAT    LP115234   6.374   6.397   6.417
 3047WAT    LP215235   6.321   6.418   6.516
 3048WAT     OW15236   3.289   0.243   2.452
 3048WAT    HW115237   3.236   0.288   2.387
 3048WAT    HW215238   3.380   0.263   2.428
 3048WAT    LP115239   3.275   0.268   2.516
 3048WAT    LP215240   3.277   0.174   2.450
 3049WAT     OW15241   0.696   6.649   4.015
 3049WAT    HW115242   0.679   6.609   4.100
 3049WAT    HW215243   0.609   6.666   3.979
 3049WAT    LP115244   0.732   6.708   4.022
 3049WAT    LP215245   0.731   6.604   3.974
 3050WAT     OW15246   0.087   2.583   2.152
 3050WAT    HW115247   0.090   2.526   2.075
 3050WAT    HW215248   0.115   2.527   2.224
 3050WAT    LP115249   0.131   2.637   2.144
 3050WAT    LP215250   0.022   2.607   2.162
 3051WAT     OW15251   4.731   4.623   3.821
 3051WAT    HW115252   4.729   4.669   3.905
 3051WAT    HW215253   4.743   4.531   3.845
 3051WAT    LP115254   4.670   4.632   3.787
 3051WAT    LP215255   4.784   4.646   3.781
 3052WAT     OW15256   3.671   2.500   4.495
 3052WAT    HW115257   3.635   2.587   4.514
 3052WAT    HW215258   3.625   2.442   4.555
 3052WAT    LP115259   3.658   2.482   4.428
 3052WAT    LP215260   3.740   2.499   4.507
 3053WAT     OW15261   2.731   2.052   4.694
 3053WAT    HW115262   2.669   2.100   4.639
 3053WAT    HW215263   2.688   2.048   4.780
 3053WAT    LP115264   2.742   1.988   4.669
 3053WAT    LP215265   2.791   2.087   4.699
 3054WAT     OW15266   1.503   0.915   5.553
 3054WAT    HW115267   1.444   0.978   5.512
 3054WAT    HW215268   1.518   0.949   5.641
 3054WAT    LP115269   1.474   0.851   5.556
 3054WAT    LP215270   1.563   0.911   5.517
 3055WAT     OW15271   3.072   1.676   4.515
 3055WAT    HW115272   3.064   1.723   4.598
 3055WAT    HW215273   3.050   1.742   4.448
 3055WAT    LP115274   3.138   1.653   4.505
 3055WAT    LP215275   3.028   1.622   4.512
 3056WAT     OW15276   2.787   5.898   2.051
 3056WAT    HW115277   2.763   5.982   2.014
 3056WAT    HW215278   2.704   5.859   2.078
 3056WAT    LP115279   2.819   5.858   2.003
 3056WAT    LP215280   2.829   5.906   2.106
 3057WAT     OW15281   6.406   4.604   3.925
 3057WAT    HW115282   6.498   4.575   3.923
 3057WAT    HW215283   6.356   4.522   3.918
 3057WAT    LP115284   6.392   4.637   3.985
 3057WAT    LP215285   6.392   4.646   3.871
 3058WAT     OW15286   5.508   1.574   5.871
 3058WAT    HW115287   5.508   1.487   5.911
 3058WAT    HW215288   5.592   1.580   5.826
 3058WAT    LP115289   5.455   1.580   5.825
 3058WAT    LP215290   5.502   1.624   5.919
 3059WAT     OW15291   1.742   4.162   2.002
 3059WAT    HW115292   1.664   4.122   1.966
 3059WAT    HW215293   1.772   4.223   1.935
 3059WAT    LP115294   1.727   4.196   2.062
 3059WAT    LP215295   1.791   4.114   2.015
 3060WAT     OW15296   0.427   5.418   4.499
 3060WAT    HW115297   0.340   5.423   4.539
 3060WAT    HW215298   0.457   5.509   4.493
 3060WAT    LP115299   0.471   5.380   4.539
 3060WAT    LP215300   0.423   5.389   4.435
 3061WAT     OW15301   2.208   2.568   0.108
 3061WAT    HW115302   2.119   2.603   0.100
 3061WAT    HW215303   2.195   2.474   0.123
 3061WAT    LP115304   2.245   2.579   0.050
 3061WAT    LP215305   2.241   2.597   0.163
 3062WAT     OW15306   5.481   3.576   6.455
 3062WAT    HW115307   5.505   3.558   6.546
 3062WAT    HW215308   5.558   3.551   6.404
 3062WAT    LP115309   5.425   3.538   6.436
 3062WAT    LP215310   5.467   3.644   6.446
 3063WAT     OW15311   2.875   6.313   6.293
 3063WAT    HW115312   2.925   6.288   6.371
 3063WAT    HW215313   2.814   6.240   6.280
 3063WAT    LP115314   2.841   6.373   6.303
 3063WAT    LP215315   2.918   6.319   6.238
 3064WAT     OW15316   6.294   6.108   4.004
 3064WAT    HW115317   6.290   6.204   4.013
 3064WAT    HW215318   6.219   6.076   4.055
 3064WAT    LP115319   6.289   6.090   3.937
 3064WAT    LP215320   6.354   6.083   4.031
 3065WAT     OW15321   4.637   1.124   6.372
 3065WAT    HW115322   4.544   1.112   6.392
 3065WAT    HW215323   4.640   1.127   6.276
 3065WAT    LP115324   4.661   1.184   6.399
 3065WAT    LP215325   4.674   1.071   6.396
 3066WAT     OW15326   4.028   1.876   0.756
 3066WAT    HW115327   3.977   1.795   0.757
 3066WAT    HW215328   4.101   1.857   0.697
 3066WAT    LP115329   3.990   1.929   0.731
 3066WAT    LP215330   4.051   1.891   0.820
 3067WAT     OW15331   1.407   4.657   3.894
 3067WAT    HW115332   1.359   4.675   3.813
 3067WAT    HW215333   1.398   4.737   3.945
 3067WAT    LP115334   1.378   4.602   3.928
 3067WAT    LP215335   1.474   4.643   3.881
 3068WAT     OW15336   6.090   0.519   4.076
 3068WAT    HW115337   6.127   0.569   4.148
 3068WAT    HW215338   5.996   0.526   4.088
 3068WAT    LP115339   6.110   0.546   4.014
 3068WAT    LP215340   6.111   0.452   4.079
 3069WAT     OW15341   5.506   5.544   0.792
 3069WAT    HW115342   5.437   5.477   0.789
 3069WAT    HW215343   5.483   5.598   0.868
 3069WAT    LP115344   5.569   5.514   0.800
 3069WAT    LP215345   5.505   5.582   0.733
 3070WAT     OW15346   1.819   0.255   2.090
 3070WAT    HW115347   1.745   0.309   2.116
 3070WAT    HW215348   1.779   0.172   2.063
 3070WAT    LP115349   1.854   0.284   2.037
 3070WAT    LP215350   1.862   0.245   2.144
 3071WAT     OW15351   2.628   5.900   1.511
 3071WAT    HW115352   2.690   5.870   1.577
 3071WAT    HW215353   2.639   5.995   1.509
 3071WAT    LP115354   2.643   5.872   1.448
 3071WAT    LP215355   2.563   5.883   1.528
 3072WAT     OW15356   3.821   2.135   1.824
 3072WAT    HW115357   3.850   2.089   1.745
 3072WAT    HW215358   3.729   2.112   1.832
 3072WAT    LP115359   3.857   2.114   1.880
 3072WAT    LP215360   3.828   2.204   1.816
 3073WAT     OW15361   5.747   0.117   5.807
 3073WAT    HW115362   5.743   0.184   5.876
 3073WAT    HW215363   5.712   0.161   5.730
 3073WAT    LP115364   5.813   0.097   5.796
 3073WAT    LP215365   5.707   0.062   5.824
 3074WAT     OW15366   0.529   0.843   3.035
 3074WAT    HW115367   0.559   0.886   3.116
 3074WAT    HW215368   0.441   0.877   3.021
 3074WAT    LP115369   0.571   0.860   2.981
 3074WAT    LP215370   0.528   0.773   3.043
 3075WAT     OW15371   6.574   3.351   1.111
 3075WAT    HW115372   6.651   3.309   1.071
 3075WAT    HW215373   6.589   3.343   1.205
 3075WAT    LP115374   6.570   3.418   1.092
 3075WAT    LP215375   6.515   3.317   1.092
 3076WAT     OW15376   2.120   5.902   4.811
 3076WAT    HW115377   2.128   5.844   4.735
 3076WAT    HW215378   2.031   5.938   4.804
 3076WAT    LP115379   2.127   5.865   4.871
 3076WAT    LP215380   2.168   5.953   4.809
 3077WAT     OW15381   2.205   2.837   4.907
 3077WAT    HW115382   2.257   2.799   4.978
 3077WAT    HW215383   2.150   2.902   4.951
 3077WAT    LP115384   2.246   2.868   4.860
 3077WAT    LP215385   2.166   2.788   4.876
 3078WAT     OW15386   3.172   5.174   4.814
 3078WAT    HW115387   3.263   5.201   4.829
 3078WAT    HW215388   3.170   5.081   4.837
 3078WAT    LP115389   3.128   5.211   4.855
 3078WAT    LP215390   3.155   5.183   4.747
 3079WAT     OW15391   5.702   5.129   0.922
 3079WAT    HW115392   5.731   5.049   0.965
 3079WAT    HW215393   5.714   5.198   0.987
 3079WAT    LP115394   5.742   5.142   0.865
 3079WAT    LP215395   5.635   5.124   0.903
 3080WAT     OW15396   0.823   6.416   0.373
 3080WAT    HW115397   0.732   6.409   0.402
 3080WAT    HW215398   0.872   6.427   0.454
 3080WAT    LP115399   0.842   6.357   0.340
 3080WAT    LP215400   0.831   6.471   0.331
 3081WAT     OW15401   1.909   1.143   4.543
 3081WAT    HW115402   1.869   1.101   4.619
 3081WAT    HW215403   2.001   1.155   4.568
 3081WAT    LP115404   1.904   1.101   4.487
 3081WAT    LP215405   1.878   1.204   4.530
 3082WAT     OW15406   5.763   4.210   1.898
 3082WAT    HW115407   5.680   4.258   1.901
 3082WAT    HW215408   5.830   4.278   1.906
 3082WAT    LP115409   5.767   4.164   1.950
 3082WAT    LP215410   5.770   4.177   1.837
 3083WAT     OW15411   4.306   1.975   2.461
 3083WAT    HW115412   4.297   1.898   2.517
 3083WAT    HW215413   4.218   1.987   2.424
 3083WAT    LP115414   4.325   2.031   2.497
 3083WAT    LP215415   4.352   1.963   2.410
 3084WAT     OW15416   2.250   2.711   4.368
 3084WAT    HW115417   2.183   2.653   4.334
 3084WAT    HW215418   2.208   2.756   4.441
 3084WAT    LP115419   2.306   2.675   4.390
 3084WAT    LP215420   2.270   2.757   4.319
 3085WAT     OW15421   1.259   6.620   5.002
 3085WAT    HW115422   1.213   6.609   5.085
 3085WAT    HW215423   1.190   6.624   4.936
 3085WAT    LP115424   1.296   6.679   5.002
 3085WAT    LP215425   1.302   6.566   4.990
 3086WAT     OW15426   4.404   3.408   3.312
 3086WAT    HW115427   4.324   3.368   3.278
 3086WAT    HW215428   4.384   3.502   3.315
 3086WAT    LP115429   4.418   3.384   3.376
 3086WAT    LP215430   4.458   3.395   3.269
 3087WAT     OW15431   1.926   6.617   1.051
 3087WAT    HW115432   1.880   6.684   1.001
 3087WAT    HW215433   2.017   6.646   1.053
 3087WAT    LP115434   1.900   6.613   1.116
 3087WAT    LP215435   1.920   6.554   1.021
 3088WAT     OW15436   3.724   4.014   6.166
 3088WAT    HW115437   3.698   4.106   6.177
 3088WAT    HW215438   3.812   4.010   6.205
 3088WAT    LP115439   3.680   3.972   6.200
 3088WAT    LP215440   3.726   3.997   6.099
 3089WAT     OW15441   4.549   6.439   4.732
 3089WAT    HW115442   4.502   6.378   4.789
 3089WAT    HW215443   4.517   6.525   4.759
 3089WAT    LP115444   4.618   6.435   4.742
 3089WAT    LP215445   4.534   6.427   4.665
 3090WAT     OW15446   1.462   4.688   3.431
 3090WAT    HW115447   1.415   4.690   3.348
 3090WAT    HW215448   1.541   4.638   3.413
 3090WAT    LP115449   1.478   4.753   3.452
 3090WAT    LP215450   1.423   4.657   3.481
 3091WAT     OW15451   4.789   5.117   6.516
 3091WAT    HW115452   4.864   5.065   6.488
 3091WAT    HW215453   4.746   5.063   6.582
 3091WAT    LP115454   4.810   5.178   6.543
 3091WAT    LP215455   4.746   5.128   6.462
 3092WAT     OW15456   1.060   3.528   0.347
 3092WAT    HW115457   1.040   3.524   0.441
 3092WAT    HW215458   0.976   3.546   0.305
 3092WAT    LP115459   1.106   3.580   0.334
 3092WAT    LP215460   1.087   3.467   0.325
 3093WAT     OW15461   2.638   2.889   4.748
 3093WAT    HW115462   2.645   2.795   4.735
 3093WAT    HW215463   2.549   2.911   4.719
 3093WAT    LP115464   2.647   2.906   4.815
 3093WAT    LP215465   2.686   2.923   4.708
 3094WAT     OW15466   5.249   4.907   1.841
 3094WAT    HW115467   5.310   4.966   1.885
 3094WAT    HW215468   5.171   4.961   1.823
 3094WAT    LP115469   5.276   4.883   1.781
 3094WAT    LP215470   5.232   4.853   1.882
 3095WAT     OW15471   1.487   0.688   0.411
 3095WAT    HW115472   1.565   0.649   0.450
 3095WAT    HW215473   1.467   0.632   0.337
 3095WAT    LP115474   1.434   0.688   0.457
 3095WAT    LP215475   1.500   0.753   0.390
 3096WAT     OW15476   0.549   4.400   4.696
 3096WAT    HW115477   0.454   4.391   4.708
 3096WAT    HW215478   0.579   4.446   4.775
 3096WAT    LP115479   0.579   4.337   4.692
 3096WAT    LP215480   0.563   4.437   4.639
 3097WAT     OW15481   3.242   2.389   0.388
 3097WAT    HW115482   3.257   2.307   0.434
 3097WAT    HW215483   3.165   2.373   0.334
 3097WAT    LP115484   3.231   2.442   0.433
 3097WAT    LP215485   3.297   2.405   0.347
 3098WAT     OW15486   2.358   5.925   1.449
 3098WAT    HW115487   2.444   5.908   1.488
 3098WAT    HW215488   2.296   5.904   1.519
 3098WAT    LP115489   2.352   5.992   1.430
 3098WAT    LP215490   2.347   5.884   1.393
 3099WAT     OW15491   5.731   0.952   6.573
 3099WAT    HW115492   5.732   0.856   6.572
 3099WAT    HW215493   5.821   0.977   6.593
 3099WAT    LP115494   5.712   0.977   6.510
 3099WAT    LP215495   5.687   0.976   6.622
 3100WAT     OW15496   3.430   2.655   1.316
 3100WAT    HW115497   3.427   2.668   1.411
 3100WAT    HW215498   3.364   2.714   1.281
 3100WAT    LP115499   3.493   2.671   1.291
 3100WAT    LP215500   3.415   2.588   1.300
 3101WAT     OW15501   4.960   6.512   2.207
 3101WAT    HW115502   4.867   6.538   2.210
 3101WAT    HW215503   4.995   6.542   2.291
 3101WAT    LP115504   4.966   6.443   2.201
 3101WAT    LP215505   4.992   6.544   2.154
 3102WAT     OW15506   3.656   3.898   0.489
 3102WAT    HW115507   3.748   3.895   0.460
 3102WAT    HW215508   3.635   3.807   0.510
 3102WAT    LP115509   3.650   3.939   0.546
 3102WAT    LP215510   3.615   3.923   0.438
 3103WAT     OW15511   6.247   5.930   6.341
 3103WAT    HW115512   6.152   5.927   6.351
 3103WAT    HW215513   6.262   5.923   6.247
 3103WAT    LP115514   6.272   5.991   6.366
 3103WAT    LP215515   6.278   5.877   6.375
 3104WAT     OW15516   1.897   3.576   4.564
 3104WAT    HW115517   1.992   3.577   4.553
 3104WAT    HW215518   1.884   3.576   4.659
 3104WAT    LP115519   1.868   3.633   4.536
 3104WAT    LP215520   1.869   3.519   4.536
 3105WAT     OW15521   5.715   4.324   4.472
 3105WAT    HW115522   5.755   4.394   4.523
 3105WAT    HW215523   5.692   4.364   4.389
 3105WAT    LP115524   5.760   4.271   4.463
 3105WAT    LP215525   5.657   4.300   4.505
 3106WAT     OW15526   5.129   0.929   3.075
 3106WAT    HW115527   5.101   1.013   3.039
 3106WAT    HW215528   5.052   0.873   3.067
 3106WAT    LP115529   5.183   0.903   3.038
 3106WAT    LP215530   5.148   0.935   3.142
 3107WAT     OW15531   6.550   4.120   4.268
 3107WAT    HW115532   6.554   4.025   4.279
 3107WAT    HW215533   6.459   4.143   4.289
 3107WAT    LP115534   6.594   4.152   4.312
 3107WAT    LP215535   6.565   4.138   4.202
 3108WAT     OW15536   0.133   5.842   1.641
 3108WAT    HW115537   0.080   5.819   1.718
 3108WAT    HW215538   0.155   5.934   1.655
 3108WAT    LP115539   0.190   5.803   1.638
 3108WAT    LP215540   0.095   5.834   1.583
 3109WAT     OW15541   4.824   3.764   4.046
 3109WAT    HW115542   4.732   3.777   4.021
 3109WAT    HW215543   4.873   3.811   3.979
 3109WAT    LP115544   4.836   3.792   4.110
 3109WAT    LP215545   4.840   3.696   4.046
 3110WAT     OW15546   3.792   1.502   6.363
 3110WAT    HW115547   3.828   1.424   6.321
 3110WAT    HW215548   3.792   1.568   6.293
 3110WAT    LP115549   3.727   1.490   6.386
 3110WAT    LP215550   3.833   1.523   6.416
 3111WAT     OW15551   4.951   3.825   5.460
 3111WAT    HW115552   4.881   3.779   5.506
 3111WAT    HW215553   4.911   3.906   5.429
 3111WAT    LP115554   5.005   3.838   5.503
 3111WAT    LP215555   4.974   3.786   5.406
 3112WAT     OW15556   3.928   5.267   2.883
 3112WAT    HW115557   3.968   5.320   2.814
 3112WAT    HW215558   3.996   5.260   2.950
 3112WAT    LP115559   3.871   5.299   2.909
 3112WAT    LP215560   3.910   5.204   2.859
 3113WAT     OW15561   1.836   1.218   5.141
 3113WAT    HW115562   1.898   1.189   5.075
 3113WAT    HW215563   1.796   1.297   5.104
 3113WAT    LP115564   1.787   1.169   5.153
 3113WAT    LP215565   1.868   1.233   5.201
 3114WAT     OW15566   5.320   6.471   3.043
 3114WAT    HW115567   5.340   6.395   2.987
 3114WAT    HW215568   5.397   6.527   3.035
 3114WAT    LP115569   5.263   6.504   3.021
 3114WAT    LP215570   5.311   6.450   3.109
 3115WAT     OW15571   3.941   3.907   3.680
 3115WAT    HW115572   3.952   3.964   3.756
 3115WAT    HW215573   3.931   3.819   3.716
 3115WAT    LP115574   3.884   3.926   3.643
 3115WAT    LP215575   3.998   3.911   3.639
 3116WAT     OW15576   0.581   3.092   2.502
 3116WAT    HW115577   0.510   3.044   2.460
 3116WAT    HW215578   0.570   3.074   2.595
 3116WAT    LP115579   0.643   3.068   2.479
 3116WAT    LP215580   0.576   3.160   2.489
 3117WAT     OW15581   4.289   3.197   2.972
 3117WAT    HW115582   4.231   3.156   2.908
 3117WAT    HW215583   4.338   3.263   2.921
 3117WAT    LP115584   4.253   3.228   3.023
 3117WAT    LP215585   4.333   3.150   2.999
 3118WAT     OW15586   6.450   2.499   5.538
 3118WAT    HW115587   6.455   2.560   5.464
 3118WAT    HW215588   6.489   2.547   5.611
 3118WAT    LP115589   6.383   2.483   5.552
 3118WAT    LP215590   6.486   2.441   5.524
 3119WAT     OW15591   0.113   0.106   1.867
 3119WAT    HW115592   0.103   0.176   1.932
 3119WAT    HW215593   0.198   0.123   1.826
 3119WAT    LP115594   0.112   0.044   1.898
 3119WAT    LP215595   0.061   0.109   1.820
 3120WAT     OW15596   3.995   5.866   4.767
 3120WAT    HW115597   4.008   5.934   4.701
 3120WAT    HW215598   3.903   5.842   4.758
 3120WAT    LP115599   4.036   5.811   4.754
 3120WAT    LP215600   4.008   5.891   4.831
 3121WAT     OW15601   6.670   2.286   4.172
 3121WAT    HW115602   6.759   2.278   4.138
 3121WAT    HW215603   6.671   2.367   4.223
 3121WAT    LP115604   6.624   2.291   4.119
 3121WAT    LP215605   6.653   2.232   4.212
 3122WAT     OW15606   3.918   1.460   2.729
 3122WAT    HW115607   3.825   1.470   2.708
 3122WAT    HW215608   3.927   1.498   2.816
 3122WAT    LP115609   3.936   1.392   2.730
 3122WAT    LP215610   3.958   1.494   2.683
 3123WAT     OW15611   4.035   3.369   3.457
 3123WAT    HW115612   4.081   3.321   3.388
 3123WAT    HW215613   3.958   3.315   3.477
 3123WAT    LP115614   4.076   3.375   3.514
 3123WAT    LP215615   4.016   3.432   3.435
 3124WAT     OW15616   2.487   1.616   0.240
 3124WAT    HW115617   2.522   1.568   0.165
 3124WAT    HW215618   2.429   1.553   0.284
 3124WAT    LP115619   2.539   1.635   0.283
 3124WAT    LP215620   2.451   1.672   0.219
 3125WAT     OW15621   3.762   0.004   6.640
 3125WAT    HW115622   3.820   0.042   6.705
 3125WAT    HW215623   3.818  -0.059   6.592
 3125WAT    LP115624   3.709  -0.029   6.670
 3125WAT    LP215625   3.738   0.053   6.596
 3126WAT     OW15626   6.305   5.853   2.264
 3126WAT    HW115627   6.276   5.853   2.172
 3126WAT    HW215628   6.244   5.794   2.308
 3126WAT    LP115629   6.371   5.829   2.269
 3126WAT    LP215630   6.301   5.917   2.291
 3127WAT     OW15631   4.869   1.768   1.869
 3127WAT    HW115632   4.780   1.801   1.857
 3127WAT    HW215633   4.877   1.754   1.963
 3127WAT    LP115634   4.878   1.708   1.834
 3127WAT    LP215635   4.916   1.815   1.847
 3128WAT     OW15636   5.228   6.362   1.260
 3128WAT    HW115637   5.322   6.367   1.274
 3128WAT    HW215638   5.196   6.307   1.332
 3128WAT    LP115639   5.199   6.425   1.262
 3128WAT    LP215640   5.213   6.332   1.198
 3129WAT     OW15641   2.669   2.080   3.864
 3129WAT    HW115642   2.579   2.046   3.860
 3129WAT    HW215643   2.724   2.002   3.870
 3129WAT    LP115644   2.684   2.117   3.807
 3129WAT    LP215645   2.677   2.120   3.921
 3130WAT     OW15646   1.253   0.362   3.753
 3130WAT    HW115647   1.210   0.310   3.821
 3130WAT    HW215648   1.242   0.311   3.673
 3130WAT    LP115649   1.223   0.425   3.747
 3130WAT    LP215650   1.321   0.370   3.768
 3131WAT     OW15651   0.156   4.865   1.120
 3131WAT    HW115652   0.092   4.828   1.059
 3131WAT    HW215653   0.196   4.937   1.072
 3131WAT    LP115654   0.124   4.889   1.178
 3131WAT    LP215655   0.204   4.818   1.138
 3132WAT     OW15656   1.606   5.699   0.717
 3132WAT    HW115657   1.540   5.754   0.758
 3132WAT    HW215658   1.570   5.677   0.631
 3132WAT    LP115659   1.666   5.734   0.711
 3132WAT    LP215660   1.617   5.641   0.755
 3133WAT     OW15661   3.268   1.400   3.250
 3133WAT    HW115662   3.348   1.354   3.273
 3133WAT    HW215663   3.259   1.468   3.317
 3133WAT    LP115664   3.272   1.428   3.186
 3133WAT    LP215665   3.213   1.356   3.252
 3134WAT     OW15666   1.601   6.256   6.640
 3134WAT    HW115667   1.638   6.344   6.642
 3134WAT    HW215668   1.545   6.256   6.562
 3134WAT    LP115669   1.652   6.208   6.634
 3134WAT    LP215670   1.563   6.243   6.697
 3135WAT     OW15671   2.540   2.012   4.193
 3135WAT    HW115672   2.513   2.054   4.112
 3135WAT    HW215673   2.495   2.060   4.262
 3135WAT    LP115674   2.522   1.944   4.193
 3135WAT    LP215675   2.610   2.016   4.201
 3136WAT     OW15676   0.833   2.508   4.701
 3136WAT    HW115677   0.754   2.519   4.754
 3136WAT    HW215678   0.856   2.416   4.711
 3136WAT    LP115679   0.820   2.524   4.634
 3136WAT    LP215680   0.885   2.549   4.725
 3137WAT     OW15681   2.966   0.799   3.225
 3137WAT    HW115682   3.027   0.853   3.175
 3137WAT    HW215683   2.971   0.713   3.184
 3137WAT    LP115684   2.984   0.796   3.292
 3137WAT    LP215685   2.901   0.825   3.220
 3138WAT     OW15686   4.113   3.644   3.971
 3138WAT    HW115687   4.052   3.652   3.898
 3138WAT    HW215688   4.075   3.577   4.027
 3138WAT    LP115689   4.176   3.625   3.948
 3138WAT    LP215690   4.119   3.705   4.005
 3139WAT     OW15691   2.995   0.828   4.930
 3139WAT    HW115692   3.054   0.891   4.970
 3139WAT    HW215693   2.988   0.757   4.994
 3139WAT    LP115694   2.932   0.857   4.919
 3139WAT    LP215695   3.021   0.805   4.869
 3140WAT     OW15696   5.619   5.648   4.544
 3140WAT    HW115697   5.568   5.666   4.623
 3140WAT    HW215698   5.659   5.563   4.559
 3140WAT    LP115699   5.577   5.646   4.488
 3140WAT    LP215700   5.668   5.697   4.534
 3141WAT     OW15701   5.236   3.455   4.720
 3141WAT    HW115702   5.282   3.472   4.638
 3141WAT    HW215703   5.304   3.423   4.779
 3141WAT    LP115704   5.207   3.514   4.745
 3141WAT    LP215705   5.186   3.407   4.711
 3142WAT     OW15706   4.903   3.626   2.828
 3142WAT    HW115707   4.868   3.626   2.917
 3142WAT    HW215708   4.931   3.536   2.812
 3142WAT    LP115709   4.854   3.645   2.782
 3142WAT    LP215710   4.958   3.670   2.823
 3143WAT     OW15711   2.960   5.291   2.010
 3143WAT    HW115712   2.997   5.379   2.013
 3143WAT    HW215713   2.900   5.293   1.935
 3143WAT    LP115714   3.010   5.244   2.000
 3143WAT    LP215715   2.925   5.277   2.069
 3144WAT     OW15716   6.614   6.465   2.478
 3144WAT    HW115717   6.696   6.427   2.445
 3144WAT    HW215718   6.560   6.390   2.500
 3144WAT    LP115719   6.626   6.505   2.535
 3144WAT    LP215720   6.584   6.504   2.429
 3145WAT     OW15721   6.038   4.007   2.283
 3145WAT    HW115722   6.009   4.029   2.195
 3145WAT    HW215723   6.120   4.055   2.295
 3145WAT    LP115724   5.991   4.026   2.331
 3145WAT    LP215725   6.050   3.938   2.289
 3146WAT     OW15726   5.653   6.493   3.229
 3146WAT    HW115727   5.570   6.490   3.277
 3146WAT    HW215728   5.629   6.517   3.140
 3146WAT    LP115729   5.696   6.541   3.257
 3146WAT    LP215730   5.685   6.430   3.231
 3147WAT     OW15731   0.139   5.357   2.787
 3147WAT    HW115732   0.173   5.274   2.822
 3147WAT    HW215733   0.128   5.413   2.865
 3147WAT    LP115734   0.185   5.386   2.743
 3147WAT    LP215735   0.078   5.347   2.755
 3148WAT     OW15736   3.581   3.832   2.670
 3148WAT    HW115737   3.655   3.829   2.730
 3148WAT    HW215738   3.601   3.906   2.611
 3148WAT    LP115739   3.576   3.773   2.634
 3148WAT    LP215740   3.521   3.844   2.705
 3149WAT     OW15741   1.609   3.509   2.221
 3149WAT    HW115742   1.669   3.439   2.195
 3149WAT    HW215743   1.523   3.469   2.218
 3149WAT    LP115744   1.624   3.532   2.286
 3149WAT    LP215745   1.613   3.563   2.177
 3150WAT     OW15746   5.883   5.786   0.886
 3150WAT    HW115747   5.793   5.815   0.903
 3150WAT    HW215748   5.889   5.702   0.931
 3150WAT    LP115749   5.894   5.779   0.818
 3150WAT    LP215750   5.928   5.832   0.913
 3151WAT     OW15751   1.436   4.896   6.225
 3151WAT    HW115752   1.430   4.807   6.190
 3151WAT    HW215753   1.528   4.920   6.214
 3151WAT    LP115754   1.395   4.940   6.189
 3151WAT    LP215755   1.418   4.898   6.293
 3152WAT     OW15756   2.214   2.645   3.183
 3152WAT    HW115757   2.283   2.598   3.137
 3152WAT    HW215758   2.190   2.587   3.255
 3152WAT    LP115759   2.238   2.706   3.208
 3152WAT    LP215760   2.160   2.656   3.141
 3153WAT     OW15761   5.448   5.946   5.364
 3153WAT    HW115762   5.514   5.877   5.374
 3153WAT    HW215763   5.404   5.950   5.449
 3153WAT    LP115764   5.479   6.007   5.350
 3153WAT    LP215765   5.403   5.930   5.313
 3154WAT     OW15766   1.762   0.373   4.338
 3154WAT    HW115767   1.817   0.351   4.414
 3154WAT    HW215768   1.796   0.457   4.308
 3154WAT    LP115769   1.769   0.324   4.288
 3154WAT    LP215770   1.695   0.378   4.357
 3155WAT     OW15771   1.478   5.450   5.364
 3155WAT    HW115772   1.527   5.372   5.337
 3155WAT    HW215773   1.406   5.416   5.417
 3155WAT    LP115774   1.519   5.493   5.401
 3155WAT    LP215775   1.454   5.484   5.308
 3156WAT     OW15776   6.205   0.372   5.249
 3156WAT    HW115777   6.280   0.402   5.300
 3156WAT    HW215778   6.201   0.432   5.175
 3156WAT    LP115779   6.214   0.306   5.227
 3156WAT    LP215780   6.146   0.376   5.287
 3157WAT     OW15781   6.552   2.939   0.222
 3157WAT    HW115782   6.573   2.899   0.137
 3157WAT    HW215783   6.499   3.015   0.200
 3157WAT    LP115784   6.517   2.894   0.262
 3157WAT    LP215785   6.611   2.958   0.255
 3158WAT     OW15786   2.128   4.879   4.445
 3158WAT    HW115787   2.063   4.844   4.505
 3158WAT    HW215788   2.085   4.878   4.360
 3158WAT    LP115789   2.146   4.945   4.463
 3158WAT    LP215790   2.186   4.839   4.444
 3159WAT     OW15791   5.657   2.827   3.193
 3159WAT    HW115792   5.730   2.822   3.255
 3159WAT    HW215793   5.601   2.896   3.228
 3159WAT    LP115794   5.680   2.843   3.129
 3159WAT    LP215795   5.623   2.766   3.191
 3160WAT     OW15796   2.384   5.078   6.428
 3160WAT    HW115797   2.303   5.126   6.441
 3160WAT    HW215798   2.448   5.144   6.401
 3160WAT    LP115799   2.405   5.046   6.487
 3160WAT    LP215800   2.376   5.030   6.377
 3161WAT     OW15801   3.446   4.267   5.350
 3161WAT    HW115802   3.357   4.297   5.368
 3161WAT    HW215803   3.496   4.347   5.335
 3161WAT    LP115804   3.472   4.231   5.404
 3161WAT    LP215805   3.448   4.226   5.293
 3162WAT     OW15806   6.611   1.476   2.828
 3162WAT    HW115807   6.553   1.449   2.900
 3162WAT    HW215808   6.555   1.472   2.750
 3162WAT    LP115809   6.635   1.540   2.838
 3162WAT    LP215810   6.665   1.431   2.822
 3163WAT     OW15811   6.247   2.496   4.634
 3163WAT    HW115812   6.234   2.406   4.664
 3163WAT    HW215813   6.221   2.550   4.708
 3163WAT    LP115814   6.314   2.508   4.617
 3163WAT    LP215815   6.206   2.510   4.578
 3164WAT     OW15816   6.179   6.470   1.721
 3164WAT    HW115817   6.215   6.456   1.809
 3164WAT    HW215818   6.220   6.401   1.669
 3164WAT    LP115819   6.110   6.463   1.721
 3164WAT    LP215820   6.197   6.533   1.697
 3165WAT     OW15821   4.510   0.954   4.473
 3165WAT    HW115822   4.595   0.949   4.429
 3165WAT    HW215823   4.523   1.019   4.542
 3165WAT    LP115824   4.460   0.975   4.428
 3165WAT    LP215825   4.492   0.892   4.500
 3166WAT     OW15826   0.597   4.297   3.605
 3166WAT    HW115827   0.648   4.320   3.682
 3166WAT    HW215828   0.574   4.205   3.618
 3166WAT    LP115829   0.539   4.336   3.600
 3166WAT    LP215830   0.635   4.305   3.547
 3167WAT     OW15831   0.662   5.775   2.362
 3167WAT    HW115832   0.725   5.773   2.435
 3167WAT    HW215833   0.708   5.821   2.292
 3167WAT    LP115834   0.644   5.710   2.342
 3167WAT    LP215835   0.604   5.810   2.381
 3168WAT     OW15836   2.429   0.822   6.481
 3168WAT    HW115837   2.490   0.874   6.429
 3168WAT    HW215838   2.350   0.817   6.427
 3168WAT    LP115839   2.455   0.758   6.493
 3168WAT    LP215840   2.416   0.854   6.542
 3169WAT     OW15841   0.070   0.874   1.076
 3169WAT    HW115842   0.011   0.856   1.149
 3169WAT    HW215843   0.144   0.921   1.115
 3169WAT    LP115844   0.092   0.815   1.046
 3169WAT    LP215845   0.038   0.914   1.028
 3170WAT     OW15846   2.344   5.293   0.681
 3170WAT    HW115847   2.414   5.358   0.689
 3170WAT    HW215848   2.333   5.282   0.586
 3170WAT    LP115849   2.363   5.233   0.711
 3170WAT    LP215850   2.285   5.316   0.710
 3171WAT     OW15851   3.032   2.581   1.990
 3171WAT    HW115852   2.978   2.617   2.060
 3171WAT    HW215853   3.026   2.486   2.000
 3171WAT    LP115854   3.009   2.601   1.927
 3171WAT    LP215855   3.099   2.602   1.997
 3172WAT     OW15856   3.448   1.532   0.089
 3172WAT    HW115857   3.402   1.470   0.145
 3172WAT    HW215858   3.385   1.555   0.021
 3172WAT    LP115859   3.468   1.589   0.126
 3172WAT    LP215860   3.505   1.502   0.061
 3173WAT     OW15861   5.693   0.839   0.666
 3173WAT    HW115862   5.724   0.914   0.716
 3173WAT    HW215863   5.756   0.769   0.685
 3173WAT    LP115864   5.629   0.820   0.685
 3173WAT    LP215865   5.693   0.853   0.597
 3174WAT     OW15866   1.285   3.682   4.667
 3174WAT    HW115867   1.248   3.596   4.686
 3174WAT    HW215868   1.347   3.666   4.595
 3174WAT    LP115869   1.235   3.727   4.647
 3174WAT    LP215870   1.318   3.708   4.723
 3175WAT     OW15871   3.931   4.710   5.238
 3175WAT    HW115872   3.975   4.775   5.183
 3175WAT    HW215873   3.876   4.762   5.297
 3175WAT    LP115874   3.892   4.667   5.199
 3175WAT    LP215875   3.978   4.673   5.274
 3176WAT     OW15876   0.064   4.573   5.285
 3176WAT    HW115877   0.160   4.575   5.292
 3176WAT    HW215878   0.046   4.529   5.203
 3176WAT    LP115879   0.036   4.538   5.339
 3176WAT    LP215880   0.038   4.639   5.284
 3177WAT     OW15881   4.921   1.743   3.770
 3177WAT    HW115882   4.852   1.799   3.736
 3177WAT    HW215883   4.879   1.658   3.782
 3177WAT    LP115884   4.974   1.738   3.725
 3177WAT    LP215885   4.945   1.767   3.831
 3178WAT     OW15886   6.072   1.267   5.637
 3178WAT    HW115887   6.111   1.343   5.594
 3178WAT    HW215888   5.981   1.291   5.652
 3178WAT    LP115889   6.077   1.210   5.597
 3178WAT    LP215890   6.104   1.254   5.698
 3179WAT     OW15891   4.585   4.572   4.412
 3179WAT    HW115892   4.608   4.495   4.359
 3179WAT    HW215893   4.630   4.557   4.495
 3179WAT    LP115894   4.608   4.631   4.382
 3179WAT    LP215895   4.516   4.576   4.421
 3180WAT     OW15896   5.629   6.494   3.608
 3180WAT    HW115897   5.622   6.403   3.636
 3180WAT    HW215898   5.642   6.543   3.689
 3180WAT    LP115899   5.684   6.503   3.565
 3180WAT    LP215900   5.571   6.515   3.575
 3181WAT     OW15901   4.870   1.442   4.078
 3181WAT    HW115902   4.845   1.448   3.986
 3181WAT    HW215903   4.821   1.511   4.122
 3181WAT    LP115904   4.853   1.379   4.104
 3181WAT    LP215905   4.939   1.452   4.086
 3182WAT     OW15906   3.999   5.142   2.057
 3182WAT    HW115907   3.907   5.129   2.034
 3182WAT    HW215908   4.047   5.102   1.984
 3182WAT    LP115909   4.014   5.210   2.062
 3182WAT    LP215910   4.014   5.110   2.117
 3183WAT     OW15911   3.365   1.668   1.240
 3183WAT    HW115912   3.433   1.723   1.278
 3183WAT    HW215913   3.294   1.729   1.219
 3183WAT    LP115914   3.389   1.636   1.182
 3183WAT    LP215915   3.344   1.620   1.286
 3184WAT     OW15916   6.089   3.978   5.875
 3184WAT    HW115917   6.088   4.057   5.821
 3184WAT    HW215918   6.095   4.011   5.965
 3184WAT    LP115919   6.031   3.941   5.866
 3184WAT    LP215920   6.145   3.938   5.860
 3185WAT     OW15921   6.370   2.146   3.324
 3185WAT    HW115922   6.344   2.201   3.398
 3185WAT    HW215923   6.458   2.115   3.347
 3185WAT    LP115924   6.326   2.092   3.317
 3185WAT    LP215925   6.371   2.183   3.265
 3186WAT     OW15926   0.990   0.245   0.697
 3186WAT    HW115927   0.926   0.315   0.706
 3186WAT    HW215928   1.075   0.288   0.708
 3186WAT    LP115929   0.981   0.196   0.746
 3186WAT    LP215930   0.986   0.215   0.634
 3187WAT     OW15931   4.014   4.818   5.563
 3187WAT    HW115932   3.945   4.851   5.506
 3187WAT    HW215933   4.032   4.890   5.624
 3187WAT    LP115934   3.992   4.761   5.598
 3187WAT    LP215935   4.071   4.802   5.526
 3188WAT     OW15936   2.598   3.234   3.690
 3188WAT    HW115937   2.633   3.275   3.611
 3188WAT    HW215938   2.673   3.231   3.750
 3188WAT    LP115939   2.546   3.272   3.716
 3188WAT    LP215940   2.576   3.169   3.676
 3189WAT     OW15941   6.785   1.257   6.225
 3189WAT    HW115942   6.697   1.291   6.214
 3189WAT    HW215943   6.819   1.302   6.302
 3189WAT    LP115944   6.784   1.188   6.235
 3189WAT    LP215945   6.824   1.271   6.169
 3190WAT     OW15946   2.229   1.287   4.350
 3190WAT    HW115947   2.212   1.277   4.444
 3190WAT    HW215948   2.211   1.201   4.313
 3190WAT    LP115949   2.187   1.336   4.323
 3190WAT    LP215950   2.296   1.305   4.339
 3191WAT     OW15951   4.893   0.778   4.767
 3191WAT    HW115952   4.944   0.699   4.786
 3191WAT    HW215953   4.802   0.748   4.766
 3191WAT    LP115954   4.903   0.826   4.817
 3191WAT    LP215955   4.911   0.805   4.705
 3192WAT     OW15956   5.189   3.080   1.998
 3192WAT    HW115957   5.271   3.129   2.002
 3192WAT    HW215958   5.150   3.093   2.085
 3192WAT    LP115959   5.147   3.106   1.948
 3192WAT    LP215960   5.200   3.012   1.986
 3193WAT     OW15961   1.354   4.449   0.671
 3193WAT    HW115962   1.272   4.491   0.696
 3193WAT    HW215963   1.421   4.517   0.682
 3193WAT    LP115964   1.368   4.394   0.713
 3193WAT    LP215965   1.352   4.427   0.605
 3194WAT     OW15966   0.210   5.526   1.576
 3194WAT    HW115967   0.129   5.536   1.627
 3194WAT    HW215968   0.270   5.591   1.614
 3194WAT    LP115969   0.236   5.462   1.583
 3194WAT    LP215970   0.198   5.540   1.509
 3195WAT     OW15971   6.395   0.130   2.175
 3195WAT    HW115972   6.426   0.217   2.151
 3195WAT    HW215973   6.468   0.091   2.222
 3195WAT    LP115974   6.338   0.134   2.216
 3195WAT    LP215975   6.379   0.093   2.118
 3196WAT     OW15976   5.547   5.362   3.547
 3196WAT    HW115977   5.507   5.419   3.612
 3196WAT    HW215978   5.632   5.402   3.528
 3196WAT    LP115979   5.555   5.297   3.572
 3196WAT    LP215980   5.508   5.360   3.489
 3197WAT     OW15981   2.718   0.417   5.405
 3197WAT    HW115982   2.756   0.359   5.471
 3197WAT    HW215983   2.626   0.426   5.431
 3197WAT    LP115984   2.750   0.479   5.406
 3197WAT    LP215985   2.723   0.389   5.341
 3198WAT     OW15986   1.029   6.623   3.322
 3198WAT    HW115987   1.064   6.538   3.348
 3198WAT    HW215988   1.027   6.675   3.403
 3198WAT    LP115989   1.069   6.653   3.274
 3198WAT    LP215990   0.964   6.616   3.296
 3199WAT     OW15991   0.100   2.785   6.648
 3199WAT    HW115992   0.132   2.850   6.710
 3199WAT    HW215993   0.161   2.791   6.574
 3199WAT    LP115994   0.102   2.721   6.675
 3199WAT    LP215995   0.035   2.800   6.627
 3200WAT     OW15996   2.763   0.102   0.762
 3200WAT    HW115997   2.681   0.109   0.811
 3200WAT    HW215998   2.812   0.033   0.806
 3200WAT    LP115999   2.750   0.085   0.695
 3200WAT    LP216000   2.798   0.163   0.763
 3201WAT     OW16001   3.491   4.703   6.167
 3201WAT    HW116002   3.533   4.657   6.239
 3201WAT    HW216003   3.454   4.782   6.207
 3201WAT    LP116004   3.537   4.720   6.117
 3201WAT    LP216005   3.440   4.664   6.139
 3202WAT     OW16006   4.168   5.050   2.259
 3202WAT    HW116007   4.103   5.085   2.198
 3202WAT    HW216008   4.129   4.970   2.293
 3202WAT    LP116009   4.228   5.036   2.225
 3202WAT    LP216010   4.181   5.095   2.311
 3203WAT     OW16011   3.146   6.202   5.560
 3203WAT    HW116012   3.174   6.154   5.483
 3203WAT    HW216013   3.217   6.189   5.623
 3203WAT    LP116014   3.137   6.269   5.546
 3203WAT    LP216015   3.086   6.175   5.585
 3204WAT     OW16016   2.256   5.087   4.165
 3204WAT    HW116017   2.259   5.135   4.082
 3204WAT    HW216018   2.182   5.028   4.155
 3204WAT    LP116019   2.316   5.051   4.175
 3204WAT    LP216020   2.246   5.131   4.218
 3205WAT     OW16021   4.801   2.203   2.729
 3205WAT    HW116022   4.877   2.254   2.699
 3205WAT    HW216023   4.748   2.191   2.651
 3205WAT    LP116024   4.822   2.141   2.755
 3205WAT    LP216025   4.766   2.238   2.778
 3206WAT     OW16026   4.872   4.589   3.364
 3206WAT    HW116027   4.835   4.504   3.387
 3206WAT    HW216028   4.890   4.632   3.448
 3206WAT    LP116029   4.932   4.581   3.328
 3206WAT    LP216030   4.827   4.627   3.326
 3207WAT     OW16031   2.117   1.714   2.853
 3207WAT    HW116032   2.111   1.676   2.941
 3207WAT    HW216033   2.092   1.642   2.795
 3207WAT    LP116034   2.072   1.768   2.846
 3207WAT    LP216035   2.182   1.735   2.839
 3208WAT     OW16036   4.155   2.954   0.335
 3208WAT    HW116037   4.231   2.905   0.367
 3208WAT    HW216038   4.174   3.045   0.359
 3208WAT    LP116039   4.149   2.947   0.266
 3208WAT    LP216040   4.097   2.932   0.366
 3209WAT     OW16041   0.590   0.263   5.518
 3209WAT    HW116042   0.595   0.326   5.590
 3209WAT    HW216043   0.679   0.230   5.509
 3209WAT    LP116044   0.545   0.212   5.533
 3209WAT    LP216045   0.570   0.296   5.459
 3210WAT     OW16046   2.546   1.761   6.403
 3210WAT    HW116047   2.516   1.833   6.348
 3210WAT    HW216048   2.575   1.802   6.484
 3210WAT    LP116049   2.494   1.715   6.415
 3210WAT    LP216050   2.600   1.727   6.372
 3211WAT     OW16051   1.439   5.069   4.529
 3211WAT    HW116052   1.454   5.005   4.598
 3211WAT    HW216053   1.344   5.068   4.516
 3211WAT    LP116054   1.461   5.132   4.549
 3211WAT    LP216055   1.472   5.050   4.470
 3212WAT     OW16056   1.690   0.123   1.196
 3212WAT    HW116057   1.778   0.156   1.215
 3212WAT    HW216058   1.632   0.197   1.213
 3212WAT    LP116059   1.686   0.103   1.129
 3212WAT    LP216060   1.675   0.069   1.237
 3213WAT     OW16061   4.728   3.711   5.573
 3213WAT    HW116062   4.689   3.722   5.660
 3213WAT    HW216063   4.657   3.734   5.513
 3213WAT    LP116064   4.782   3.754   5.565
 3213WAT    LP216065   4.748   3.645   5.564
 3214WAT     OW16066   5.649   1.030   2.657
 3214WAT    HW116067   5.613   1.091   2.722
 3214WAT    HW216068   5.576   1.012   2.598
 3214WAT    LP116069   5.703   1.059   2.623
 3214WAT    LP216070   5.671   0.971   2.689
 3215WAT     OW16071   1.597   0.566   3.403
 3215WAT    HW116072   1.574   0.598   3.490
 3215WAT    HW216073   1.674   0.510   3.417
 3215WAT    LP116074   1.545   0.529   3.375
 3215WAT    LP216075   1.613   0.619   3.360
 3216WAT     OW16076   6.221   5.194   0.313
 3216WAT    HW116077   6.244   5.195   0.220
 3216WAT    HW216078   6.146   5.135   0.319
 3216WAT    LP116079   6.274   5.171   0.352
 3216WAT    LP216080   6.202   5.259   0.334
 3217WAT     OW16081   5.827   2.176   2.700
 3217WAT    HW116082   5.826   2.268   2.727
 3217WAT    HW216083   5.841   2.128   2.781
 3217WAT    LP116084   5.766   2.159   2.670
 3217WAT    LP216085   5.879   2.164   2.654
 3218WAT     OW16086   6.094   2.631   0.413
 3218WAT    HW116087   6.025   2.674   0.463
 3218WAT    HW216088   6.057   2.545   0.390
 3218WAT    LP116089   6.108   2.667   0.355
 3218WAT    LP216090   6.152   2.624   0.451
 3219WAT     OW16091   1.051   2.930   4.039
 3219WAT    HW116092   1.140   2.942   4.073
 3219WAT    HW216093   1.025   3.016   4.007
 3219WAT    LP116094   1.051   2.883   3.988
 3219WAT    LP216095   1.008   2.909   4.090
 3220WAT     OW16096   4.193   3.211   3.839
 3220WAT    HW116097   4.203   3.296   3.797
 3220WAT    HW216098   4.209   3.228   3.932
 3220WAT    LP116099   4.128   3.186   3.830
 3220WAT    LP216100   4.240   3.165   3.814
 3221WAT     OW16101   5.638   1.496   2.789
 3221WAT    HW116102   5.651   1.580   2.832
 3221WAT    HW216103   5.696   1.498   2.714
 3221WAT    LP116104   5.654   1.443   2.832
 3221WAT    LP216105   5.571   1.489   2.768
 3222WAT     OW16106   0.416   5.998   5.046
 3222WAT    HW116107   0.370   5.961   4.970
 3222WAT    HW216108   0.347   6.014   5.110
 3222WAT    LP116109   0.463   5.952   5.071
 3222WAT    LP216110   0.448   6.058   5.028
 3223WAT     OW16111   2.892   2.193   2.777
 3223WAT    HW116112   2.801   2.175   2.754
 3223WAT    HW216113   2.896   2.183   2.872
 3223WAT    LP116114   2.934   2.147   2.746
 3223WAT    LP216115   2.910   2.258   2.758
 3224WAT     OW16116   6.190   2.752   0.191
 3224WAT    HW116117   6.204   2.844   0.212
 3224WAT    HW216118   6.152   2.715   0.270
 3224WAT    LP116119   6.146   2.746   0.137
 3224WAT    LP216120   6.250   2.720   0.176
 3225WAT     OW16121   5.917   5.324   3.848
 3225WAT    HW116122   6.003   5.331   3.889
 3225WAT    HW216123   5.929   5.258   3.780
 3225WAT    LP116124   5.869   5.304   3.895
 3225WAT    LP216125   5.898   5.385   3.820
 3226WAT     OW16126   3.360   0.865   3.775
 3226WAT    HW116127   3.345   0.937   3.713
 3226WAT    HW216128   3.433   0.894   3.829
 3226WAT    LP116129   3.303   0.855   3.815
 3226WAT    LP216130   3.375   0.806   3.742
 3227WAT     OW16131   4.589   3.435   4.786
 3227WAT    HW116132   4.595   3.521   4.827
 3227WAT    HW216133   4.656   3.382   4.830
 3227WAT    LP116134   4.526   3.407   4.795
 3227WAT    LP216135   4.603   3.439   4.717
 3228WAT     OW16136   2.900   0.844   1.339
 3228WAT    HW116137   2.850   0.908   1.390
 3228WAT    HW216138   2.985   0.841   1.382
 3228WAT    LP116139   2.869   0.781   1.340
 3228WAT    LP216140   2.906   0.865   1.272
 3229WAT     OW16141   2.726   4.825   2.108
 3229WAT    HW116142   2.670   4.750   2.088
 3229WAT    HW216143   2.711   4.886   2.036
 3229WAT    LP116144   2.707   4.854   2.170
 3229WAT    LP216145   2.793   4.806   2.111
 3230WAT     OW16146   5.048   6.570   2.462
 3230WAT    HW116147   5.068   6.476   2.468
 3230WAT    HW216148   4.980   6.585   2.527
 3230WAT    LP116149   5.106   6.608   2.476
 3230WAT    LP216150   5.025   6.586   2.398
 3231WAT     OW16151   0.859   6.140   2.815
 3231WAT    HW116152   0.929   6.082   2.845
 3231WAT    HW216153   0.901   6.226   2.809
 3231WAT    LP116154   0.835   6.120   2.753
 3231WAT    LP216155   0.807   6.141   2.862
 3232WAT     OW16156   0.060   3.258   4.236
 3232WAT    HW116157   0.135   3.312   4.260
 3232WAT    HW216158  -0.010   3.322   4.220
 3232WAT    LP116159   0.073   3.221   4.178
 3232WAT    LP216160   0.043   3.215   4.288
 3233WAT     OW16161   5.507   4.308   0.530
 3233WAT    HW116162   5.561   4.237   0.497
 3233WAT    HW216163   5.563   4.386   0.525
 3233WAT    LP116164   5.450   4.316   0.491
 3233WAT    LP216165   5.488   4.296   0.596
 3234WAT     OW16166   0.309   3.727   1.802
 3234WAT    HW116167   0.232   3.771   1.765
 3234WAT    HW216168   0.304   3.638   1.768
 3234WAT    LP116169   0.368   3.759   1.781
 3234WAT    LP216170   0.306   3.727   1.872
 3235WAT     OW16171   3.772   2.458   1.553
 3235WAT    HW116172   3.683   2.425   1.564
 3235WAT    HW216173   3.810   2.404   1.484
 3235WAT    LP116174   3.772   2.525   1.535
 3235WAT    LP216175   3.809   2.450   1.613
 3236WAT     OW16176   6.707   1.803   2.621
 3236WAT    HW116177   6.622   1.777   2.655
 3236WAT    HW216178   6.701   1.790   2.526
 3236WAT    LP116179   6.720   1.870   2.636
 3236WAT    LP216180   6.758   1.763   2.647
 3237WAT     OW16181   1.921   1.514   4.360
 3237WAT    HW116182   1.871   1.595   4.347
 3237WAT    HW216183   1.977   1.508   4.283
 3237WAT    LP116184   1.959   1.518   4.418
 3237WAT    LP216185   1.878   1.459   4.364
 3238WAT     OW16186   4.205   0.115   3.479
 3238WAT    HW116187   4.182   0.072   3.397
 3238WAT    HW216188   4.229   0.044   3.538
 3238WAT    LP116189   4.259   0.159   3.469
 3238WAT    LP216190   4.150   0.151   3.504
 3239WAT     OW16191   0.753   3.133   6.417
 3239WAT    HW116192   0.806   3.201   6.375
 3239WAT    HW216193   0.792   3.123   6.504
 3239WAT    LP116194   0.686   3.153   6.422
 3239WAT    LP216195   0.757   3.073   6.381
 3240WAT     OW16196   2.368   0.993   2.589
 3240WAT    HW116197   2.437   0.933   2.617
 3240WAT    HW216198   2.399   1.080   2.617
 3240WAT    LP116199   2.360   0.992   2.520
 3240WAT    LP216200   2.307   0.978   2.620
 3241WAT     OW16201   0.660   3.305   5.813
 3241WAT    HW116202   0.734   3.342   5.862
 3241WAT    HW216203   0.678   3.329   5.722
 3241WAT    LP116204   0.658   3.236   5.820
 3241WAT    LP216205   0.600   3.333   5.834
 3242WAT     OW16206   6.108   6.585   1.366
 3242WAT    HW116207   6.127   6.504   1.318
 3242WAT    HW216208   6.182   6.595   1.426
 3242WAT    LP116209   6.104   6.639   1.323
 3242WAT    LP216210   6.048   6.579   1.402
 3243WAT     OW16211   1.175   5.987   2.227
 3243WAT    HW116212   1.235   5.930   2.274
 3243WAT    HW216213   1.107   5.929   2.193
 3243WAT    LP116214   1.146   6.034   2.271
 3243WAT    LP216215   1.208   6.021   2.176
 3244WAT     OW16216   3.078   6.292   4.930
 3244WAT    HW116217   3.164   6.333   4.939
 3244WAT    HW216218   3.017   6.365   4.919
 3244WAT    LP116219   3.075   6.249   4.875
 3244WAT    LP216220   3.062   6.255   4.988
 3245WAT     OW16221   6.019   4.200   4.315
 3245WAT    HW116222   6.017   4.277   4.372
 3245WAT    HW216223   5.947   4.146   4.346
 3245WAT    LP116224   6.008   4.219   4.248
 3245WAT    LP216225   6.080   4.167   4.320
 3246WAT     OW16226   5.048   4.873   2.316
 3246WAT    HW116227   5.133   4.886   2.358
 3246WAT    HW216228   5.070   4.852   2.225
 3246WAT    LP116229   5.013   4.820   2.346
 3246WAT    LP216230   5.009   4.931   2.319
 3247WAT     OW16231   6.418   6.208   5.113
 3247WAT    HW116232   6.460   6.250   5.038
 3247WAT    HW216233   6.369   6.278   5.155
 3247WAT    LP116234   6.375   6.157   5.092
 3247WAT    LP216235   6.466   6.182   5.156
 3248WAT     OW16236   5.690   2.468   3.790
 3248WAT    HW116237   5.761   2.404   3.795
 3248WAT    HW216238   5.686   2.492   3.698
 3248WAT    LP116239   5.630   2.440   3.811
 3248WAT    LP216240   5.704   2.524   3.830
 3249WAT     OW16241   3.298   3.618   4.709
 3249WAT    HW116242   3.330   3.634   4.798
 3249WAT    HW216243   3.247   3.537   4.716
 3249WAT    LP116244   3.257   3.671   4.688
 3249WAT    LP216245   3.351   3.610   4.665
 3250WAT     OW16246   1.766   5.632   5.092
 3250WAT    HW116247   1.813   5.711   5.063
 3250WAT    HW216248   1.828   5.561   5.078
 3250WAT    LP116249   1.749   5.637   5.160
 3250WAT    LP216250   1.708   5.622   5.054
 3251WAT     OW16251   6.391   1.906   1.853
 3251WAT    HW116252   6.321   1.852   1.888
 3251WAT    HW216253   6.396   1.981   1.913
 3251WAT    LP116254   6.452   1.871   1.852
 3251WAT    LP216255   6.376   1.928   1.788
 3252WAT     OW16256   3.207   1.002   5.010
 3252WAT    HW116257   3.249   0.952   5.080
 3252WAT    HW216258   3.236   1.092   5.023
 3252WAT    LP116259   3.227   0.978   4.947
 3252WAT    LP216260   3.137   0.998   5.015
 3253WAT     OW16261   3.709   3.913   5.918
 3253WAT    HW116262   3.767   3.974   5.873
 3253WAT    HW216263   3.715   3.938   6.010
 3253WAT    LP116264   3.644   3.919   5.895
 3253WAT    LP216265   3.731   3.847   5.909
 3254WAT     OW16266   2.367   4.955   2.444
 3254WAT    HW116267   2.358   4.982   2.352
 3254WAT    HW216268   2.442   4.897   2.445
 3254WAT    LP116269   2.378   5.011   2.485
 3254WAT    LP216270   2.309   4.922   2.465
 3255WAT     OW16271   1.666   6.314   0.491
 3255WAT    HW116272   1.651   6.237   0.545
 3255WAT    HW216273   1.706   6.378   0.549
 3255WAT    LP116274   1.709   6.299   0.437
 3255WAT    LP216275   1.605   6.338   0.465
 3256WAT     OW16276   4.393   4.262   3.666
 3256WAT    HW116277   4.374   4.339   3.719
 3256WAT    HW216278   4.405   4.191   3.730
 3256WAT    LP116279   4.339   4.247   3.624
 3256WAT    LP216280   4.450   4.271   3.628
 3257WAT     OW16281   6.118   1.791   6.466
 3257WAT    HW116282   6.101   1.882   6.490
 3257WAT    HW216283   6.119   1.792   6.370
 3257WAT    LP116284   6.179   1.770   6.491
 3257WAT    LP216285   6.067   1.749   6.489
 3258WAT     OW16286   3.210   3.441   5.849
 3258WAT    HW116287   3.227   3.526   5.890
 3258WAT    HW216288   3.217   3.378   5.921
 3258WAT    LP116289   3.146   3.439   5.820
 3258WAT    LP216290   3.258   3.427   5.800
 3259WAT     OW16291   1.315   0.578   3.315
 3259WAT    HW116292   1.281   0.628   3.390
 3259WAT    HW216293   1.406   0.559   3.338
 3259WAT    LP116294   1.278   0.519   3.307
 3259WAT    LP216295   1.311   0.616   3.257
 3260WAT     OW16296   4.415   1.390   0.070
 3260WAT    HW116297   4.366   1.311   0.095
 3260WAT    HW216298   4.490   1.357   0.021
 3260WAT    LP116299   4.376   1.432   0.030
 3260WAT    LP216300   4.436   1.425   0.127
 3261WAT     OW16301   6.309   5.091   2.031
 3261WAT    HW116302   6.280   5.003   2.055
 3261WAT    HW216303   6.268   5.148   2.096
 3261WAT    LP116304   6.379   5.096   2.035
 3261WAT    LP216305   6.287   5.107   1.967
 3262WAT     OW16306   5.355   0.893   2.925
 3262WAT    HW116307   5.281   0.919   2.980
 3262WAT    HW216308   5.431   0.935   2.966
 3262WAT    LP116309   5.363   0.823   2.925
 3262WAT    LP216310   5.347   0.915   2.860
 3263WAT     OW16311   5.414   2.619   4.769
 3263WAT    HW116312   5.362   2.648   4.695
 3263WAT    HW216313   5.453   2.536   4.740
 3263WAT    LP116314   5.465   2.665   4.784
 3263WAT    LP216315   5.374   2.609   4.826
 3264WAT     OW16316   3.953   5.184   6.196
 3264WAT    HW116317   3.889   5.224   6.255
 3264WAT    HW216318   3.986   5.257   6.143
 3264WAT    LP116319   4.005   5.154   6.233
 3264WAT    LP216320   3.923   5.136   6.156
 3265WAT     OW16321   1.571   4.341   0.964
 3265WAT    HW116322   1.638   4.299   1.017
 3265WAT    HW216323   1.489   4.302   0.993
 3265WAT    LP116324   1.570   4.410   0.974
 3265WAT    LP216325   1.581   4.328   0.896
 3266WAT     OW16326   2.377   4.094   2.693
 3266WAT    HW116327   2.385   4.189   2.679
 3266WAT    HW216328   2.301   4.085   2.751
 3266WAT    LP116329   2.366   4.061   2.633
 3266WAT    LP216330   2.434   4.069   2.724
 3267WAT     OW16331   2.919   1.623   1.100
 3267WAT    HW116332   2.883   1.587   1.181
 3267WAT    HW216333   3.005   1.582   1.092
 3267WAT    LP116334   2.878   1.607   1.046
 3267WAT    LP216335   2.926   1.693   1.105
 3268WAT     OW16336   5.139   2.277   0.770
 3268WAT    HW116337   5.221   2.309   0.809
 3268WAT    HW216338   5.117   2.199   0.821
 3268WAT    LP116339   5.089   2.325   0.774
 3268WAT    LP216340   5.149   2.260   0.702
 3269WAT     OW16341   0.407   0.097   0.450
 3269WAT    HW116342   0.386   0.014   0.407
 3269WAT    HW216343   0.480   0.075   0.508
 3269WAT    LP116344   0.427   0.144   0.403
 3269WAT    LP216345   0.352   0.121   0.486
 3270WAT     OW16346   5.163   5.808   2.662
 3270WAT    HW116347   5.237   5.831   2.606
 3270WAT    HW216348   5.129   5.892   2.693
 3270WAT    LP116349   5.114   5.774   2.626
 3270WAT    LP216350   5.183   5.769   2.716
 3271WAT     OW16351   4.389   2.708   3.407
 3271WAT    HW116352   4.378   2.659   3.326
 3271WAT    HW216353   4.479   2.690   3.434
 3271WAT    LP116354   4.380   2.777   3.397
 3271WAT    LP216355   4.343   2.686   3.456
 3272WAT     OW16356   2.159   4.388   5.825
 3272WAT    HW116357   2.227   4.381   5.892
 3272WAT    HW216358   2.202   4.434   5.752
 3272WAT    LP116359   2.138   4.324   5.804
 3272WAT    LP216360   2.104   4.424   5.848
 3273WAT     OW16361   5.880   0.311   3.137
 3273WAT    HW116362   5.862   0.372   3.066
 3273WAT    HW216363   5.938   0.245   3.098
 3273WAT    LP116364   5.912   0.343   3.190
 3273WAT    LP216365   5.821   0.281   3.160
 3274WAT     OW16366   5.282   4.481   5.647
 3274WAT    HW116367   5.253   4.447   5.562
 3274WAT    HW216368   5.213   4.542   5.673
 3274WAT    LP116369   5.287   4.429   5.693
 3274WAT    LP216370   5.343   4.513   5.641
 3275WAT     OW16371   1.092   5.805   0.623
 3275WAT    HW116372   1.030   5.832   0.691
 3275WAT    HW216373   1.163   5.869   0.628
 3275WAT    LP116374   1.115   5.741   0.635
 3275WAT    LP216375   1.061   5.808   0.560
 3276WAT     OW16376   1.176   2.438   4.641
 3276WAT    HW116377   1.159   2.475   4.555
 3276WAT    HW216378   1.182   2.343   4.626
 3276WAT    LP116379   1.236   2.462   4.668
 3276WAT    LP216380   1.124   2.452   4.685
 3277WAT     OW16381   6.225   6.237   4.464
 3277WAT    HW116382   6.315   6.257   4.441
 3277WAT    HW216383   6.225   6.144   4.484
 3277WAT    LP116384   6.205   6.275   4.520
 3277WAT    LP216385   6.182   6.251   4.410
 3278WAT     OW16386   4.730   3.144   0.583
 3278WAT    HW116387   4.740   3.050   0.570
 3278WAT    HW216388   4.671   3.152   0.658
 3278WAT    LP116389   4.792   3.174   0.597
 3278WAT    LP216390   4.702   3.174   0.526
 3279WAT     OW16391   3.328   2.067   6.181
 3279WAT    HW116392   3.287   2.114   6.254
 3279WAT    HW216393   3.389   2.007   6.222
 3279WAT    LP116394   3.279   2.032   6.145
 3279WAT    LP216395   3.361   2.112   6.139
 3280WAT     OW16396   3.864   0.990   1.771
 3280WAT    HW116397   3.844   1.012   1.862
 3280WAT    HW216398   3.905   0.903   1.775
 3280WAT    LP116399   3.806   0.988   1.732
 3280WAT    LP216400   3.909   1.037   1.743
 3281WAT     OW16401   3.750   6.019   1.728
 3281WAT    HW116402   3.728   6.095   1.673
 3281WAT    HW216403   3.730   5.943   1.673
 3281WAT    LP116404   3.817   6.020   1.746
 3281WAT    LP216405   3.710   6.019   1.786
 3282WAT     OW16406   0.229   6.175   3.516
 3282WAT    HW116407   0.188   6.214   3.594
 3282WAT    HW216408   0.322   6.174   3.536
 3282WAT    LP116409   0.205   6.110   3.506
 3282WAT    LP216410   0.216   6.214   3.460
 3283WAT     OW16411   5.263   4.265   0.416
 3283WAT    HW116412   5.227   4.203   0.480
 3283WAT    HW216413   5.343   4.297   0.456
 3283WAT    LP116414   5.277   4.232   0.355
 3283WAT    LP216415   5.218   4.317   0.404
 3284WAT     OW16416   5.431   4.882   6.219
 3284WAT    HW116417   5.424   4.796   6.260
 3284WAT    HW216418   5.361   4.883   6.154
 3284WAT    LP116419   5.422   4.933   6.266
 3284WAT    LP216420   5.494   4.889   6.188
 3285WAT     OW16421   6.585   4.350   1.895
 3285WAT    HW116422   6.641   4.427   1.884
 3285WAT    HW216423   6.558   4.328   1.806
 3285WAT    LP116424   6.620   4.298   1.924
 3285WAT    LP216425   6.529   4.366   1.934
 3286WAT     OW16426   3.855   2.290   2.853
 3286WAT    HW116427   3.765   2.316   2.872
 3286WAT    HW216428   3.862   2.294   2.758
 3286WAT    LP116429   3.900   2.334   2.883
 3286WAT    LP216430   3.867   2.225   2.876
 3287WAT     OW16431   6.497   1.818   0.106
 3287WAT    HW116432   6.446   1.769   0.041
 3287WAT    HW216433   6.436   1.883   0.140
 3287WAT    LP116434   6.518   1.775   0.158
 3287WAT    LP216435   6.552   1.848   0.077
 3288WAT     OW16436   4.728   6.252   0.711
 3288WAT    HW116437   4.811   6.251   0.758
 3288WAT    HW216438   4.750   6.282   0.623
 3288WAT    LP116439   4.700   6.188   0.709
 3288WAT    LP216440   4.683   6.296   0.742
 3289WAT     OW16441   6.350   1.967   5.511
 3289WAT    HW116442   6.322   2.038   5.570
 3289WAT    HW216443   6.445   1.979   5.503
 3289WAT    LP116444   6.336   1.905   5.539
 3289WAT    LP216445   6.318   1.973   5.449
 3290WAT     OW16446   6.600   2.966   1.200
 3290WAT    HW116447   6.686   2.992   1.233
 3290WAT    HW216448   6.618   2.926   1.115
 3290WAT    LP116449   6.569   2.921   1.243
 3290WAT    LP216450   6.559   3.022   1.193
 3291WAT     OW16451   5.013   1.238   1.290
 3291WAT    HW116452   5.023   1.314   1.233
 3291WAT    HW216453   4.957   1.178   1.241
 3291WAT    LP116454   5.075   1.209   1.303
 3291WAT    LP216455   4.983   1.256   1.351
 3292WAT     OW16456   5.182   6.334   0.990
 3292WAT    HW116457   5.246   6.270   0.961
 3292WAT    HW216458   5.185   6.328   1.086
 3292WAT    LP116459   5.199   6.398   0.969
 3292WAT    LP216460   5.118   6.317   0.967
 3293WAT     OW16461   3.620   0.715   5.829
 3293WAT    HW116462   3.643   0.624   5.846
 3293WAT    HW216463   3.678   0.741   5.757
 3293WAT    LP116464   3.553   0.721   5.810
 3293WAT    LP216465   3.632   0.755   5.886
 3294WAT     OW16466   0.948   2.104   4.299
 3294WAT    HW116467   0.955   2.022   4.348
 3294WAT    HW216468   0.895   2.080   4.222
 3294WAT    LP116469   0.916   2.153   4.337
 3294WAT    LP216470   1.011   2.127   4.279
 3295WAT     OW16471   5.300   1.312   2.967
 3295WAT    HW116472   5.300   1.403   2.935
 3295WAT    HW216473   5.296   1.320   3.062
 3295WAT    LP116474   5.244   1.277   2.942
 3295WAT    LP216475   5.358   1.279   2.947
 3296WAT     OW16476   5.902   5.764   2.497
 3296WAT    HW116477   5.851   5.838   2.466
 3296WAT    HW216478   5.946   5.796   2.576
 3296WAT    LP116479   5.860   5.710   2.513
 3296WAT    LP216480   5.949   5.744   2.449
 3297WAT     OW16481   5.549   4.380   1.848
 3297WAT    HW116482   5.566   4.360   1.756
 3297WAT    HW216483   5.531   4.474   1.849
 3297WAT    LP116484   5.494   4.344   1.872
 3297WAT    LP216485   5.606   4.366   1.887
 3298WAT     OW16486   5.006   3.605   3.622
 3298WAT    HW116487   4.985   3.517   3.653
 3298WAT    HW216488   4.922   3.651   3.622
 3298WAT    LP116489   5.051   3.637   3.665
 3298WAT    LP216490   5.033   3.603   3.558
 3299WAT     OW16491   1.611   4.396   1.304
 3299WAT    HW116492   1.611   4.349   1.387
 3299WAT    HW216493   1.647   4.334   1.241
 3299WAT    LP116494   1.545   4.414   1.286
 3299WAT    LP216495   1.650   4.454   1.308
 3300WAT     OW16496   1.276   6.342   0.249
 3300WAT    HW116497   1.217   6.279   0.206
 3300WAT    HW216498   1.360   6.297   0.253
 3300WAT    LP116499   1.281   6.401   0.212
 3300WAT    LP216500   1.253   6.357   0.313
 3301WAT     OW16501   2.799   6.205   1.086
 3301WAT    HW116502   2.790   6.261   1.008
 3301WAT    HW216503   2.726   6.144   1.081
 3301WAT    LP116504   2.860   6.171   1.084
 3301WAT    LP216505   2.796   6.244   1.144
 3302WAT     OW16506   3.719   5.843   4.770
 3302WAT    HW116507   3.677   5.861   4.686
 3302WAT    HW216508   3.669   5.893   4.834
 3302WAT    LP116509   3.716   5.774   4.784
 3302WAT    LP216510   3.786   5.863   4.769
 3303WAT     OW16511   2.995   1.215   1.456
 3303WAT    HW116512   3.078   1.175   1.482
 3303WAT    HW216513   2.995   1.301   1.498
 3303WAT    LP116514   2.991   1.221   1.386
 3303WAT    LP216515   2.941   1.176   1.479
 3304WAT     OW16516   4.332   5.746   0.210
 3304WAT    HW116517   4.281   5.818   0.172
 3304WAT    HW216518   4.385   5.787   0.278
 3304WAT    LP116519   4.290   5.697   0.236
 3304WAT    LP216520   4.374   5.717   0.161
 3305WAT     OW16521   0.640   5.263   0.278
 3305WAT    HW116522   0.552   5.300   0.275
 3305WAT    HW216523   0.649   5.229   0.367
 3305WAT    LP116524   0.647   5.212   0.231
 3305WAT    LP216525   0.688   5.313   0.266
 3306WAT     OW16526   6.221   4.118   3.533
 3306WAT    HW116527   6.231   4.120   3.628
 3306WAT    HW216528   6.136   4.158   3.517
 3306WAT    LP116529   6.272   4.156   3.502
 3306WAT    LP216530   6.223   4.053   3.509
 3307WAT     OW16531   6.397   3.355   6.627
 3307WAT    HW116532   6.360   3.443   6.624
 3307WAT    HW216533   6.361   3.311   6.550
 3307WAT    LP116534   6.467   3.358   6.623
 3307WAT    LP216535   6.378   3.322   6.686
 3308WAT     OW16536   0.566   4.591   2.503
 3308WAT    HW116537   0.659   4.594   2.480
 3308WAT    HW216538   0.524   4.652   2.442
 3308WAT    LP116539   0.540   4.527   2.494
 3308WAT    LP216540   0.556   4.612   2.569
 3309WAT     OW16541   3.447   3.147   0.108
 3309WAT    HW116542   3.366   3.113   0.146
 3309WAT    HW216543   3.510   3.076   0.116
 3309WAT    LP116544   3.437   3.164   0.040
 3309WAT    LP216545   3.469   3.204   0.142
 3310WAT     OW16546   2.976   2.683   6.432
 3310WAT    HW116547   2.949   2.755   6.374
 3310WAT    HW216548   3.049   2.642   6.386
 3310WAT    LP116549   2.997   2.708   6.494
 3310WAT    LP216550   2.923   2.638   6.441
 3311WAT     OW16551   4.639   6.308   0.294
 3311WAT    HW116552   4.668   6.369   0.227
 3311WAT    HW216553   4.701   6.320   0.367
 3311WAT    LP116554   4.574   6.323   0.315
 3311WAT    LP216555   4.641   6.242   0.270
 3312WAT     OW16556   3.391   3.439   5.629
 3312WAT    HW116557   3.400   3.344   5.621
 3312WAT    HW216558   3.328   3.451   5.700
 3312WAT    LP116559   3.453   3.468   5.645
 3312WAT    LP216560   3.367   3.467   5.569
 3313WAT     OW16561   3.249   0.531   1.884
 3313WAT    HW116562   3.259   0.444   1.924
 3313WAT    HW216563   3.263   0.592   1.956
 3313WAT    LP116564   3.296   0.540   1.834
 3313WAT    LP216565   3.184   0.538   1.858
 3314WAT     OW16566   2.881   2.291   0.500
 3314WAT    HW116567   2.792   2.278   0.467
 3314WAT    HW216568   2.933   2.306   0.421
 3314WAT    LP116569   2.884   2.346   0.543
 3314WAT    LP216570   2.903   2.233   0.533
 3315WAT     OW16571   6.536   0.712   6.082
 3315WAT    HW116572   6.585   0.636   6.051
 3315WAT    HW216573   6.572   0.785   6.032
 3315WAT    LP116574   6.468   0.705   6.069
 3315WAT    LP216575   6.546   0.722   6.150
 3316WAT     OW16576   1.750   6.177   5.039
 3316WAT    HW116577   1.712   6.095   5.072
 3316WAT    HW216578   1.707   6.192   4.955
 3316WAT    LP116579   1.738   6.229   5.083
 3316WAT    LP216580   1.819   6.170   5.030
 3317WAT     OW16581   2.104   5.829   6.301
 3317WAT    HW116582   2.044   5.853   6.371
 3317WAT    HW216583   2.172   5.897   6.304
 3317WAT    LP116584   2.132   5.766   6.312
 3317WAT    LP216585   2.071   5.830   6.239
 3318WAT     OW16586   1.882   3.799   1.616
 3318WAT    HW116587   1.918   3.722   1.571
 3318WAT    HW216588   1.787   3.791   1.604
 3318WAT    LP116589   1.899   3.798   1.684
 3318WAT    LP216590   1.906   3.858   1.586
 3319WAT     OW16591   1.020   2.974   3.004
 3319WAT    HW116592   1.055   2.930   2.926
 3319WAT    HW216593   1.097   3.010   3.048
 3319WAT    LP116594   0.976   3.025   2.986
 3319WAT    LP216595   0.987   2.928   3.045
 3320WAT     OW16596   1.444   3.299   0.235
 3320WAT    HW116597   1.521   3.254   0.269
 3320WAT    HW216598   1.474   3.342   0.155
 3320WAT    LP116599   1.393   3.253   0.220
 3320WAT    LP216600   1.420   3.346   0.281
 3321WAT     OW16601   3.717   1.537   6.635
 3321WAT    HW116602   3.731   1.513   6.543
 3321WAT    HW216603   3.623   1.527   6.648
 3321WAT    LP116604   3.752   1.493   6.677
 3321WAT    LP216605   3.737   1.602   6.647
 3322WAT     OW16606   5.397   4.735   3.677
 3322WAT    HW116607   5.311   4.772   3.695
 3322WAT    HW216608   5.384   4.681   3.600
 3322WAT    LP116609   5.443   4.786   3.664
 3322WAT    LP216610   5.419   4.697   3.731
 3323WAT     OW16611   2.695   6.010   4.541
 3323WAT    HW116612   2.732   5.958   4.612
 3323WAT    HW216613   2.719   5.963   4.461
 3323WAT    LP116614   2.625   6.015   4.547
 3323WAT    LP216615   2.722   6.075   4.540
 3324WAT     OW16616   2.054   4.215   0.499
 3324WAT    HW116617   2.041   4.301   0.459
 3324WAT    HW216618   2.128   4.227   0.559
 3324WAT    LP116619   1.997   4.196   0.535
 3324WAT    LP216620   2.069   4.167   0.451
 3325WAT     OW16621   4.112   4.577   6.371
 3325WAT    HW116622   4.187   4.583   6.430
 3325WAT    HW216623   4.043   4.628   6.414
 3325WAT    LP116624   4.127   4.604   6.308
 3325WAT    LP216625   4.092   4.510   6.363
 3326WAT     OW16626   3.544   0.809   5.465
 3326WAT    HW116627   3.546   0.891   5.415
 3326WAT    HW216628   3.617   0.818   5.527
 3326WAT    LP116629   3.483   0.803   5.499
 3326WAT    LP216630   3.554   0.754   5.424
 3327WAT     OW16631   5.872   6.660   0.196
 3327WAT    HW116632   5.939   6.646   0.129
 3327WAT    HW216633   5.909   6.727   0.253
 3327WAT    LP116634   5.813   6.683   0.167
 3327WAT    LP216635   5.859   6.601   0.231
 3328WAT     OW16636   3.733   3.541   0.072
 3328WAT    HW116637   3.681   3.618   0.094
 3328WAT    HW216638   3.800   3.537   0.140
 3328WAT    LP116639   3.694   3.484   0.071
 3328WAT    LP216640   3.763   3.549   0.009
 3329WAT     OW16641   5.304   0.834   2.665
 3329WAT    HW116642   5.325   0.866   2.753
 3329WAT    HW216643   5.351   0.893   2.606
 3329WAT    LP116644   5.326   0.768   2.657
 3329WAT    LP216645   5.235   0.837   2.653
 3330WAT     OW16646   5.078   1.270   6.315
 3330WAT    HW116647   5.069   1.365   6.309
 3330WAT    HW216648   5.154   1.256   6.370
 3330WAT    LP116649   5.020   1.241   6.343
 3330WAT    LP216650   5.088   1.242   6.251
 3331WAT     OW16651   4.354   2.578   3.157
 3331WAT    HW116652   4.314   2.496   3.186
 3331WAT    HW216653   4.409   2.554   3.083
 3331WAT    LP116654   4.304   2.624   3.137
 3331WAT    LP216655   4.392   2.606   3.208
 3332WAT     OW16656   0.262   1.060   5.935
 3332WAT    HW116657   0.281   1.136   5.880
 3332WAT    HW216658   0.345   1.040   5.977
 3332WAT    LP116659   0.213   1.076   5.982
 3332WAT    LP216660   0.240   1.006   5.896
 3333WAT     OW16661   2.840   4.419   1.677
 3333WAT    HW116662   2.750   4.388   1.661
 3333WAT    HW216663   2.894   4.341   1.666
 3333WAT    LP116664   2.857   4.468   1.630
 3333WAT    LP216665   2.846   4.444   1.741
 3334WAT     OW16666   4.282   3.994   5.599
 3334WAT    HW116667   4.211   4.058   5.597
 3334WAT    HW216668   4.278   3.956   5.686
 3334WAT    LP116669   4.272   3.945   5.550
 3334WAT    LP216670   4.344   4.025   5.589
 3335WAT     OW16671   0.314   2.663   0.274
 3335WAT    HW116672   0.377   2.648   0.203
 3335WAT    HW216673   0.235   2.618   0.245
 3335WAT    LP116674   0.338   2.636   0.334
 3335WAT    LP216675   0.303   2.732   0.282
 3336WAT     OW16676   1.342   0.438   2.961
 3336WAT    HW116677   1.331   0.532   2.947
 3336WAT    HW216678   1.396   0.431   3.040
 3336WAT    LP116679   1.280   0.407   2.971
 3336WAT    LP216680   1.374   0.408   2.906
 3337WAT     OW16681   3.526   3.558   6.090
 3337WAT    HW116682   3.558   3.582   6.177
 3337WAT    HW216683   3.530   3.463   6.088
 3337WAT    LP116684   3.460   3.580   6.082
 3337WAT    LP216685   3.566   3.587   6.041
 3338WAT     OW16686   1.124   4.167   4.599
 3338WAT    HW116687   1.125   4.072   4.606
 3338WAT    HW216688   1.036   4.188   4.568
 3338WAT    LP116689   1.135   4.197   4.662
 3338WAT    LP216690   1.172   4.190   4.554
 3339WAT     OW16691   1.998   4.701   2.969
 3339WAT    HW116692   2.038   4.786   2.986
 3339WAT    HW216693   2.048   4.664   2.896
 3339WAT    LP116694   2.002   4.659   3.025
 3339WAT    LP216695   1.930   4.708   2.951
 3340WAT     OW16696   2.479   0.952   1.942
 3340WAT    HW116697   2.497   0.858   1.936
 3340WAT    HW216698   2.469   0.968   2.036
 3340WAT    LP116699   2.533   0.989   1.916
 3340WAT    LP216700   2.421   0.968   1.908
 3341WAT     OW16701   2.755   2.489   1.035
 3341WAT    HW116702   2.711   2.404   1.033
 3341WAT    HW216703   2.780   2.502   1.126
 3341WAT    LP116704   2.812   2.488   0.993
 3341WAT    LP216705   2.711   2.539   1.013
 3342WAT     OW16706   6.527   1.433   3.288
 3342WAT    HW116707   6.466   1.490   3.335
 3342WAT    HW216708   6.613   1.467   3.310
 3342WAT    LP116709   6.520   1.367   3.310
 3342WAT    LP216710   6.516   1.436   3.219
 3343WAT     OW16711   6.377   3.311   2.164
 3343WAT    HW116712   6.435   3.384   2.142
 3343WAT    HW216713   6.379   3.254   2.088
 3343WAT    LP116714   6.401   3.278   2.221
 3343WAT    LP216715   6.312   3.334   2.177
 3344WAT     OW16716   2.281   1.432   6.267
 3344WAT    HW116717   2.295   1.462   6.177
 3344WAT    HW216718   2.318   1.344   6.269
 3344WAT    LP116719   2.314   1.473   6.313
 3344WAT    LP216720   2.213   1.430   6.282
 3345WAT     OW16721   1.312   4.432   6.291
 3345WAT    HW116722   1.228   4.414   6.249
 3345WAT    HW216723   1.361   4.350   6.282
 3345WAT    LP116724   1.345   4.484   6.259
 3345WAT    LP216725   1.303   4.448   6.358
 3346WAT     OW16726   2.087   5.074   3.556
 3346WAT    HW116727   2.076   5.130   3.633
 3346WAT    HW216728   1.998   5.057   3.526
 3346WAT    LP116729   2.124   5.107   3.507
 3346WAT    LP216730   2.119   5.014   3.573
 3347WAT     OW16731   1.520   4.632   4.786
 3347WAT    HW116732   1.470   4.592   4.857
 3347WAT    HW216733   1.480   4.597   4.706
 3347WAT    LP116734   1.514   4.702   4.788
 3347WAT    LP216735   1.587   4.615   4.789
 3348WAT     OW16736   1.306   4.395   3.906
 3348WAT    HW116737   1.339   4.484   3.918
 3348WAT    HW216738   1.254   4.378   3.984
 3348WAT    LP116739   1.266   4.391   3.848
 3348WAT    LP216740   1.359   4.350   3.900
 3349WAT     OW16741   5.154   4.545   0.635
 3349WAT    HW116742   5.170   4.471   0.694
 3349WAT    HW216743   5.072   4.523   0.590
 3349WAT    LP116744   5.147   4.605   0.671
 3349WAT    LP216745   5.206   4.552   0.589
 3350WAT     OW16746   0.620   5.528   2.633
 3350WAT    HW116747   0.667   5.581   2.697
 3350WAT    HW216748   0.535   5.570   2.624
 3350WAT    LP116749   0.654   5.528   2.571
 3350WAT    LP216750   0.613   5.462   2.655
 3351WAT     OW16751   0.090   6.425   0.635
 3351WAT    HW116752   0.116   6.516   0.620
 3351WAT    HW216753   0.107   6.381   0.551
 3351WAT    LP116754   0.129   6.396   0.686
 3351WAT    LP216755   0.022   6.420   0.652
 3352WAT     OW16756   3.310   2.164   0.783
 3352WAT    HW116757   3.329   2.076   0.815
 3352WAT    HW216758   3.390   2.214   0.800
 3352WAT    LP116759   3.296   2.163   0.714
 3352WAT    LP216760   3.256   2.193   0.817
 3353WAT     OW16761   6.210   1.735   2.266
 3353WAT    HW116762   6.146   1.805   2.279
 3353WAT    HW216763   6.168   1.675   2.204
 3353WAT    LP116764   6.269   1.760   2.240
 3353WAT    LP216765   6.223   1.702   2.327
 3354WAT     OW16766   1.173   1.439   6.648
 3354WAT    HW116767   1.187   1.372   6.582
 3354WAT    HW216768   1.105   1.496   6.611
 3354WAT    LP116769   1.151   1.411   6.708
 3354WAT    LP216770   1.232   1.475   6.659
 3355WAT     OW16771   0.612   4.530   6.229
 3355WAT    HW116772   0.580   4.502   6.315
 3355WAT    HW216773   0.577   4.618   6.218
 3355WAT    LP116774   0.682   4.531   6.228
 3355WAT    LP216775   0.589   4.488   6.178
 3356WAT     OW16776   0.651   6.069   2.976
 3356WAT    HW116777   0.591   6.143   2.982
 3356WAT    HW216778   0.724   6.101   2.923
 3356WAT    LP116779   0.673   6.049   3.039
 3356WAT    LP216780   0.620   6.014   2.944
 3357WAT     OW16781   4.657   6.011   4.010
 3357WAT    HW116782   4.673   5.948   3.939
 3357WAT    HW216783   4.610   5.960   4.076
 3357WAT    LP116784   4.718   6.034   4.036
 3357WAT    LP216785   4.619   6.065   3.987
 3358WAT     OW16786   4.570   4.068   3.499
 3358WAT    HW116787   4.525   4.147   3.528
 3358WAT    HW216788   4.594   4.023   3.580
 3358WAT    LP116789   4.527   4.028   3.460
 3358WAT    LP216790   4.627   4.084   3.462
 3359WAT     OW16791   3.037   1.514   4.128
 3359WAT    HW116792   3.008   1.509   4.037
 3359WAT    HW216793   2.967   1.563   4.172
 3359WAT    LP116794   3.043   1.450   4.156
 3359WAT    LP216795   3.098   1.548   4.133
 3360WAT     OW16796   0.738   0.880   5.168
 3360WAT    HW116797   0.761   0.965   5.130
 3360WAT    HW216798   0.760   0.888   5.261
 3360WAT    LP116799   0.670   0.866   5.160
 3360WAT    LP216800   0.775   0.829   5.138
 3361WAT     OW16801   3.459   3.946   1.318
 3361WAT    HW116802   3.460   3.862   1.272
 3361WAT    HW216803   3.499   4.007   1.257
 3361WAT    LP116804   3.394   3.965   1.334
 3361WAT    LP216805   3.497   3.942   1.377
 3362WAT     OW16806   5.731   1.271   1.355
 3362WAT    HW116807   5.642   1.305   1.359
 3362WAT    HW216808   5.783   1.345   1.320
 3362WAT    LP116809   5.754   1.253   1.418
 3362WAT    LP216810   5.735   1.216   1.312
 3363WAT     OW16811   1.678   4.363   4.134
 3363WAT    HW116812   1.623   4.440   4.148
 3363WAT    HW216813   1.744   4.392   4.071
 3363WAT    LP116814   1.709   4.343   4.194
 3363WAT    LP216815   1.641   4.310   4.109
 3364WAT     OW16816   4.866   2.404   2.184
 3364WAT    HW116817   4.791   2.346   2.197
 3364WAT    HW216818   4.830   2.483   2.145
 3364WAT    LP116819   4.897   2.419   2.245
 3364WAT    LP216820   4.913   2.375   2.141
 3365WAT     OW16821   3.700   3.762   3.973
 3365WAT    HW116822   3.711   3.856   3.986
 3365WAT    HW216823   3.724   3.724   4.057
 3365WAT    LP116824   3.634   3.747   3.956
 3365WAT    LP216825   3.743   3.739   3.922
 3366WAT     OW16826   0.321   3.975   3.563
 3366WAT    HW116827   0.262   4.036   3.606
 3366WAT    HW216828   0.407   3.994   3.600
 3366WAT    LP116829   0.303   3.908   3.576
 3366WAT    LP216830   0.321   3.985   3.493
 3367WAT     OW16831   3.164   4.620   2.691
 3367WAT    HW116832   3.225   4.625   2.617
 3367WAT    HW216833   3.217   4.641   2.768
 3367WAT    LP116834   3.112   4.666   2.683
 3367WAT    LP216835   3.137   4.555   2.696
 3368WAT     OW16836   1.612   5.110   0.161
 3368WAT    HW116837   1.584   5.109   0.070
 3368WAT    HW216838   1.702   5.078   0.159
 3368WAT    LP116839   1.610   5.175   0.187
 3368WAT    LP216840   1.572   5.068   0.200
 3369WAT     OW16841   1.319   5.602   1.226
 3369WAT    HW116842   1.386   5.556   1.175
 3369WAT    HW216843   1.267   5.533   1.267
 3369WAT    LP116844   1.349   5.642   1.275
 3369WAT    LP216845   1.279   5.642   1.184
 3370WAT     OW16846   6.213   4.105   1.201
 3370WAT    HW116847   6.243   4.187   1.162
 3370WAT    HW216848   6.165   4.132   1.279
 3370WAT    LP116849   6.170   4.071   1.156
 3370WAT    LP216850   6.267   4.064   1.217
 3371WAT     OW16851   3.352   1.857   2.618
 3371WAT    HW116852   3.281   1.839   2.680
 3371WAT    HW216853   3.420   1.793   2.640
 3371WAT    LP116854   3.330   1.849   2.552
 3371WAT    LP216855   3.375   1.923   2.627
 3372WAT     OW16856   6.100   1.956   4.764
 3372WAT    HW116857   6.071   1.933   4.676
 3372WAT    HW216858   6.170   1.894   4.783
 3372WAT    LP116859   6.124   2.021   4.766
 3372WAT    LP216860   6.047   1.949   4.810
 3373WAT     OW16861   3.609   1.846   5.151
 3373WAT    HW116862   3.602   1.917   5.215
 3373WAT    HW216863   3.692   1.861   5.107
 3373WAT    LP116864   3.609   1.784   5.184
 3373WAT    LP216865   3.555   1.848   5.106
 3374WAT     OW16866   5.043   5.130   4.131
 3374WAT    HW116867   4.993   5.048   4.136
 3374WAT    HW216868   5.124   5.111   4.178
 3374WAT    LP116869   5.057   5.146   4.064
 3374WAT    LP216870   5.008   5.182   4.161
 3375WAT     OW16871   4.525   5.632   2.580
 3375WAT    HW116872   4.583   5.707   2.570
 3375WAT    HW216873   4.493   5.637   2.670
 3375WAT    LP116874   4.471   5.636   2.535
 3375WAT    LP216875   4.559   5.572   2.570
 3376WAT     OW16876   5.436   5.114   0.885
 3376WAT    HW116877   5.415   5.022   0.866
 3376WAT    HW216878   5.531   5.118   0.883
 3376WAT    LP116879   5.408   5.156   0.835
 3376WAT    LP216880   5.411   5.133   0.947
 3377WAT     OW16881   4.580   5.191   4.063
 3377WAT    HW116882   4.492   5.223   4.041
 3377WAT    HW216883   4.638   5.265   4.048
 3377WAT    LP116884   4.582   5.171   4.131
 3377WAT    LP216885   4.597   5.137   4.022
 3378WAT     OW16886   1.123   3.554   3.721
 3378WAT    HW116887   1.152   3.564   3.630
 3378WAT    HW216888   1.204   3.555   3.772
 3378WAT    LP116889   1.082   3.607   3.740
 3378WAT    LP216890   1.089   3.494   3.730
 3379WAT     OW16891   5.249   4.029   1.273
 3379WAT    HW116892   5.203   4.102   1.313
 3379WAT    HW216893   5.238   3.957   1.335
 3379WAT    LP116894   5.221   4.013   1.211
 3379WAT    LP216895   5.317   4.045   1.264
 3380WAT     OW16896   2.992   2.153   5.920
 3380WAT    HW116897   2.938   2.128   5.845
 3380WAT    HW216898   3.047   2.076   5.937
 3380WAT    LP116899   3.031   2.209   5.905
 3380WAT    LP216900   2.951   2.167   5.976
 3381WAT     OW16901   4.141   6.360   2.248
 3381WAT    HW116902   4.159   6.364   2.154
 3381WAT    HW216903   4.222   6.327   2.287
 3381WAT    LP116904   4.125   6.423   2.273
 3381WAT    LP216905   4.088   6.315   2.261
 3382WAT     OW16906   6.298   1.126   4.923
 3382WAT    HW116907   6.355   1.199   4.897
 3382WAT    HW216908   6.253   1.158   5.001
 3382WAT    LP116909   6.253   1.111   4.872
 3382WAT    LP216910   6.336   1.069   4.938
 3383WAT     OW16911   0.022   6.108   5.388
 3383WAT    HW116912  -0.034   6.181   5.362
 3383WAT    HW216913  -0.039   6.042   5.421
 3383WAT    LP116914   0.058   6.083   5.334
 3383WAT    LP216915   0.066   6.127   5.439
 3384WAT     OW16916   4.846   1.399   3.563
 3384WAT    HW116917   4.939   1.409   3.547
 3384WAT    HW216918   4.804   1.456   3.498
 3384WAT    LP116919   4.826   1.332   3.554
 3384WAT    LP216920   4.829   1.420   3.628
 3385WAT     OW16921   3.187   1.866   1.180
 3385WAT    HW116922   3.243   1.941   1.164
 3385WAT    HW216923   3.116   1.875   1.117
 3385WAT    LP116924   3.222   1.806   1.170
 3385WAT    LP216925   3.162   1.867   1.246
 3386WAT     OW16926   2.116   6.466   5.184
 3386WAT    HW116927   2.155   6.399   5.127
 3386WAT    HW216928   2.092   6.537   5.124
 3386WAT    LP116929   2.059   6.441   5.216
 3386WAT    LP216930   2.162   6.488   5.231
 3387WAT     OW16931   2.032   0.892   0.423
 3387WAT    HW116932   1.967   0.940   0.372
 3387WAT    HW216933   1.997   0.891   0.512
 3387WAT    LP116934   2.039   0.826   0.399
 3387WAT    LP216935   2.094   0.924   0.421
 3388WAT     OW16936   1.144   1.759   6.162
 3388WAT    HW116937   1.056   1.743   6.129
 3388WAT    HW216938   1.150   1.855   6.170
 3388WAT    LP116939   1.153   1.729   6.224
 3388WAT    LP216940   1.192   1.736   6.117
 3389WAT     OW16941   4.484   1.621   3.401
 3389WAT    HW116942   4.489   1.695   3.461
 3389WAT    HW216943   4.408   1.641   3.345
 3389WAT    LP116944   4.542   1.616   3.362
 3389WAT    LP216945   4.474   1.561   3.436
 3390WAT     OW16946   4.153   5.000   6.210
 3390WAT    HW116947   4.100   4.921   6.217
 3390WAT    HW216948   4.089   5.072   6.215
 3390WAT    LP116949   4.199   5.005   6.262
 3390WAT    LP216950   4.187   5.002   6.149
 3391WAT     OW16951   0.682   2.589   3.501
 3391WAT    HW116952   0.752   2.531   3.532
 3391WAT    HW216953   0.700   2.600   3.407
 3391WAT    LP116954   0.619   2.559   3.510
 3391WAT    LP216955   0.684   2.650   3.534
 3392WAT     OW16956   2.125   6.126   4.259
 3392WAT    HW116957   2.157   6.149   4.172
 3392WAT    HW216958   2.036   6.163   4.262
 3392WAT    LP116959   2.123   6.057   4.267
 3392WAT    LP216960   2.165   6.155   4.309
 3393WAT     OW16961   3.447   3.743   3.876
 3393WAT    HW116962   3.401   3.807   3.930
 3393WAT    HW216963   3.538   3.749   3.903
 3393WAT    LP116964   3.421   3.679   3.887
 3393WAT    LP216965   3.440   3.759   3.808
 3394WAT     OW16966   2.292   6.275   5.584
 3394WAT    HW116967   2.257   6.237   5.504
 3394WAT    HW216968   2.311   6.366   5.561
 3394WAT    LP116969   2.244   6.272   5.636
 3394WAT    LP216970   2.350   6.242   5.604
 3395WAT     OW16971   2.160   4.079   0.287
 3395WAT    HW116972   2.126   4.118   0.367
 3395WAT    HW216973   2.131   3.987   0.291
 3395WAT    LP116974   2.133   4.110   0.231
 3395WAT    LP216975   2.230   4.082   0.285
 3396WAT     OW16976   3.859   3.434   5.960
 3396WAT    HW116977   3.799   3.504   5.934
 3396WAT    HW216978   3.854   3.433   6.055
 3396WAT    LP116979   3.838   3.373   5.933
 3396WAT    LP216980   3.924   3.448   5.938
 3397WAT     OW16981   4.342   1.389   2.551
 3397WAT    HW116982   4.381   1.447   2.486
 3397WAT    HW216983   4.258   1.429   2.571
 3397WAT    LP116984   4.333   1.325   2.524
 3397WAT    LP216985   4.382   1.385   2.608
 3398WAT     OW16986   2.999   6.435   4.078
 3398WAT    HW116987   2.993   6.523   4.115
 3398WAT    HW216988   2.909   6.408   4.066
 3398WAT    LP116989   3.033   6.437   4.017
 3398WAT    LP216990   3.033   6.393   4.122
 3399WAT     OW16991   6.727   1.751   6.510
 3399WAT    HW116992   6.818   1.730   6.488
 3399WAT    HW216993   6.706   1.826   6.454
 3399WAT    LP116994   6.686   1.697   6.495
 3399WAT    LP216995   6.721   1.768   6.577
 3400WAT     OW16996   0.578   3.534   2.496
 3400WAT    HW116997   0.524   3.542   2.575
 3400WAT    HW216998   0.545   3.602   2.437
 3400WAT    LP116999   0.645   3.545   2.511
 3400WAT    LP217000   0.570   3.470   2.467
 3401WAT     OW17001   4.994   1.854   5.521
 3401WAT    HW117002   4.955   1.926   5.571
 3401WAT    HW217003   5.087   1.858   5.542
 3401WAT    LP117004   4.967   1.792   5.541
 3401WAT    LP217005   4.984   1.863   5.452
 3402WAT     OW17006   2.338   2.212   5.179
 3402WAT    HW117007   2.343   2.307   5.181
 3402WAT    HW217008   2.322   2.190   5.087
 3402WAT    LP117009   2.398   2.183   5.201
 3402WAT    LP217010   2.286   2.188   5.219
 3403WAT     OW17011   2.339   6.543   5.904
 3403WAT    HW117012   2.306   6.629   5.931
 3403WAT    HW217013   2.405   6.563   5.837
 3403WAT    LP117014   2.368   6.510   5.958
 3403WAT    LP217015   2.288   6.504   5.877
 3404WAT     OW17016   6.027   6.126   5.998
 3404WAT    HW117017   6.114   6.160   6.018
 3404WAT    HW217018   5.976   6.141   6.078
 3404WAT    LP117019   5.998   6.161   5.944
 3404WAT    LP217020   6.029   6.058   5.983
 3405WAT     OW17021   5.082   6.654   0.464
 3405WAT    HW117022   5.108   6.668   0.555
 3405WAT    HW217023   5.017   6.722   0.447
 3405WAT    LP117024   5.137   6.660   0.421
 3405WAT    LP217025   5.053   6.590   0.456
 3406WAT     OW17026   3.523   5.488   2.429
 3406WAT    HW117027   3.601   5.485   2.373
 3406WAT    HW217028   3.463   5.424   2.389
 3406WAT    LP117029   3.538   5.469   2.494
 3406WAT    LP217030   3.494   5.552   2.428
 3407WAT     OW17031   3.781   5.707   1.814
 3407WAT    HW117032   3.688   5.694   1.833
 3407WAT    HW217033   3.783   5.736   1.723
 3407WAT    LP117034   3.808   5.755   1.856
 3407WAT    LP217035   3.816   5.647   1.822
 3408WAT     OW17036   5.559   1.602   2.237
 3408WAT    HW117037   5.602   1.597   2.152
 3408WAT    HW217038   5.571   1.692   2.265
 3408WAT    LP117039   5.491   1.586   2.231
 3408WAT    LP217040   5.589   1.558   2.282
 3409WAT     OW17041   2.207   0.913   0.736
 3409WAT    HW117042   2.113   0.905   0.716
 3409WAT    HW217043   2.241   0.973   0.670
 3409WAT    LP117044   2.216   0.939   0.800
 3409WAT    LP217045   2.238   0.851   0.732
 3410WAT     OW17046   0.837   4.545   2.465
 3410WAT    HW117047   0.921   4.573   2.502
 3410WAT    HW217048   0.827   4.454   2.493
 3410WAT    LP117049   0.785   4.584   2.490
 3410WAT    LP217050   0.838   4.549   2.395
 3411WAT     OW17051   4.909   3.142   4.743
 3411WAT    HW117052   4.845   3.180   4.804
 3411WAT    HW217053   4.943   3.217   4.694
 3411WAT    LP117054   4.960   3.110   4.777
 3411WAT    LP217055   4.877   3.097   4.700
 3412WAT     OW17056   4.081   5.573   4.065
 3412WAT    HW117057   3.989   5.546   4.072
 3412WAT    HW217058   4.125   5.526   4.137
 3412WAT    LP117059   4.108   5.554   4.003
 3412WAT    LP217060   4.088   5.642   4.073
 3413WAT     OW17061   6.783   3.746   5.329
 3413WAT    HW117062   6.710   3.807   5.327
 3413WAT    HW217063   6.783   3.711   5.418
 3413WAT    LP117064   6.773   3.694   5.282
 3413WAT    LP217065   6.843   3.779   5.315
 3414WAT     OW17066   4.308   5.429   3.191
 3414WAT    HW117067   4.275   5.518   3.200
 3414WAT    HW217068   4.232   5.377   3.163
 3414WAT    LP117069   4.358   5.426   3.142
 3414WAT    LP217070   4.333   5.405   3.252
 3415WAT     OW17071   2.069   3.868   3.186
 3415WAT    HW117072   2.050   3.958   3.162
 3415WAT    HW217073   2.158   3.852   3.153
 3415WAT    LP117074   2.066   3.859   3.255
 3415WAT    LP217075   2.024   3.824   3.155
 3416WAT     OW17076   0.065   3.114   3.999
 3416WAT    HW117077   0.076   3.160   4.082
 3416WAT    HW217078  -0.029   3.097   3.992
 3416WAT    LP117079   0.087   3.154   3.946
 3416WAT    LP217080   0.101   3.054   3.999
 3417WAT     OW17081   1.736   3.067   5.401
 3417WAT    HW117082   1.737   3.069   5.497
 3417WAT    HW217083   1.689   3.147   5.377
 3417WAT    LP117084   1.801   3.068   5.376
 3417WAT    LP217085   1.702   3.011   5.378
 3418WAT     OW17086   3.022   2.377   4.910
 3418WAT    HW117087   3.004   2.314   4.839
 3418WAT    HW217088   2.988   2.460   4.878
 3418WAT    LP117089   2.989   2.357   4.969
 3418WAT    LP217090   3.091   2.381   4.922
 3419WAT     OW17091   6.560   3.606   1.008
 3419WAT    HW117092   6.538   3.594   0.916
 3419WAT    HW217093   6.570   3.517   1.042
 3419WAT    LP117094   6.620   3.641   1.014
 3419WAT    LP217095   6.509   3.640   1.042
 3420WAT     OW17096   1.445   0.590   2.287
 3420WAT    HW117097   1.484   0.508   2.260
 3420WAT    HW217098   1.421   0.634   2.205
 3420WAT    LP117099   1.388   0.579   2.326
 3420WAT    LP217100   1.491   0.629   2.323
 3421WAT     OW17101   1.388   4.879   1.492
 3421WAT    HW117102   1.419   4.944   1.556
 3421WAT    HW217103   1.462   4.866   1.433
 3421WAT    LP117104   1.371   4.819   1.524
 3421WAT    LP217105   1.332   4.903   1.458
 3422WAT     OW17106   0.164   6.115   6.110
 3422WAT    HW117107   0.108   6.108   6.033
 3422WAT    HW217108   0.118   6.064   6.178
 3422WAT    LP117109   0.227   6.087   6.097
 3422WAT    LP217110   0.171   6.182   6.130
 3423WAT     OW17111   5.242   2.022   0.355
 3423WAT    HW117112   5.216   2.106   0.392
 3423WAT    HW217113   5.162   1.969   0.356
 3423WAT    LP117114   5.265   2.030   0.289
 3423WAT    LP217115   5.291   1.992   0.394
 3424WAT     OW17116   5.467   5.287   1.820
 3424WAT    HW117117   5.436   5.212   1.872
 3424WAT    HW217118   5.544   5.318   1.866
 3424WAT    LP117119   5.483   5.267   1.755
 3424WAT    LP217120   5.417   5.337   1.818
 3425WAT     OW17121   1.128   3.211   1.471
 3425WAT    HW117122   1.046   3.213   1.421
 3425WAT    HW217123   1.177   3.138   1.435
 3425WAT    LP117124   1.163   3.271   1.463
 3425WAT    LP217125   1.114   3.201   1.539
 3426WAT     OW17126   0.155   0.475   1.692
 3426WAT    HW117127   0.076   0.460   1.744
 3426WAT    HW217128   0.143   0.418   1.616
 3426WAT    LP117129   0.160   0.542   1.673
 3426WAT    LP217130   0.212   0.456   1.728
 3427WAT     OW17131   6.013   5.331   6.101
 3427WAT    HW117132   5.958   5.325   6.180
 3427WAT    HW217133   6.099   5.355   6.134
 3427WAT    LP117134   6.015   5.269   6.068
 3427WAT    LP217135   5.988   5.380   6.058
 3428WAT     OW17136   0.757   4.357   3.817
 3428WAT    HW117137   0.736   4.445   3.848
 3428WAT    HW217138   0.750   4.302   3.895
 3428WAT    LP117139   0.711   4.336   3.768
 3428WAT    LP217140   0.822   4.354   3.791
 3429WAT     OW17141   3.715   4.958   6.605
 3429WAT    HW117142   3.689   5.050   6.598
 3429WAT    HW217143   3.797   4.959   6.654
 3429WAT    LP117144   3.666   4.921   6.639
 3429WAT    LP217145   3.725   4.930   6.541
 3430WAT     OW17146   3.559   4.321   2.207
 3430WAT    HW117147   3.489   4.357   2.262
 3430WAT    HW217148   3.560   4.228   2.227
 3430WAT    LP117149   3.545   4.332   2.139
 3430WAT    LP217150   3.621   4.351   2.223
 3431WAT     OW17151   2.870   6.193   0.655
 3431WAT    HW117152   2.812   6.119   0.639
 3431WAT    HW217153   2.882   6.233   0.569
 3431WAT    LP117154   2.840   6.238   0.699
 3431WAT    LP217155   2.931   6.172   0.681
 3432WAT     OW17156   2.114   1.410   4.133
 3432WAT    HW117157   2.182   1.402   4.066
 3432WAT    HW217158   2.156   1.380   4.213
 3432WAT    LP117159   2.093   1.477   4.139
 3432WAT    LP217160   2.059   1.370   4.117
 3433WAT     OW17161   5.124   2.617   6.513
 3433WAT    HW117162   5.038   2.636   6.552
 3433WAT    HW217163   5.131   2.522   6.518
 3433WAT    LP117164   5.126   2.638   6.446
 3433WAT    LP217165   5.175   2.648   6.549
 3434WAT     OW17166   3.015   3.444   4.940
 3434WAT    HW117167   3.084   3.424   4.876
 3434WAT    HW217168   2.946   3.380   4.922
 3434WAT    LP117169   3.039   3.436   5.006
 3434WAT    LP217170   2.991   3.509   4.932
 3435WAT     OW17171   4.905   5.363   6.548
 3435WAT    HW117172   4.860   5.279   6.541
 3435WAT    HW217173   4.918   5.376   6.642
 3435WAT    LP117174   4.967   5.361   6.515
 3435WAT    LP217175   4.866   5.415   6.521
 3436WAT     OW17176   4.144   1.685   4.049
 3436WAT    HW117177   4.104   1.619   3.993
 3436WAT    HW217178   4.123   1.768   4.006
 3436WAT    LP117179   4.116   1.683   4.113
 3436WAT    LP217180   4.213   1.676   4.053
 3437WAT     OW17181   3.719   0.801   2.154
 3437WAT    HW117182   3.633   0.809   2.197
 3437WAT    HW217183   3.705   0.739   2.083
 3437WAT    LP117184   3.740   0.863   2.129
 3437WAT    LP217185   3.767   0.777   2.200
 3438WAT     OW17186   0.073   5.149   1.678
 3438WAT    HW117187   0.101   5.068   1.721
 3438WAT    HW217188   0.152   5.204   1.678
 3438WAT    LP117189   0.052   5.137   1.612
 3438WAT    LP217190   0.022   5.180   1.714
 3439WAT     OW17191   0.065   1.311   4.973
 3439WAT    HW117192   0.102   1.292   4.887
 3439WAT    HW217193   0.140   1.335   5.027
 3439WAT    LP117194   0.020   1.364   4.969
 3439WAT    LP217195   0.032   1.255   4.999
 3440WAT     OW17196   2.109   2.658   2.537
 3440WAT    HW117197   2.043   2.656   2.607
 3440WAT    HW217198   2.139   2.748   2.535
 3440WAT    LP117199   2.162   2.614   2.552
 3440WAT    LP217200   2.080   2.640   2.476
 3441WAT     OW17201   4.526   1.663   5.192
 3441WAT    HW117202   4.502   1.643   5.282
 3441WAT    HW217203   4.448   1.643   5.141
 3441WAT    LP117204   4.543   1.731   5.186
 3441WAT    LP217205   4.580   1.624   5.171
 3442WAT     OW17206   5.514   2.779   5.647
 3442WAT    HW117207   5.601   2.743   5.660
 3442WAT    HW217208   5.522   2.871   5.669
 3442WAT    LP117209   5.493   2.771   5.580
 3442WAT    LP217210   5.467   2.747   5.689
 3443WAT     OW17211   0.479   3.173   0.154
 3443WAT    HW117212   0.405   3.220   0.193
 3443WAT    HW217213   0.497   3.220   0.072
 3443WAT    LP117214   0.535   3.176   0.197
 3443WAT    LP217215   0.462   3.106   0.142
 3444WAT     OW17216   1.757   6.563   3.372
 3444WAT    HW117217   1.741   6.526   3.459
 3444WAT    HW217218   1.847   6.539   3.352
 3444WAT    LP117219   1.713   6.536   3.325
 3444WAT    LP217220   1.750   6.633   3.374
 3445WAT     OW17221   0.029   3.737   4.898
 3445WAT    HW117222   0.038   3.674   4.969
 3445WAT    HW217223  -0.063   3.731   4.872
 3445WAT    LP117224   0.045   3.801   4.920
 3445WAT    LP217225   0.071   3.719   4.845
 3446WAT     OW17226   2.413   6.055   1.822
 3446WAT    HW117227   2.404   5.963   1.798
 3446WAT    HW217228   2.339   6.072   1.879
 3446WAT    LP117229   2.474   6.066   1.855
 3446WAT    LP217230   2.410   6.096   1.765
 3447WAT     OW17231   0.068   3.556   1.293
 3447WAT    HW117232   0.060   3.463   1.271
 3447WAT    HW217233   0.121   3.593   1.223
 3447WAT    LP117234   0.005   3.586   1.295
 3447WAT    LP217235   0.100   3.564   1.355
 3448WAT     OW17236   0.103   1.359   1.633
 3448WAT    HW117237   0.129   1.380   1.723
 3448WAT    HW217238   0.081   1.266   1.635
 3448WAT    LP117239   0.048   1.398   1.614
 3448WAT    LP217240   0.156   1.371   1.588
 3449WAT     OW17241   6.613   0.234   6.528
 3449WAT    HW117242   6.626   0.267   6.439
 3449WAT    HW217243   6.691   0.263   6.575
 3449WAT    LP117244   6.556   0.262   6.556
 3449WAT    LP217245   6.609   0.164   6.528
 3450WAT     OW17246   5.670   5.482   1.600
 3450WAT    HW117247   5.601   5.424   1.569
 3450WAT    HW217248   5.746   5.425   1.613
 3450WAT    LP117249   5.684   5.532   1.553
 3450WAT    LP217250   5.651   5.513   1.661
 3451WAT     OW17251   1.718   1.164   1.712
 3451WAT    HW117252   1.778   1.225   1.668
 3451WAT    HW217253   1.654   1.220   1.756
 3451WAT    LP117254   1.687   1.123   1.665
 3451WAT    LP217255   1.753   1.125   1.758
 3452WAT     OW17256   3.278   1.104   5.600
 3452WAT    HW117257   3.226   1.141   5.672
 3452WAT    HW217258   3.217   1.049   5.552
 3452WAT    LP117259   3.304   1.155   5.559
 3452WAT    LP217260   3.331   1.066   5.625
 3453WAT     OW17261   1.625   6.131   4.173
 3453WAT    HW117262   1.626   6.120   4.078
 3453WAT    HW217263   1.651   6.046   4.207
 3453WAT    LP117264   1.671   6.181   4.193
 3453WAT    LP217265   1.561   6.148   4.195
 3454WAT     OW17266   1.203   1.044   6.071
 3454WAT    HW117267   1.109   1.058   6.082
 3454WAT    HW217268   1.218   0.954   6.102
 3454WAT    LP117269   1.222   1.051   6.004
 3454WAT    LP217270   1.239   1.089   6.110
 3455WAT     OW17271   4.320   2.203   4.603
 3455WAT    HW117272   4.373   2.188   4.525
 3455WAT    HW217273   4.277   2.287   4.587
 3455WAT    LP117274   4.272   2.152   4.610
 3455WAT    LP217275   4.360   2.205   4.660
 3456WAT     OW17276   4.032   4.914   5.088
 3456WAT    HW117277   4.115   4.912   5.039
 3456WAT    HW217278   4.046   4.981   5.155
 3456WAT    LP117279   3.979   4.932   5.046
 3456WAT    LP217280   4.019   4.852   5.117
 3457WAT     OW17281   1.285   3.089   2.760
 3457WAT    HW117282   1.329   3.117   2.680
 3457WAT    HW217283   1.354   3.090   2.826
 3457WAT    LP117284   1.234   3.133   2.777
 3457WAT    LP217285   1.259   3.024   2.753
 3458WAT     OW17286   2.933   4.547   0.838
 3458WAT    HW117287   2.995   4.486   0.878
 3458WAT    HW217288   2.848   4.503   0.846
 3458WAT    LP117289   2.932   4.608   0.873
 3458WAT    LP217290   2.948   4.559   0.771
 3459WAT     OW17291   5.096   0.726   3.806
 3459WAT    HW117292   5.058   0.703   3.891
 3459WAT    HW217293   5.171   0.782   3.828
 3459WAT    LP117294   5.116   0.669   3.772
 3459WAT    LP217295   5.049   0.762   3.767
 3460WAT     OW17296   5.362   2.482   4.083
 3460WAT    HW117297   5.436   2.429   4.110
 3460WAT    HW217298   5.365   2.481   3.987
 3460WAT    LP117299   5.302   2.455   4.106
 3460WAT    LP217300   5.368   2.548   4.107
 3461WAT     OW17301   1.814   6.493   0.635
 3461WAT    HW117302   1.896   6.505   0.587
 3461WAT    HW217303   1.841   6.464   0.722
 3461WAT    LP117304   1.778   6.553   0.640
 3461WAT    LP217305   1.774   6.444   0.605
 3462WAT     OW17306   4.832   0.348   3.038
 3462WAT    HW117307   4.913   0.298   3.051
 3462WAT    HW217308   4.819   0.395   3.120
 3462WAT    LP117309   4.839   0.393   2.984
 3462WAT    LP217310   4.778   0.305   3.025
 3463WAT     OW17311   2.886   6.599   1.170
 3463WAT    HW117312   2.910   6.549   1.248
 3463WAT    HW217313   2.943   6.676   1.172
 3463WAT    LP117314   2.896   6.562   1.112
 3463WAT    LP217315   2.818   6.618   1.173
 3464WAT     OW17316   1.816   4.357   4.812
 3464WAT    HW117317   1.903   4.329   4.784
 3464WAT    HW217318   1.760   4.280   4.800
 3464WAT    LP117319   1.817   4.376   4.880
 3464WAT    LP217320   1.793   4.411   4.774
 3465WAT     OW17321   2.752   1.645   0.880
 3465WAT    HW117322   2.802   1.626   0.959
 3465WAT    HW217323   2.796   1.720   0.841
 3465WAT    LP117324   2.753   1.590   0.836
 3465WAT    LP217325   2.686   1.660   0.896
 3466WAT     OW17326   6.351   2.046   5.960
 3466WAT    HW117327   6.339   2.066   5.867
 3466WAT    HW217328   6.390   1.959   5.960
 3466WAT    LP117329   6.395   2.093   5.989
 3466WAT    LP217330   6.290   2.046   5.993
 3467WAT     OW17331   3.413   3.833   1.953
 3467WAT    HW117332   3.336   3.839   2.010
 3467WAT    HW217333   3.403   3.908   1.894
 3467WAT    LP117334   3.472   3.838   1.990
 3467WAT    LP217335   3.413   3.773   1.917
 3468WAT     OW17336   5.563   3.928   0.962
 3468WAT    HW117337   5.526   3.840   0.948
 3468WAT    HW217338   5.657   3.913   0.967
 3468WAT    LP117339   5.546   3.970   0.909
 3468WAT    LP217340   5.539   3.955   1.022
 3469WAT     OW17341   3.424   4.854   0.341
 3469WAT    HW117342   3.461   4.841   0.254
 3469WAT    HW217343   3.497   4.890   0.393
 3469WAT    LP117344   3.371   4.899   0.339
 3469WAT    LP217345   3.402   4.793   0.368
 3470WAT     OW17346   5.181   5.420   0.290
 3470WAT    HW117347   5.200   5.514   0.297
 3470WAT    HW217348   5.092   5.416   0.255
 3470WAT    LP117349   5.226   5.389   0.247
 3470WAT    LP217350   5.184   5.389   0.353
 3471WAT     OW17351   6.706   0.056   4.245
 3471WAT    HW117352   6.728   0.139   4.288
 3471WAT    HW217353   6.676   0.081   4.158
 3471WAT    LP117354   6.763   0.015   4.240
 3471WAT    LP217355   6.656   0.022   4.280
 3472WAT     OW17356   4.862   2.408   1.844
 3472WAT    HW117357   4.921   2.359   1.901
 3472WAT    HW217358   4.775   2.371   1.860
 3472WAT    LP117359   4.863   2.476   1.860
 3472WAT    LP217360   4.880   2.399   1.777
 3473WAT     OW17361   3.835   2.003   0.145
 3473WAT    HW117362   3.828   1.915   0.108
 3473WAT    HW217363   3.827   1.991   0.239
 3473WAT    LP117364   3.896   2.032   0.129
 3473WAT    LP217365   3.783   2.044   0.121
 3474WAT     OW17366   0.079   2.328   6.467
 3474WAT    HW117367   0.007   2.287   6.419
 3474WAT    HW217368   0.094   2.411   6.422
 3474WAT    LP117369   0.060   2.339   6.534
 3474WAT    LP217370   0.136   2.288   6.465
 3475WAT     OW17371   5.928   5.231   1.322
 3475WAT    HW117372   5.919   5.269   1.409
 3475WAT    HW217373   5.980   5.295   1.273
 3475WAT    LP117374   5.962   5.170   1.325
 3475WAT    LP217375   5.866   5.222   1.292
 3476WAT     OW17376   2.495   2.121   0.588
 3476WAT    HW117377   2.436   2.071   0.532
 3476WAT    HW217378   2.544   2.177   0.527
 3476WAT    LP117379   2.459   2.160   0.634
 3476WAT    LP217380   2.538   2.078   0.622
 3477WAT     OW17381   4.211   5.403   6.519
 3477WAT    HW117382   4.153   5.473   6.550
 3477WAT    HW217383   4.223   5.421   6.426
 3477WAT    LP117384   4.272   5.404   6.553
 3477WAT    LP217385   4.181   5.340   6.528
 3478WAT     OW17386   0.429   3.412   4.047
 3478WAT    HW117387   0.510   3.454   4.018
 3478WAT    HW217388   0.367   3.428   3.975
 3478WAT    LP117389   0.439   3.343   4.056
 3478WAT    LP217390   0.406   3.441   4.106
 3479WAT     OW17391   3.382   4.220   6.636
 3479WAT    HW117392   3.389   4.234   6.541
 3479WAT    HW217393   3.338   4.135   6.644
 3479WAT    LP117394   3.446   4.218   6.665
 3479WAT    LP217395   3.344   4.271   6.665
 3480WAT     OW17396   3.959   0.614   5.878
 3480WAT    HW117397   3.961   0.554   5.953
 3480WAT    HW217398   3.975   0.559   5.802
 3480WAT    LP117399   3.896   0.645   5.874
 3480WAT    LP217400   4.008   0.663   5.884
 3481WAT     OW17401   5.374   4.842   0.854
 3481WAT    HW117402   5.286   4.860   0.820
 3481WAT    HW217403   5.402   4.765   0.806
 3481WAT    LP117404   5.416   4.896   0.841
 3481WAT    LP217405   5.372   4.830   0.923
 3482WAT     OW17406   3.770   1.159   5.259
 3482WAT    HW117407   3.751   1.252   5.266
 3482WAT    HW217408   3.799   1.133   5.346
 3482WAT    LP117409   3.712   1.123   5.240
 3482WAT    LP217410   3.820   1.147   5.212
 3483WAT     OW17411   3.251   0.447   6.194
 3483WAT    HW117412   3.257   0.539   6.219
 3483WAT    HW217413   3.328   0.433   6.139
 3483WAT    LP117414   3.253   0.406   6.250
 3483WAT    LP217415   3.193   0.436   6.157
 3484WAT     OW17416   0.366   5.385   3.842
 3484WAT    HW117417   0.290   5.431   3.805
 3484WAT    HW217418   0.330   5.304   3.878
 3484WAT    LP117419   0.413   5.371   3.792
 3484WAT    LP217420   0.396   5.424   3.892
 3485WAT     OW17421   2.072   2.898   0.639
 3485WAT    HW117422   2.166   2.882   0.648
 3485WAT    HW217423   2.032   2.843   0.706
 3485WAT    LP117424   2.057   2.966   0.650
 3485WAT    LP217425   2.050   2.880   0.575
 3486WAT     OW17426   1.940   3.440   1.754
 3486WAT    HW117427   1.865   3.467   1.808
 3486WAT    HW217428   1.937   3.500   1.679
 3486WAT    LP117429   2.000   3.447   1.790
 3486WAT    LP217430   1.933   3.374   1.733
 3487WAT     OW17431   5.301   3.809   4.838
 3487WAT    HW117432   5.253   3.883   4.802
 3487WAT    HW217433   5.355   3.778   4.766
 3487WAT    LP117434   5.342   3.830   4.891
 3487WAT    LP217435   5.258   3.759   4.860
 3488WAT     OW17436   0.741   4.515   1.677
 3488WAT    HW117437   0.663   4.559   1.711
 3488WAT    HW217438   0.814   4.552   1.728
 3488WAT    LP117439   0.737   4.446   1.687
 3488WAT    LP217440   0.749   4.528   1.609
 3489WAT     OW17441   2.415   5.569   0.965
 3489WAT    HW117442   2.321   5.579   0.975
 3489WAT    HW217443   2.435   5.485   1.006
 3489WAT    LP117444   2.433   5.569   0.898
 3489WAT    LP217445   2.449   5.621   0.998
 3490WAT     OW17446   5.722   3.156   5.055
 3490WAT    HW117447   5.761   3.101   5.123
 3490WAT    HW217448   5.651   3.203   5.099
 3490WAT    LP117449   5.769   3.201   5.029
 3490WAT    LP217450   5.697   3.116   5.003
 3491WAT     OW17451   6.244   6.666   4.352
 3491WAT    HW117452   6.338   6.650   4.360
 3491WAT    HW217453   6.205   6.580   4.339
 3491WAT    LP117454   6.220   6.696   4.411
 3491WAT    LP217455   6.231   6.708   4.297
 3492WAT     OW17456   5.512   6.663   6.146
 3492WAT    HW117457   5.591   6.660   6.200
 3492WAT    HW217458   5.463   6.739   6.179
 3492WAT    LP117459   5.528   6.671   6.079
 3492WAT    LP217460   5.474   6.604   6.155
 3493WAT     OW17461   4.742   4.219   2.162
 3493WAT    HW117462   4.702   4.246   2.079
 3493WAT    HW217463   4.824   4.268   2.166
 3493WAT    LP117464   4.701   4.237   2.216
 3493WAT    LP217465   4.754   4.150   2.163
 3494WAT     OW17466   0.907   2.386   3.505
 3494WAT    HW117467   0.971   2.317   3.485
 3494WAT    HW217468   0.959   2.467   3.505
 3494WAT    LP117469   0.857   2.389   3.456
 3494WAT    LP217470   0.878   2.375   3.568
 3495WAT     OW17471   5.904   6.098   1.323
 3495WAT    HW117472   5.984   6.057   1.289
 3495WAT    HW217473   5.918   6.102   1.418
 3495WAT    LP117474   5.896   6.162   1.297
 3495WAT    LP217475   5.848   6.059   1.308
 3496WAT     OW17476   1.354   4.475   4.949
 3496WAT    HW117477   1.280   4.516   4.995
 3496WAT    HW217478   1.318   4.396   4.910
 3496WAT    LP117479   1.379   4.518   4.900
 3496WAT    LP217480   1.405   4.460   4.994
 3497WAT     OW17481   3.834   5.589   2.660
 3497WAT    HW117482   3.905   5.525   2.668
 3497WAT    HW217483   3.754   5.540   2.679
 3497WAT    LP117484   3.843   5.641   2.707
 3497WAT    LP217485   3.832   5.616   2.596
 3498WAT     OW17486   0.828   5.260   3.512
 3498WAT    HW117487   0.821   5.176   3.558
 3498WAT    HW217488   0.742   5.273   3.472
 3498WAT    LP117489   0.842   5.312   3.558
 3498WAT    LP217490   0.878   5.258   3.463
 3499WAT     OW17491   1.280   1.263   2.679
 3499WAT    HW117492   1.257   1.338   2.623
 3499WAT    HW217493   1.374   1.271   2.693
 3499WAT    LP117494   1.246   1.266   2.740
 3499WAT    LP217495   1.265   1.203   2.647
 3500WAT     OW17496   4.428   3.205   6.578
 3500WAT    HW117497   4.476   3.123   6.566
 3500WAT    HW217498   4.373   3.212   6.500
 3500WAT    LP117499   4.389   3.202   6.636
 3500WAT    LP217500   4.472   3.259   6.582
 3501WAT     OW17501   2.741   0.640   4.625
 3501WAT    HW117502   2.773   0.666   4.539
 3501WAT    HW217503   2.785   0.557   4.643
 3501WAT    LP117504   2.758   0.688   4.674
 3501WAT    LP217505   2.672   0.631   4.625
 3502WAT     OW17506   1.408   4.620   2.773
 3502WAT    HW117507   1.448   4.589   2.854
 3502WAT    HW217508   1.423   4.549   2.711
 3502WAT    LP117509   1.339   4.630   2.782
 3502WAT    LP217510   1.438   4.679   2.751
 3503WAT     OW17511   5.615   1.696   4.767
 3503WAT    HW117512   5.528   1.722   4.737
 3503WAT    HW217513   5.668   1.694   4.687
 3503WAT    LP117514   5.641   1.744   4.812
 3503WAT    LP217515   5.614   1.633   4.797
 3504WAT     OW17516   6.626   4.314   4.712
 3504WAT    HW117517   6.542   4.268   4.718
 3504WAT    HW217518   6.652   4.304   4.621
 3504WAT    LP117519   6.618   4.382   4.729
 3504WAT    LP217520   6.673   4.285   4.755
 3505WAT     OW17521   0.650   5.046   5.457
 3505WAT    HW117522   0.728   5.097   5.476
 3505WAT    HW217523   0.621   5.014   5.543
 3505WAT    LP117524   0.600   5.086   5.428
 3505WAT    LP217525   0.664   4.992   5.415
 3506WAT     OW17526   1.663   5.893   2.712
 3506WAT    HW117527   1.754   5.863   2.709
 3506WAT    HW217528   1.669   5.987   2.724
 3506WAT    LP117529   1.630   5.877   2.652
 3506WAT    LP217530   1.629   5.863   2.765
 3507WAT     OW17531   3.003   1.550   6.634
 3507WAT    HW117532   3.090   1.555   6.595
 3507WAT    HW217533   3.019   1.526   6.725
 3507WAT    LP117534   2.970   1.612   6.630
 3507WAT    LP217535   2.965   1.501   6.602
 3508WAT     OW17536   4.124   0.331   3.163
 3508WAT    HW117537   4.076   0.249   3.153
 3508WAT    HW217538   4.083   0.374   3.238
 3508WAT    LP117539   4.192   0.319   3.175
 3508WAT    LP217540   4.118   0.371   3.105
 3509WAT     OW17541   5.031   5.690   4.715
 3509WAT    HW117542   5.051   5.778   4.746
 3509WAT    HW217543   5.115   5.643   4.718
 3509WAT    LP117544   4.984   5.659   4.756
 3509WAT    LP217545   5.006   5.692   4.649
 3510WAT     OW17546   3.346   0.594   3.691
 3510WAT    HW117547   3.352   0.688   3.707
 3510WAT    HW217548   3.328   0.557   3.778
 3510WAT    LP117549   3.294   0.580   3.647
 3510WAT    LP217550   3.406   0.569   3.665
 3511WAT     OW17551   6.688   5.719   3.036
 3511WAT    HW117552   6.687   5.788   2.970
 3511WAT    HW217553   6.700   5.765   3.119
 3511WAT    LP117554   6.628   5.683   3.036
 3511WAT    LP217555   6.742   5.675   3.025
 3512WAT     OW17556   6.543   1.577   6.421
 3512WAT    HW117557   6.609   1.636   6.458
 3512WAT    HW217558   6.564   1.491   6.458
 3512WAT    LP117559   6.478   1.596   6.440
 3512WAT    LP217560   6.547   1.576   6.351
 3513WAT     OW17561   3.879   1.279   6.218
 3513WAT    HW117562   3.965   1.241   6.203
 3513WAT    HW217563   3.834   1.215   6.273
 3513WAT    LP117564   3.884   1.341   6.250
 3513WAT    LP217565   3.844   1.287   6.157
 3514WAT     OW17566   3.938   5.513   6.370
 3514WAT    HW117567   3.954   5.533   6.463
 3514WAT    HW217568   3.877   5.438   6.372
 3514WAT    LP117569   3.909   5.567   6.338
 3514WAT    LP217570   3.997   5.495   6.338
 3515WAT     OW17571   3.623   4.466   0.825
 3515WAT    HW117572   3.665   4.424   0.900
 3515WAT    HW217573   3.660   4.422   0.748
 3515WAT    LP117574   3.553   4.457   0.827
 3515WAT    LP217575   3.637   4.534   0.823
 3516WAT     OW17576   5.937   2.379   1.474
 3516WAT    HW117577   5.906   2.289   1.480
 3516WAT    HW217578   5.924   2.415   1.561
 3516WAT    LP117579   6.005   2.381   1.457
 3516WAT    LP217580   5.901   2.415   1.426
 3517WAT     OW17581   3.053   4.929   1.133
 3517WAT    HW117582   3.057   4.859   1.198
 3517WAT    HW217583   3.029   4.885   1.052
 3517WAT    LP117584   3.005   4.976   1.151
 3517WAT    LP217585   3.116   4.960   1.127
 3518WAT     OW17586   2.763   1.071   6.164
 3518WAT    HW117587   2.676   1.035   6.181
 3518WAT    HW217588   2.814   1.047   6.242
 3518WAT    LP117589   2.791   1.042   6.107
 3518WAT    LP217590   2.760   1.140   6.157
 3519WAT     OW17591   0.705   4.816   4.427
 3519WAT    HW117592   0.625   4.780   4.466
 3519WAT    HW217593   0.674   4.876   4.359
 3519WAT    LP117594   0.743   4.850   4.475
 3519WAT    LP217595   0.744   4.765   4.399
 3520WAT     OW17596   2.063   2.497   3.411
 3520WAT    HW117597   2.010   2.448   3.473
 3520WAT    HW217598   2.000   2.541   3.354
 3520WAT    LP117599   2.103   2.543   3.444
 3520WAT    LP217600   2.104   2.454   3.373
 3521WAT     OW17601   0.203   1.555   6.057
 3521WAT    HW117602   0.251   1.527   6.135
 3521WAT    HW217603   0.267   1.548   5.986
 3521WAT    LP117604   0.148   1.514   6.046
 3521WAT    LP217605   0.182   1.622   6.064
 3522WAT     OW17606   3.878   3.371   4.448
 3522WAT    HW117607   3.897   3.288   4.403
 3522WAT    HW217608   3.795   3.400   4.411
 3522WAT    LP117609   3.872   3.362   4.517
 3522WAT    LP217610   3.929   3.418   4.435
 3523WAT     OW17611   5.155   1.748   2.187
 3523WAT    HW117612   5.198   1.665   2.210
 3523WAT    HW217613   5.170   1.804   2.263
 3523WAT    LP117614   5.183   1.775   2.129
 3523WAT    LP217615   5.086   1.738   2.177
 3524WAT     OW17616   1.474   3.031   6.536
 3524WAT    HW117617   1.398   3.089   6.547
 3524WAT    HW217618   1.446   2.968   6.470
 3524WAT    LP117619   1.530   3.067   6.513
 3524WAT    LP217620   1.490   2.999   6.596
 3525WAT     OW17621   2.638   2.126   2.669
 3525WAT    HW117622   2.568   2.188   2.649
 3525WAT    HW217623   2.621   2.099   2.759
 3525WAT    LP117624   2.636   2.071   2.626
 3525WAT    LP217625   2.701   2.157   2.664
 3526WAT     OW17626   5.555   3.091   4.050
 3526WAT    HW117627   5.558   3.105   3.955
 3526WAT    HW217628   5.562   3.179   4.087
 3526WAT    LP117629   5.494   3.062   4.068
 3526WAT    LP217630   5.608   3.051   4.071
 3527WAT     OW17631   6.369   6.121   2.330
 3527WAT    HW117632   6.438   6.110   2.264
 3527WAT    HW217633   6.316   6.041   2.323
 3527WAT    LP117634   6.397   6.127   2.394
 3527WAT    LP217635   6.331   6.177   2.316
 3528WAT     OW17636   5.963   3.727   0.283
 3528WAT    HW117637   5.916   3.809   0.268
 3528WAT    HW217638   6.014   3.713   0.203
 3528WAT    LP117639   6.005   3.732   0.339
 3528WAT    LP217640   5.918   3.674   0.293
 3529WAT     OW17641   1.023   2.051   0.337
 3529WAT    HW117642   0.999   1.972   0.287
 3529WAT    HW217643   0.940   2.093   0.357
 3529WAT    LP117644   1.057   2.033   0.395
 3529WAT    LP217645   1.064   2.093   0.298
 3530WAT     OW17646   4.242   5.180   0.592
 3530WAT    HW117647   4.206   5.136   0.514
 3530WAT    HW217648   4.200   5.137   0.666
 3530WAT    LP117649   4.312   5.171   0.595
 3530WAT    LP217650   4.227   5.248   0.591
 3531WAT     OW17651   4.188   0.102   6.242
 3531WAT    HW117652   4.200   0.112   6.336
 3531WAT    HW217653   4.100   0.136   6.224
 3531WAT    LP117654   4.236   0.140   6.207
 3531WAT    LP217655   4.193   0.035   6.223
 3532WAT     OW17656   3.042   3.698   1.666
 3532WAT    HW117657   3.069   3.608   1.648
 3532WAT    HW217658   3.026   3.700   1.761
 3532WAT    LP117659   3.092   3.743   1.649
 3532WAT    LP217660   2.983   3.713   1.631
 3533WAT     OW17661   6.127   3.187   2.886
 3533WAT    HW117662   6.103   3.262   2.940
 3533WAT    HW217663   6.093   3.111   2.935
 3533WAT    LP117664   6.097   3.190   2.823
 3533WAT    LP217665   6.196   3.182   2.879
 3534WAT     OW17666   3.706   5.325   3.043
 3534WAT    HW117667   3.783   5.311   2.987
 3534WAT    HW217668   3.652   5.248   3.029
 3534WAT    LP117669   3.726   5.330   3.110
 3534WAT    LP217670   3.672   5.383   3.024
 3535WAT     OW17671   6.568   2.553   3.097
 3535WAT    HW117672   6.647   2.606   3.089
 3535WAT    HW217673   6.582   2.501   3.176
 3535WAT    LP117674   6.511   2.593   3.103
 3535WAT    LP217675   6.561   2.511   3.041
 3536WAT     OW17676   5.842   1.494   1.238
 3536WAT    HW117677   5.928   1.486   1.196
 3536WAT    HW217678   5.854   1.562   1.304
 3536WAT    LP117679   5.793   1.513   1.192
 3536WAT    LP217680   5.823   1.433   1.268
 3537WAT     OW17681   2.232   5.929   2.983
 3537WAT    HW117682   2.220   5.834   2.991
 3537WAT    HW217683   2.277   5.954   3.064
 3537WAT    LP117684   2.272   5.944   2.927
 3537WAT    LP217685   2.171   5.961   2.978
 3538WAT     OW17686   5.832   0.594   4.136
 3538WAT    HW117687   5.859   0.684   4.117
 3538WAT    HW217688   5.795   0.598   4.224
 3538WAT    LP117689   5.784   0.572   4.090
 3538WAT    LP217690   5.887   0.551   4.135
 3539WAT     OW17691   5.454   2.586   2.139
 3539WAT    HW117692   5.477   2.578   2.047
 3539WAT    HW217693   5.482   2.674   2.163
 3539WAT    LP117694   5.385   2.579   2.149
 3539WAT    LP217695   5.488   2.538   2.178
 3540WAT     OW17696   1.946   4.137   3.506
 3540WAT    HW117697   1.878   4.202   3.490
 3540WAT    HW217698   1.901   4.053   3.505
 3540WAT    LP117699   1.995   4.139   3.455
 3540WAT    LP217700   1.977   4.148   3.568
 3541WAT     OW17701   5.002   0.692   4.068
 3541WAT    HW117702   4.949   0.623   4.109
 3541WAT    HW217703   4.955   0.773   4.087
 3541WAT    LP117704   5.066   0.693   4.097
 3541WAT    LP217705   5.008   0.681   3.999
 3542WAT     OW17706   0.894   5.844   6.351
 3542WAT    HW117707   0.839   5.891   6.414
 3542WAT    HW217708   0.984   5.863   6.379
 3542WAT    LP117709   0.881   5.776   6.353
 3542WAT    LP217710   0.883   5.868   6.286
 3543WAT     OW17711   1.370   4.326   3.178
 3543WAT    HW117712   1.332   4.240   3.159
 3543WAT    HW217713   1.306   4.389   3.143
 3543WAT    LP117714   1.379   4.335   3.247
 3543WAT    LP217715   1.432   4.333   3.145
 3544WAT     OW17716   2.969   1.468   1.573
 3544WAT    HW117717   2.898   1.481   1.636
 3544WAT    HW217718   3.045   1.510   1.613
 3544WAT    LP117719   2.981   1.400   1.562
 3544WAT    LP217720   2.953   1.499   1.512
 3545WAT     OW17721   0.488   6.597   4.627
 3545WAT    HW117722   0.466   6.669   4.687
 3545WAT    HW217723   0.452   6.519   4.668
 3545WAT    LP117724   0.459   6.608   4.564
 3545WAT    LP217725   0.558   6.592   4.619
 3546WAT     OW17726   0.597   5.583   6.075
 3546WAT    HW117727   0.568   5.668   6.108
 3546WAT    HW217728   0.688   5.576   6.103
 3546WAT    LP117729   0.559   5.531   6.104
 3546WAT    LP217730   0.592   5.580   6.006
 3547WAT     OW17731   0.511   1.105   5.630
 3547WAT    HW117732   0.450   1.157   5.681
 3547WAT    HW217733   0.596   1.148   5.643
 3547WAT    LP117734   0.513   1.039   5.653
 3547WAT    LP217735   0.494   1.106   5.562
 3548WAT     OW17736   3.658   3.383   0.441
 3548WAT    HW117737   3.655   3.472   0.476
 3548WAT    HW217738   3.583   3.378   0.381
 3548WAT    LP117739   3.718   3.372   0.406
 3548WAT    LP217740   3.651   3.335   0.492
 3549WAT     OW17741   4.280   0.798   2.178
 3549WAT    HW117742   4.341   0.838   2.240
 3549WAT    HW217743   4.336   0.758   2.112
 3549WAT    LP117744   4.241   0.749   2.210
 3549WAT    LP217745   4.238   0.846   2.150
 3550WAT     OW17746   3.649   4.287   6.172
 3550WAT    HW117747   3.569   4.336   6.150
 3550WAT    HW217748   3.716   4.326   6.115
 3550WAT    LP117749   3.666   4.296   6.239
 3550WAT    LP217750   3.641   4.219   6.158
 3551WAT     OW17751   0.035   3.268   6.182
 3551WAT    HW117752  -0.050   3.305   6.206
 3551WAT    HW217753   0.077   3.251   6.266
 3551WAT    LP117754   0.026   3.208   6.146
 3551WAT    LP217755   0.072   3.313   6.144
 3552WAT     OW17756   5.477   2.434   6.629
 3552WAT    HW117757   5.448   2.479   6.549
 3552WAT    HW217758   5.438   2.347   6.622
 3552WAT    LP117759   5.547   2.430   6.630
 3552WAT    LP217760   5.455   2.467   6.686
 3553WAT     OW17761   6.663   6.200   0.841
 3553WAT    HW117762   6.579   6.169   0.873
 3553WAT    HW217763   6.643   6.281   0.794
 3553WAT    LP117764   6.707   6.212   0.894
 3553WAT    LP217765   6.692   6.153   0.798
 3554WAT     OW17766   3.439   5.352   6.021
 3554WAT    HW117767   3.419   5.258   6.020
 3554WAT    HW217768   3.428   5.378   6.112
 3554WAT    LP117769   3.505   5.363   6.000
 3554WAT    LP217770   3.395   5.387   5.979
 3555WAT     OW17771   2.645   4.813   6.255
 3555WAT    HW117772   2.588   4.826   6.179
 3555WAT    HW217773   2.599   4.749   6.309
 3555WAT    LP117774   2.707   4.789   6.235
 3555WAT    LP217775   2.653   4.874   6.290
 3556WAT     OW17776   0.117   2.820   4.198
 3556WAT    HW117777   0.163   2.903   4.216
 3556WAT    HW217778   0.026   2.845   4.185
 3556WAT    LP117779   0.143   2.789   4.141
 3556WAT    LP217780   0.123   2.777   4.253
 3557WAT     OW17781   0.673   3.493   4.411
 3557WAT    HW117782   0.712   3.413   4.375
 3557WAT    HW217783   0.678   3.557   4.340
 3557WAT    LP117784   0.606   3.481   4.429
 3557WAT    LP217785   0.709   3.515   4.467
 3558WAT     OW17786   0.893   0.113   1.052
 3558WAT    HW117787   0.875   0.107   1.146
 3558WAT    HW217788   0.854   0.034   1.015
 3558WAT    LP117789   0.864   0.171   1.025
 3558WAT    LP217790   0.962   0.114   1.041
 3559WAT     OW17791   3.591   6.147   2.831
 3559WAT    HW117792   3.644   6.091   2.888
 3559WAT    HW217793   3.634   6.142   2.746
 3559WAT    LP117794   3.525   6.122   2.827
 3559WAT    LP217795   3.590   6.212   2.855
 3560WAT     OW17796   3.637   0.618   1.973
 3560WAT    HW117797   3.615   0.534   2.014
 3560WAT    HW217798   3.679   0.594   1.890
 3560WAT    LP117799   3.579   0.656   1.962
 3560WAT    LP217800   3.681   0.654   2.014
 3561WAT     OW17801   2.236   6.062   0.162
 3561WAT    HW117802   2.179   6.009   0.106
 3561WAT    HW217803   2.176   6.120   0.209
 3561WAT    LP117804   2.271   6.021   0.207
 3561WAT    LP217805   2.281   6.098   0.124
 3562WAT     OW17806   3.380   1.236   2.588
 3562WAT    HW117807   3.440   1.197   2.525
 3562WAT    HW217808   3.407   1.200   2.672
 3562WAT    LP117809   3.386   1.306   2.588
 3562WAT    LP217810   3.314   1.218   2.574
 3563WAT     OW17811   0.087   0.127   6.276
 3563WAT    HW117812   0.067   0.035   6.293
 3563WAT    HW217813   0.133   0.126   6.192
 3563WAT    LP117814   0.028   0.164   6.271
 3563WAT    LP217815   0.127   0.153   6.326
 3564WAT     OW17816   3.052   4.020   2.742
 3564WAT    HW117817   2.969   4.031   2.790
 3564WAT    HW217818   3.104   3.962   2.798
 3564WAT    LP117819   3.040   3.990   2.680
 3564WAT    LP217820   3.084   4.081   2.733
 3565WAT     OW17821   5.344   4.657   4.791
 3565WAT    HW117822   5.282   4.725   4.819
 3565WAT    HW217823   5.391   4.633   4.871
 3565WAT    LP117824   5.309   4.602   4.765
 3565WAT    LP217825   5.388   4.682   4.743
 3566WAT     OW17826   0.659   3.315   2.351
 3566WAT    HW117827   0.627   3.238   2.399
 3566WAT    HW217828   0.626   3.390   2.401
 3566WAT    LP117829   0.729   3.315   2.349
 3566WAT    LP217830   0.634   3.315   2.286
 3567WAT     OW17831   2.390   3.070   3.637
 3567WAT    HW117832   2.335   3.139   3.599
 3567WAT    HW217833   2.475   3.111   3.651
 3567WAT    LP117834   2.363   3.047   3.698
 3567WAT    LP217835   2.395   3.016   3.593
 3568WAT     OW17836   3.778   4.950   4.975
 3568WAT    HW117837   3.866   4.928   5.004
 3568WAT    HW217838   3.758   5.033   5.017
 3568WAT    LP117839   3.776   4.956   4.905
 3568WAT    LP217840   3.732   4.900   4.995
 3569WAT     OW17841   5.114   5.229   3.884
 3569WAT    HW117842   5.177   5.297   3.910
 3569WAT    HW217843   5.084   5.191   3.966
 3569WAT    LP117844   5.061   5.257   3.849
 3569WAT    LP217845   5.145   5.181   3.844
 3570WAT     OW17846   3.367   5.081   6.013
 3570WAT    HW117847   3.288   5.056   5.965
 3570WAT    HW217848   3.337   5.094   6.103
 3570WAT    LP117849   3.414   5.029   6.010
 3570WAT    LP217850   3.394   5.139   5.987
 3571WAT     OW17851   2.036   5.959   3.894
 3571WAT    HW117852   1.987   6.039   3.877
 3571WAT    HW217853   2.126   5.988   3.904
 3571WAT    LP117854   2.013   5.928   3.953
 3571WAT    LP217855   2.029   5.915   3.840
 3572WAT     OW17856   0.967   4.204   6.297
 3572WAT    HW117857   0.904   4.179   6.230
 3572WAT    HW217858   1.014   4.278   6.260
 3572WAT    LP117859   0.934   4.223   6.356
 3572WAT    LP217860   1.011   4.151   6.311
 3573WAT     OW17861   2.404   1.778   1.753
 3573WAT    HW117862   2.422   1.849   1.690
 3573WAT    HW217863   2.458   1.705   1.723
 3573WAT    LP117864   2.423   1.797   1.818
 3573WAT    LP217865   2.336   1.761   1.752
 3574WAT     OW17866   2.022   4.648   5.552
 3574WAT    HW117867   2.034   4.669   5.459
 3574WAT    HW217868   2.106   4.613   5.580
 3574WAT    LP117869   2.006   4.706   5.588
 3574WAT    LP217870   1.971   4.601   5.560
 3575WAT     OW17871   0.701   4.199   0.338
 3575WAT    HW117872   0.650   4.134   0.290
 3575WAT    HW217873   0.792   4.177   0.319
 3575WAT    LP117874   0.685   4.264   0.316
 3575WAT    LP217875   0.688   4.195   0.407
 3576WAT     OW17876   2.683   5.212   5.587
 3576WAT    HW117877   2.684   5.234   5.494
 3576WAT    HW217878   2.590   5.216   5.612
 3576WAT    LP117879   2.708   5.147   5.598
 3576WAT    LP217880   2.720   5.258   5.625
 3577WAT     OW17881   3.672   5.705   0.321
 3577WAT    HW117882   3.696   5.629   0.267
 3577WAT    HW217883   3.754   5.752   0.334
 3577WAT    LP117884   3.626   5.745   0.287
 3577WAT    LP217885   3.645   5.684   0.382
 3578WAT     OW17886   4.686   5.939   5.971
 3578WAT    HW117887   4.688   5.923   6.066
 3578WAT    HW217888   4.644   5.861   5.935
 3578WAT    LP117889   4.649   5.996   5.956
 3578WAT    LP217890   4.751   5.946   5.946
 3579WAT     OW17891   2.412   6.495   6.334
 3579WAT    HW117892   2.507   6.498   6.336
 3579WAT    HW217893   2.384   6.583   6.359
 3579WAT    LP117894   2.389   6.479   6.270
 3579WAT    LP217895   2.388   6.447   6.379
 3580WAT     OW17896   6.037   4.197   5.718
 3580WAT    HW117897   6.062   4.172   5.630
 3580WAT    HW217898   6.076   4.284   5.730
 3580WAT    LP117899   5.967   4.201   5.725
 3580WAT    LP217900   6.062   4.152   5.765
 3581WAT     OW17901   4.105   5.592   0.218
 3581WAT    HW117902   4.116   5.501   0.245
 3581WAT    HW217903   4.193   5.630   0.227
 3581WAT    LP117904   4.084   5.596   0.151
 3581WAT    LP217905   4.060   5.625   0.259
 3582WAT     OW17906   6.680   1.517   5.658
 3582WAT    HW117907   6.698   1.597   5.707
 3582WAT    HW217908   6.641   1.546   5.576
 3582WAT    LP117909   6.740   1.482   5.645
 3582WAT    LP217910   6.637   1.475   5.693
 3583WAT     OW17911   4.800   2.974   5.242
 3583WAT    HW117912   4.731   3.004   5.182
 3583WAT    HW217913   4.873   2.951   5.185
 3583WAT    LP117914   4.818   3.025   5.286
 3583WAT    LP217915   4.778   2.918   5.279
 3584WAT     OW17916   1.009   4.066   3.473
 3584WAT    HW117917   1.104   4.065   3.469
 3584WAT    HW217918   0.988   4.147   3.521
 3584WAT    LP117919   0.981   4.068   3.409
 3584WAT    LP217920   0.985   4.010   3.507
 3585WAT     OW17921   1.933   2.473   1.430
 3585WAT    HW117922   1.901   2.390   1.395
 3585WAT    HW217923   2.027   2.472   1.413
 3585WAT    LP117924   1.902   2.527   1.398
 3585WAT    LP217925   1.921   2.477   1.499
 3586WAT     OW17926   4.610   6.415   4.165
 3586WAT    HW117927   4.684   6.358   4.146
 3586WAT    HW217928   4.594   6.461   4.082
 3586WAT    LP117929   4.554   6.377   4.183
 3586WAT    LP217930   4.625   6.460   4.216
 3587WAT     OW17931   6.521   1.896   3.028
 3587WAT    HW117932   6.571   1.824   2.991
 3587WAT    HW217933   6.584   1.944   3.082
 3587WAT    LP117934   6.495   1.937   2.978
 3587WAT    LP217935   6.468   1.872   3.067
 3588WAT     OW17936   5.135   2.599   2.917
 3588WAT    HW117937   5.099   2.640   2.839
 3588WAT    HW217938   5.112   2.658   2.989
 3588WAT    LP117939   5.107   2.536   2.928
 3588WAT    LP217940   5.205   2.593   2.912
 3589WAT     OW17941   5.754   4.282   0.771
 3589WAT    HW117942   5.690   4.211   0.761
 3589WAT    HW217943   5.780   4.303   0.681
 3589WAT    LP117944   5.725   4.337   0.802
 3589WAT    LP217945   5.809   4.260   0.808
 3590WAT     OW17946   0.643   5.966   1.728
 3590WAT    HW117947   0.651   5.928   1.641
 3590WAT    HW217948   0.691   6.049   1.724
 3590WAT    LP117949   0.576   5.977   1.744
 3590WAT    LP217950   0.672   5.924   1.776
 3591WAT     OW17951   4.072   4.235   1.909
 3591WAT    HW117952   4.078   4.298   1.980
 3591WAT    HW217953   4.030   4.283   1.837
 3591WAT    LP117954   4.136   4.213   1.890
 3591WAT    LP217955   4.033   4.180   1.928
 3592WAT     OW17956   0.872   5.891   0.772
 3592WAT    HW117957   0.799   5.836   0.802
 3592WAT    HW217958   0.832   5.952   0.710
 3592WAT    LP117959   0.901   5.925   0.826
 3592WAT    LP217960   0.921   5.852   0.740
 3593WAT     OW17961   3.557   4.139   1.129
 3593WAT    HW117962   3.475   4.188   1.137
 3593WAT    HW217963   3.552   4.098   1.043
 3593WAT    LP117964   3.611   4.182   1.134
 3593WAT    LP217965   3.561   4.091   1.179
 3594WAT     OW17966   3.570   3.427   2.690
 3594WAT    HW117967   3.554   3.355   2.630
 3594WAT    HW217968   3.559   3.389   2.777
 3594WAT    LP117969   3.635   3.452   2.683
 3594WAT    LP217970   3.524   3.479   2.680
 3595WAT     OW17971   2.404   0.172   6.159
 3595WAT    HW117972   2.432   0.264   6.156
 3595WAT    HW217973   2.483   0.122   6.140
 3595WAT    LP117974   2.379   0.156   6.222
 3595WAT    LP217975   2.355   0.160   6.111
 3596WAT     OW17976   2.759   3.909   4.837
 3596WAT    HW117977   2.814   3.966   4.783
 3596WAT    HW217978   2.811   3.829   4.847
 3596WAT    LP117979   2.747   3.939   4.900
 3596WAT    LP217980   2.698   3.896   4.805
 3597WAT     OW17981   6.595   0.168   4.009
 3597WAT    HW117982   6.569   0.248   4.054
 3597WAT    HW217983   6.616   0.195   3.920
 3597WAT    LP117984   6.651   0.140   4.040
 3597WAT    LP217985   6.543   0.121   4.009
 3598WAT     OW17986   1.305   3.069   5.554
 3598WAT    HW117987   1.369   2.998   5.559
 3598WAT    HW217988   1.302   3.106   5.642
 3598WAT    LP117989   1.326   3.118   5.508
 3598WAT    LP217990   1.242   3.045   5.535
 3599WAT     OW17991   2.788   1.521   1.767
 3599WAT    HW117992   2.696   1.531   1.741
 3599WAT    HW217993   2.787   1.446   1.827
 3599WAT    LP117994   2.828   1.508   1.711
 3599WAT    LP217995   2.810   1.578   1.800
 3600WAT     OW17996   5.211   4.914   4.868
 3600WAT    HW117997   5.139   4.953   4.917
 3600WAT    HW217998   5.214   4.963   4.786
 3600WAT    LP117999   5.271   4.920   4.903
 3600WAT    LP218000   5.198   4.846   4.856
 3601WAT     OW18001   6.474   5.861   3.412
 3601WAT    HW118002   6.438   5.780   3.445
 3601WAT    HW218003   6.488   5.915   3.490
 3601WAT    LP118004   6.535   5.850   3.379
 3601WAT    LP218005   6.429   5.892   3.368
 3602WAT     OW18006   2.417   1.981   5.989
 3602WAT    HW118007   2.354   2.053   5.986
 3602WAT    HW218008   2.362   1.902   5.985
 3602WAT    LP118009   2.460   1.984   5.934
 3602WAT    LP218010   2.454   1.983   6.048
 3603WAT     OW18011   2.779   5.333   3.854
 3603WAT    HW118012   2.776   5.341   3.759
 3603WAT    HW218013   2.751   5.418   3.886
 3603WAT    LP118014   2.736   5.283   3.876
 3603WAT    LP218015   2.844   5.319   3.875
 3604WAT     OW18016   1.160   4.952   1.367
 3604WAT    HW118017   1.130   4.866   1.336
 3604WAT    HW218018   1.245   4.934   1.408
 3604WAT    LP118019   1.168   4.996   1.313
 3604WAT    LP218020   1.115   4.979   1.413
 3605WAT     OW18021   3.446   4.656   5.615
 3605WAT    HW118022   3.365   4.643   5.666
 3605WAT    HW218023   3.485   4.734   5.654
 3605WAT    LP118024   3.488   4.601   5.622
 3605WAT    LP218025   3.431   4.667   5.548
 3606WAT     OW18026   6.228   6.058   2.873
 3606WAT    HW118027   6.183   6.115   2.810
 3606WAT    HW218028   6.241   5.976   2.827
 3606WAT    LP118029   6.290   6.086   2.891
 3606WAT    LP218030   6.189   6.049   2.930
 3607WAT     OW18031   0.662   3.121   3.908
 3607WAT    HW118032   0.607   3.120   3.986
 3607WAT    HW218033   0.604   3.093   3.837
 3607WAT    LP118034   0.687   3.185   3.895
 3607WAT    LP218035   0.715   3.076   3.914
 3608WAT     OW18036   1.183   0.625   4.528
 3608WAT    HW118037   1.134   0.551   4.491
 3608WAT    HW218038   1.262   0.630   4.475
 3608WAT    LP118039   1.146   0.684   4.522
 3608WAT    LP218040   1.198   0.613   4.595
 3609WAT     OW18041   2.508   2.897   2.234
 3609WAT    HW118042   2.454   2.834   2.185
 3609WAT    HW218043   2.496   2.871   2.326
 3609WAT    LP118044   2.575   2.891   2.215
 3609WAT    LP218045   2.485   2.962   2.224
 3610WAT     OW18046   4.182   3.368   4.287
 3610WAT    HW118047   4.216   3.303   4.226
 3610WAT    HW218048   4.102   3.400   4.246
 3610WAT    LP118049   4.167   3.338   4.349
 3610WAT    LP218050   4.227   3.420   4.296
 3611WAT     OW18051   4.146   0.289   2.703
 3611WAT    HW118052   4.158   0.341   2.782
 3611WAT    HW218053   4.227   0.303   2.653
 3611WAT    LP118054   4.139   0.221   2.719
 3611WAT    LP218055   4.091   0.310   2.666
 3612WAT     OW18056   3.478   4.976   4.554
 3612WAT    HW118057   3.411   4.925   4.600
 3612WAT    HW218058   3.555   4.971   4.611
 3612WAT    LP118059   3.492   4.948   4.492
 3612WAT    LP218060   3.457   5.043   4.547
 3613WAT     OW18061   0.899   2.531   5.237
 3613WAT    HW118062   0.909   2.623   5.212
 3613WAT    HW218063   0.876   2.487   5.155
 3613WAT    LP118064   0.958   2.506   5.263
 3613WAT    LP218065   0.848   2.524   5.284
 3614WAT     OW18066   6.563   1.631   5.427
 3614WAT    HW118067   6.551   1.562   5.361
 3614WAT    HW218068   6.596   1.706   5.378
 3614WAT    LP118069   6.501   1.646   5.458
 3614WAT    LP218070   6.609   1.610   5.476
 3615WAT     OW18071   6.599   1.187   0.195
 3615WAT    HW118072   6.635   1.148   0.115
 3615WAT    HW218073   6.578   1.111   0.251
 3615WAT    LP118074   6.646   1.228   0.227
 3615WAT    LP218075   6.541   1.224   0.181
 3616WAT     OW18076   3.538   2.666   3.992
 3616WAT    HW118077   3.622   2.710   3.977
 3616WAT    HW218078   3.558   2.598   4.057
 3616WAT    LP118079   3.491   2.711   4.017
 3616WAT    LP218080   3.514   2.638   3.933
 3617WAT     OW18081   0.401   4.181   0.947
 3617WAT    HW118082   0.454   4.260   0.951
 3617WAT    HW218083   0.412   4.140   1.033
 3617WAT    LP118084   0.334   4.197   0.936
 3617WAT    LP218085   0.424   4.138   0.896
 3618WAT     OW18086   2.561   5.574   2.861
 3618WAT    HW118087   2.481   5.626   2.851
 3618WAT    HW218088   2.627   5.623   2.813
 3618WAT    LP118089   2.578   5.569   2.929
 3618WAT    LP218090   2.552   5.510   2.834
 3619WAT     OW18091   1.532   1.642   1.594
 3619WAT    HW118092   1.566   1.557   1.567
 3619WAT    HW218093   1.581   1.663   1.674
 3619WAT    LP118094   1.545   1.691   1.544
 3619WAT    LP218095   1.464   1.639   1.607
 3620WAT     OW18096   1.550   4.898   4.723
 3620WAT    HW118097   1.526   4.808   4.747
 3620WAT    HW218098   1.600   4.930   4.798
 3620WAT    LP118099   1.589   4.899   4.665
 3620WAT    LP218100   1.493   4.937   4.714
 3621WAT     OW18101   1.786   6.204   1.037
 3621WAT    HW118102   1.809   6.279   0.983
 3621WAT    HW218103   1.700   6.226   1.073
 3621WAT    LP118104   1.782   6.146   0.998
 3621WAT    LP218105   1.833   6.194   1.088
 3622WAT     OW18106   5.771   4.615   3.908
 3622WAT    HW118107   5.678   4.633   3.920
 3622WAT    HW218108   5.774   4.551   3.837
 3622WAT    LP118109   5.805   4.674   3.889
 3622WAT    LP218110   5.800   4.590   3.966
 3623WAT     OW18111   4.089   2.356   2.550
 3623WAT    HW118112   4.104   2.428   2.489
 3623WAT    HW218113   3.993   2.350   2.556
 3623WAT    LP118114   4.115   2.296   2.524
 3623WAT    LP218115   4.117   2.369   2.612
 3624WAT     OW18116   4.242   1.240   4.587
 3624WAT    HW118117   4.185   1.208   4.656
 3624WAT    HW218118   4.223   1.334   4.581
 3624WAT    LP118119   4.309   1.230   4.604
 3624WAT    LP218120   4.228   1.209   4.526
 3625WAT     OW18121   4.598   5.499   1.073
 3625WAT    HW118122   4.516   5.529   1.034
 3625WAT    HW218123   4.666   5.531   1.015
 3625WAT    LP118124   4.606   5.525   1.137
 3625WAT    LP218125   4.599   5.429   1.076
 3626WAT     OW18126   5.708   4.394   3.268
 3626WAT    HW118127   5.688   4.334   3.196
 3626WAT    HW218128   5.683   4.480   3.235
 3626WAT    LP118129   5.670   4.377   3.325
 3626WAT    LP218130   5.776   4.392   3.284
 3627WAT     OW18131   3.599   2.367   2.897
 3627WAT    HW118132   3.588   2.372   2.992
 3627WAT    HW218133   3.555   2.445   2.864
 3627WAT    LP118134   3.667   2.367   2.880
 3627WAT    LP218135   3.569   2.309   2.872
 3628WAT     OW18136   3.980   0.687   1.286
 3628WAT    HW118137   3.964   0.594   1.303
 3628WAT    HW218138   3.901   0.718   1.243
 3628WAT    LP118139   3.991   0.722   1.346
 3628WAT    LP218140   4.036   0.695   1.244
 3629WAT     OW18141   6.202   1.341   3.371
 3629WAT    HW118142   6.206   1.322   3.277
 3629WAT    HW218143   6.257   1.418   3.382
 3629WAT    LP118144   6.136   1.355   3.390
 3629WAT    LP218145   6.226   1.287   3.408
 3630WAT     OW18146   2.266   4.534   5.619
 3630WAT    HW118147   2.346   4.556   5.667
 3630WAT    HW218148   2.297   4.505   5.533
 3630WAT    LP118149   2.230   4.483   5.651
 3630WAT    LP218150   2.225   4.591   5.612
 3631WAT     OW18151   0.872   3.811   3.962
 3631WAT    HW118152   0.961   3.846   3.968
 3631WAT    HW218153   0.870   3.762   3.880
 3631WAT    LP118154   0.858   3.769   4.016
 3631WAT    LP218155   0.825   3.863   3.960
 3632WAT     OW18156   4.234   5.469   2.870
 3632WAT    HW118157   4.304   5.533   2.858
 3632WAT    HW218158   4.279   5.389   2.898
 3632WAT    LP118159   4.189   5.491   2.919
 3632WAT    LP218160   4.200   5.459   2.810
 3633WAT     OW18161   2.419   0.621   0.250
 3633WAT    HW118162   2.472   0.690   0.290
 3633WAT    HW218163   2.331   0.635   0.285
 3633WAT    LP118164   2.419   0.626   0.181
 3633WAT    LP218165   2.443   0.558   0.269
 3634WAT     OW18166   3.093   5.637   2.388
 3634WAT    HW118167   3.139   5.667   2.467
 3634WAT    HW218168   3.059   5.717   2.349
 3634WAT    LP118169   3.137   5.605   2.344
 3634WAT    LP218170   3.041   5.594   2.405
 3635WAT     OW18171   6.761   5.771   0.199
 3635WAT    HW118172   6.827   5.757   0.132
 3635WAT    HW218173   6.794   5.846   0.249
 3635WAT    LP118174   6.699   5.786   0.170
 3635WAT    LP218175   6.754   5.715   0.240
 3636WAT     OW18176   4.324   5.636   2.396
 3636WAT    HW118177   4.375   5.645   2.315
 3636WAT    HW218178   4.390   5.635   2.466
 3636WAT    LP118179   4.281   5.690   2.404
 3636WAT    LP218180   4.288   5.576   2.395
 3637WAT     OW18181   6.321   6.334   0.205
 3637WAT    HW118182   6.365   6.251   0.191
 3637WAT    HW218183   6.279   6.324   0.291
 3637WAT    LP118184   6.367   6.387   0.207
 3637WAT    LP218185   6.273   6.346   0.155
 3638WAT     OW18186   4.284   6.310   5.875
 3638WAT    HW118187   4.373   6.344   5.879
 3638WAT    HW218188   4.229   6.385   5.852
 3638WAT    LP118189   4.279   6.260   5.827
 3638WAT    LP218190   4.264   6.284   5.938
 3639WAT     OW18191   5.514   2.981   0.772
 3639WAT    HW118192   5.537   3.071   0.797
 3639WAT    HW218193   5.486   2.988   0.681
 3639WAT    LP118194   5.569   2.939   0.778
 3639WAT    LP218195   5.461   2.957   0.812
 3640WAT     OW18196   1.426   3.849   1.100
 3640WAT    HW118197   1.331   3.843   1.096
 3640WAT    HW218198   1.443   3.924   1.157
 3640WAT    LP118199   1.453   3.790   1.127
 3640WAT    LP218200   1.453   3.860   1.036
 3641WAT     OW18201   5.973   4.304   5.144
 3641WAT    HW118202   5.884   4.277   5.121
 3641WAT    HW218203   6.026   4.225   5.134
 3641WAT    LP118204   5.995   4.355   5.101
 3641WAT    LP218205   5.975   4.327   5.210
 3642WAT     OW18206   3.914   1.348   5.491
 3642WAT    HW118207   3.857   1.397   5.432
 3642WAT    HW218208   3.860   1.276   5.523
 3642WAT    LP118209   3.971   1.324   5.457
 3642WAT    LP218210   3.935   1.389   5.544
 3643WAT     OW18211   4.095   4.643   1.003
 3643WAT    HW118212   4.029   4.711   0.994
 3643WAT    HW218213   4.175   4.689   1.027
 3643WAT    LP118214   4.077   4.597   1.053
 3643WAT    LP218215   4.104   4.609   0.942
 3644WAT     OW18216   1.224   1.908   2.507
 3644WAT    HW118217   1.295   1.844   2.510
 3644WAT    HW218218   1.159   1.868   2.449
 3644WAT    LP118219   1.197   1.919   2.570
 3644WAT    LP218220   1.247   1.969   2.480
 3645WAT     OW18221   5.317   5.596   3.499
 3645WAT    HW118222   5.243   5.540   3.475
 3645WAT    HW218223   5.347   5.561   3.583
 3645WAT    LP118224   5.368   5.592   3.451
 3645WAT    LP218225   5.297   5.662   3.506
 3646WAT     OW18226   5.526   6.000   6.450
 3646WAT    HW118227   5.549   5.922   6.401
 3646WAT    HW218228   5.448   6.035   6.406
 3646WAT    LP118229   5.511   5.984   6.517
 3646WAT    LP218230   5.578   6.047   6.449
 3647WAT     OW18231   3.916   4.719   6.488
 3647WAT    HW118232   3.859   4.766   6.428
 3647WAT    HW218233   3.950   4.788   6.547
 3647WAT    LP118234   3.880   4.672   6.525
 3647WAT    LP218235   3.969   4.688   6.454
 3648WAT     OW18236   2.824   0.691   4.369
 3648WAT    HW118237   2.833   0.599   4.346
 3648WAT    HW218238   2.765   0.727   4.303
 3648WAT    LP118239   2.797   0.699   4.434
 3648WAT    LP218240   2.887   0.723   4.367
 3649WAT     OW18241   4.265   0.487   6.033
 3649WAT    HW118242   4.291   0.511   5.944
 3649WAT    HW218243   4.291   0.395   6.041
 3649WAT    LP118244   4.299   0.526   6.080
 3649WAT    LP218245   4.196   0.494   6.041
 3650WAT     OW18246   1.815   5.454   5.727
 3650WAT    HW118247   1.877   5.402   5.779
 3650WAT    HW218248   1.742   5.394   5.710
 3650WAT    LP118249   1.793   5.510   5.764
 3650WAT    LP218250   1.844   5.476   5.668
 3651WAT     OW18251   0.850   6.548   1.913
 3651WAT    HW118252   0.803   6.516   1.835
 3651WAT    HW218253   0.858   6.642   1.898
 3651WAT    LP118254   0.813   6.534   1.971
 3651WAT    LP218255   0.913   6.518   1.917
 3652WAT     OW18256   1.746   6.457   4.842
 3652WAT    HW118257   1.685   6.384   4.837
 3652WAT    HW218258   1.721   6.504   4.921
 3652WAT    LP118259   1.812   6.434   4.846
 3652WAT    LP218260   1.740   6.499   4.785
 3653WAT     OW18261   5.576   1.007   4.872
 3653WAT    HW118262   5.638   0.966   4.933
 3653WAT    HW218263   5.629   1.070   4.823
 3653WAT    LP118264   5.549   0.959   4.828
 3653WAT    LP218265   5.524   1.039   4.906
 3654WAT     OW18266   5.061   6.649   1.583
 3654WAT    HW118267   5.117   6.610   1.649
 3654WAT    HW218268   5.101   6.624   1.500
 3654WAT    LP118269   4.996   6.624   1.588
 3654WAT    LP218270   5.059   6.719   1.590
 3655WAT     OW18271   1.789   1.846   2.829
 3655WAT    HW118272   1.805   1.867   2.921
 3655WAT    HW218273   1.797   1.751   2.824
 3655WAT    LP118274   1.724   1.866   2.810
 3655WAT    LP218275   1.836   1.878   2.788
 3656WAT     OW18276   1.666   2.837   5.274
 3656WAT    HW118277   1.749   2.790   5.272
 3656WAT    HW218278   1.686   2.919   5.319
 3656WAT    LP118279   1.643   2.849   5.209
 3656WAT    LP218280   1.618   2.800   5.309
 3657WAT     OW18281   1.294   2.006   2.055
 3657WAT    HW118282   1.314   2.093   2.021
 3657WAT    HW218283   1.325   1.946   1.988
 3657WAT    LP118284   1.327   1.995   2.116
 3657WAT    LP218285   1.225   1.998   2.064
 3658WAT     OW18286   5.947   4.476   3.533
 3658WAT    HW118287   5.970   4.385   3.513
 3658WAT    HW218288   6.016   4.505   3.593
 3658WAT    LP118289   5.948   4.515   3.474
 3658WAT    LP218290   5.884   4.480   3.563
 3659WAT     OW18291   3.132   2.759   1.515
 3659WAT    HW118292   3.163   2.783   1.428
 3659WAT    HW218293   3.045   2.798   1.522
 3659WAT    LP118294   3.129   2.689   1.522
 3659WAT    LP218295   3.175   2.785   1.564
 3660WAT     OW18296   3.422   4.334   0.526
 3660WAT    HW118297   3.468   4.261   0.568
 3660WAT    HW218298   3.343   4.294   0.489
 3660WAT    LP118299   3.406   4.383   0.573
 3660WAT    LP218300   3.461   4.362   0.475
 3661WAT     OW18301   5.146   6.613   1.323
 3661WAT    HW118302   5.165   6.523   1.297
 3661WAT    HW218303   5.215   6.664   1.281
 3661WAT    LP118304   5.083   6.632   1.299
 3661WAT    LP218305   5.148   6.620   1.392
 3662WAT     OW18306   2.848   3.674   3.294
 3662WAT    HW118307   2.896   3.718   3.224
 3662WAT    HW218308   2.888   3.708   3.375
 3662WAT    LP118309   2.780   3.690   3.292
 3662WAT    LP218310   2.856   3.605   3.290
 3663WAT     OW18311   0.283   4.282   0.100
 3663WAT    HW118312   0.284   4.279   0.196
 3663WAT    HW218313   0.256   4.372   0.080
 3663WAT    LP118314   0.346   4.269   0.074
 3663WAT    LP218315   0.237   4.236   0.075
 3664WAT     OW18316   1.167   3.487   5.074
 3664WAT    HW118317   1.118   3.534   5.006
 3664WAT    HW218318   1.211   3.416   5.028
 3664WAT    LP118319   1.213   3.529   5.105
 3664WAT    LP218320   1.123   3.462   5.123
 3665WAT     OW18321   4.282   2.806   3.017
 3665WAT    HW118322   4.373   2.820   2.991
 3665WAT    HW218323   4.285   2.727   3.071
 3665WAT    LP118324   4.258   2.860   3.055
 3665WAT    LP218325   4.241   2.797   2.961
 3666WAT     OW18326   6.629   6.424   3.334
 3666WAT    HW118327   6.593   6.436   3.422
 3666WAT    HW218328   6.717   6.389   3.349
 3666WAT    LP118329   6.591   6.378   3.297
 3666WAT    LP218330   6.632   6.485   3.300
 3667WAT     OW18331   1.611   4.860   1.343
 3667WAT    HW118332   1.615   4.892   1.253
 3667WAT    HW218333   1.652   4.774   1.340
 3667WAT    LP118334   1.647   4.903   1.386
 3667WAT    LP218335   1.545   4.856   1.365
 3668WAT     OW18336   0.745   0.327   0.971
 3668WAT    HW118337   0.807   0.258   0.992
 3668WAT    HW218338   0.732   0.374   1.054
 3668WAT    LP118339   0.772   0.370   0.923
 3668WAT    LP218340   0.685   0.301   0.947
 3669WAT     OW18341   2.290   5.635   2.789
 3669WAT    HW118342   2.299   5.549   2.831
 3669WAT    HW218343   2.198   5.657   2.800
 3669WAT    LP118344   2.331   5.682   2.821
 3669WAT    LP218345   2.307   5.631   2.721
 3670WAT     OW18346   2.313   2.954   0.253
 3670WAT    HW118347   2.387   3.010   0.229
 3670WAT    HW218348   2.261   3.008   0.313
 3670WAT    LP118349   2.276   2.937   0.197
 3670WAT    LP218350   2.336   2.896   0.285
 3671WAT     OW18351   0.945   4.374   0.660
 3671WAT    HW118352   0.992   4.319   0.597
 3671WAT    HW218353   0.965   4.335   0.745
 3671WAT    LP118354   0.968   4.440   0.658
 3671WAT    LP218355   0.876   4.373   0.648
 3672WAT     OW18356   1.094   4.771   2.850
 3672WAT    HW118357   1.160   4.703   2.837
 3672WAT    HW218358   1.140   4.853   2.834
 3672WAT    LP118359   1.041   4.763   2.805
 3672WAT    LP218360   1.069   4.769   2.915
 3673WAT     OW18361   6.535   2.885   5.749
 3673WAT    HW118362   6.507   2.931   5.670
 3673WAT    HW218363   6.630   2.890   5.748
 3673WAT    LP118364   6.509   2.916   5.806
 3673WAT    LP218365   6.514   2.818   5.747
 3674WAT     OW18366   1.732   1.142   2.582
 3674WAT    HW118367   1.713   1.048   2.591
 3674WAT    HW218368   1.828   1.146   2.575
 3674WAT    LP118369   1.702   1.167   2.524
 3674WAT    LP218370   1.709   1.177   2.638
 3675WAT     OW18371   4.300   1.913   5.134
 3675WAT    HW118372   4.394   1.932   5.136
 3675WAT    HW218373   4.295   1.822   5.103
 3675WAT    LP118374   4.272   1.918   5.198
 3675WAT    LP218375   4.267   1.956   5.090
 3676WAT     OW18376   5.430   2.809   6.232
 3676WAT    HW118377   5.441   2.834   6.140
 3676WAT    HW218378   5.345   2.763   6.234
 3676WAT    LP118379   5.481   2.766   6.253
 3676WAT    LP218380   5.428   2.865   6.273
 3677WAT     OW18381   3.272   5.676   0.057
 3677WAT    HW118382   3.272   5.756   0.109
 3677WAT    HW218383   3.302   5.608   0.118
 3677WAT    LP118384   3.208   5.661   0.034
 3677WAT    LP218385   3.316   5.681   0.003
 3678WAT     OW18386   6.731   6.480   0.040
 3678WAT    HW118387   6.718   6.397  -0.006
 3678WAT    HW218388   6.680   6.544  -0.008
 3678WAT    LP118389   6.708   6.475   0.106
 3678WAT    LP218390   6.799   6.497   0.040
 3679WAT     OW18391   2.027   3.125   1.978
 3679WAT    HW118392   1.945   3.116   1.929
 3679WAT    HW218393   2.090   3.071   1.929
 3679WAT    LP118394   2.048   3.192   1.979
 3679WAT    LP218395   2.019   3.101   2.043
 3680WAT     OW18396   5.872   3.966   0.162
 3680WAT    HW118397   5.828   4.051   0.166
 3680WAT    HW218398   5.965   3.987   0.157
 3680WAT    LP118399   5.858   3.928   0.219
 3680WAT    LP218400   5.852   3.930   0.105
 3681WAT     OW18401   6.060   3.732   2.307
 3681WAT    HW118402   6.055   3.827   2.312
 3681WAT    HW218403   6.024   3.711   2.221
 3681WAT    LP118404   6.126   3.710   2.311
 3681WAT    LP218405   6.022   3.702   2.357
 3682WAT     OW18406   6.591   3.850   2.419
 3682WAT    HW118407   6.545   3.902   2.353
 3682WAT    HW218408   6.582   3.901   2.500
 3682WAT    LP118409   6.561   3.787   2.426
 3682WAT    LP218410   6.658   3.842   2.402
 3683WAT     OW18411   3.409   4.303   3.283
 3683WAT    HW118412   3.357   4.324   3.361
 3683WAT    HW218413   3.380   4.215   3.258
 3683WAT    LP118414   3.396   4.348   3.232
 3683WAT    LP218415   3.477   4.303   3.298
 3684WAT     OW18416   0.498   0.445   3.432
 3684WAT    HW118417   0.477   0.371   3.375
 3684WAT    HW218418   0.518   0.404   3.516
 3684WAT    LP118419   0.553   0.480   3.407
 3684WAT    LP218420   0.444   0.488   3.438
 3685WAT     OW18421   4.072   1.132   4.807
 3685WAT    HW118422   4.055   1.054   4.754
 3685WAT    HW218423   3.993   1.143   4.859
 3685WAT    LP118424   4.128   1.122   4.848
 3685WAT    LP218425   4.083   1.188   4.766
 3686WAT     OW18426   0.178   6.526   3.507
 3686WAT    HW118427   0.130   6.603   3.537
 3686WAT    HW218428   0.179   6.467   3.582
 3686WAT    LP118429   0.146   6.497   3.452
 3686WAT    LP218430   0.244   6.544   3.488
 3687WAT     OW18431   2.320   2.169   4.898
 3687WAT    HW118432   2.307   2.258   4.865
 3687WAT    HW218433   2.256   2.117   4.850
 3687WAT    LP118434   2.385   2.147   4.886
 3687WAT    LP218435   2.306   2.167   4.967
 3688WAT     OW18436   6.730   0.947   1.820
 3688WAT    HW118437   6.794   0.906   1.879
 3688WAT    HW218438   6.672   0.996   1.877
 3688WAT    LP118439   6.762   0.989   1.775
 3688WAT    LP218440   6.695   0.898   1.784
 3689WAT     OW18441   1.766   1.694   5.472
 3689WAT    HW118442   1.861   1.688   5.469
 3689WAT    HW218443   1.743   1.754   5.400
 3689WAT    LP118444   1.737   1.631   5.462
 3689WAT    LP218445   1.744   1.720   5.533
 3690WAT     OW18446   1.076   4.647   4.224
 3690WAT    HW118447   1.159   4.606   4.250
 3690WAT    HW218448   1.088   4.739   4.245
 3690WAT    LP118449   1.065   4.638   4.155
 3690WAT    LP218450   1.023   4.620   4.260
 3691WAT     OW18451   0.005   0.165   1.282
 3691WAT    HW118452  -0.067   0.187   1.225
 3691WAT    HW218453  -0.027   0.092   1.335
 3691WAT    LP118454   0.062   0.146   1.245
 3691WAT    LP218455   0.022   0.220   1.323
 3692WAT     OW18456   6.245   0.278   3.736
 3692WAT    HW118457   6.320   0.337   3.740
 3692WAT    HW218458   6.195   0.308   3.660
 3692WAT    LP118459   6.266   0.212   3.727
 3692WAT    LP218460   6.206   0.283   3.794
 3693WAT     OW18461   3.567   4.190   2.730
 3693WAT    HW118462   3.607   4.272   2.758
 3693WAT    HW218463   3.543   4.145   2.811
 3693WAT    LP118464   3.510   4.202   2.691
 3693WAT    LP218465   3.613   4.151   2.693
 3694WAT     OW18466   3.768   6.090   5.299
 3694WAT    HW118467   3.814   6.174   5.295
 3694WAT    HW218468   3.817   6.039   5.364
 3694WAT    LP118469   3.702   6.099   5.319
 3694WAT    LP218470   3.769   6.058   5.237
 3695WAT     OW18471   3.790   3.640   4.206
 3695WAT    HW118472   3.727   3.585   4.254
 3695WAT    HW218473   3.824   3.701   4.271
 3695WAT    LP118474   3.841   3.600   4.179
 3695WAT    LP218475   3.758   3.674   4.154
 3696WAT     OW18476   1.402   2.655   0.013
 3696WAT    HW118477   1.346   2.658  -0.064
 3696WAT    HW218478   1.367   2.582   0.065
 3696WAT    LP118479   1.468   2.643  -0.005
 3696WAT    LP218480   1.398   2.715   0.049
 3697WAT     OW18481   3.347   4.302   1.452
 3697WAT    HW118482   3.334   4.298   1.358
 3697WAT    HW218483   3.376   4.392   1.469
 3697WAT    LP118484   3.288   4.288   1.486
 3697WAT    LP218485   3.397   4.256   1.472
 3698WAT     OW18486   4.528   0.381   1.016
 3698WAT    HW118487   4.604   0.381   1.074
 3698WAT    HW218488   4.509   0.289   1.001
 3698WAT    LP118489   4.474   0.414   1.046
 3698WAT    LP218490   4.544   0.413   0.955
 3699WAT     OW18491   1.439   3.012   4.352
 3699WAT    HW118492   1.509   2.946   4.354
 3699WAT    HW218493   1.486   3.095   4.342
 3699WAT    LP118494   1.397   3.001   4.297
 3699WAT    LP218495   1.402   3.011   4.411
 3700WAT     OW18496   0.221   6.384   6.118
 3700WAT    HW118497   0.228   6.395   6.024
 3700WAT    HW218498   0.205   6.291   6.131
 3700WAT    LP118499   0.280   6.404   6.150
 3700WAT    LP218500   0.168   6.422   6.144
 3701WAT     OW18501   1.248   5.442   2.817
 3701WAT    HW118502   1.262   5.472   2.907
 3701WAT    HW218503   1.183   5.501   2.781
 3701WAT    LP118504   1.308   5.446   2.781
 3701WAT    LP218505   1.225   5.376   2.817
 3702WAT     OW18506   0.459   6.679   3.668
 3702WAT    HW118507   0.382   6.726   3.637
 3702WAT    HW218508   0.461   6.695   3.762
 3702WAT    LP118509   0.453   6.610   3.655
 3702WAT    LP218510   0.517   6.703   3.637
 3703WAT     OW18511   2.540   3.165   2.316
 3703WAT    HW118512   2.471   3.226   2.290
 3703WAT    HW218513   2.519   3.084   2.271
 3703WAT    LP118514   2.603   3.189   2.297
 3703WAT    LP218515   2.540   3.156   2.386
 3704WAT     OW18516   4.378   3.398   1.241
 3704WAT    HW118517   4.414   3.435   1.321
 3704WAT    HW218518   4.429   3.318   1.226
 3704WAT    LP118519   4.310   3.382   1.249
 3704WAT    LP218520   4.385   3.442   1.187
 3705WAT     OW18521   3.888   3.942   4.971
 3705WAT    HW118522   3.932   4.015   5.015
 3705WAT    HW218523   3.955   3.873   4.966
 3705WAT    LP118524   3.833   3.920   5.008
 3705WAT    LP218525   3.868   3.960   4.906
 3706WAT     OW18526   0.966   5.635   1.042
 3706WAT    HW118527   0.948   5.586   1.122
 3706WAT    HW218528   0.930   5.580   0.972
 3706WAT    LP118529   0.934   5.698   1.043
 3706WAT    LP218530   1.035   5.644   1.033
 3707WAT     OW18531   6.708   1.752   2.354
 3707WAT    HW118532   6.747   1.667   2.335
 3707WAT    HW218533   6.627   1.754   2.302
 3707WAT    LP118534   6.693   1.758   2.422
 3707WAT    LP218535   6.751   1.804   2.334
 3708WAT     OW18536   6.523   0.168   4.855
 3708WAT    HW118537   6.557   0.255   4.836
 3708WAT    HW218538   6.431   0.181   4.877
 3708WAT    LP118539   6.529   0.126   4.799
 3708WAT    LP218540   6.558   0.139   4.909
 3709WAT     OW18541   2.524   5.809   2.110
 3709WAT    HW118542   2.477   5.755   2.046
 3709WAT    HW218543   2.511   5.764   2.194
 3709WAT    LP118544   2.592   5.812   2.094
 3709WAT    LP218545   2.497   5.873   2.113
 3710WAT     OW18546   5.362   6.517   2.182
 3710WAT    HW118547   5.443   6.527   2.132
 3710WAT    HW218548   5.344   6.604   2.218
 3710WAT    LP118549   5.309   6.496   2.140
 3710WAT    LP218550   5.370   6.470   2.233
 3711WAT     OW18551   2.157   2.051   2.917
 3711WAT    HW118552   2.096   2.032   2.846
 3711WAT    HW218553   2.133   1.990   2.986
 3711WAT    LP118554   2.223   2.041   2.897
 3711WAT    LP218555   2.150   2.117   2.939
 3712WAT     OW18556   0.492   5.253   3.627
 3712WAT    HW118557   0.527   5.299   3.551
 3712WAT    HW218558   0.453   5.322   3.681
 3712WAT    LP118559   0.443   5.206   3.607
 3712WAT    LP218560   0.543   5.219   3.662
 3713WAT     OW18561   4.007   2.517   5.053
 3713WAT    HW118562   4.094   2.522   5.014
 3713WAT    HW218563   4.000   2.426   5.084
 3713WAT    LP118564   4.002   2.561   5.107
 3713WAT    LP218565   3.957   2.531   5.006
 3714WAT     OW18566   3.065   3.685   6.402
 3714WAT    HW118567   3.084   3.600   6.442
 3714WAT    HW218568   3.038   3.740   6.475
 3714WAT    LP118569   3.123   3.710   6.371
 3714WAT    LP218570   3.014   3.679   6.354
 3715WAT     OW18571   0.275   3.269   2.616
 3715WAT    HW118572   0.357   3.293   2.657
 3715WAT    HW218573   0.221   3.349   2.620
 3715WAT    LP118574   0.285   3.250   2.549
 3715WAT    LP218575   0.244   3.217   2.651
 3716WAT     OW18576   6.378   1.298   4.158
 3716WAT    HW118577   6.319   1.370   4.182
 3716WAT    HW218578   6.410   1.323   4.071
 3716WAT    LP118579   6.431   1.293   4.203
 3716WAT    LP218580   6.343   1.237   4.155
 3717WAT     OW18581   1.630   4.201   0.315
 3717WAT    HW118582   1.593   4.114   0.331
 3717WAT    HW218583   1.565   4.262   0.349
 3717WAT    LP118584   1.691   4.209   0.349
 3717WAT    LP218585   1.640   4.211   0.247
 3718WAT     OW18586   1.212   0.662   2.434
 3718WAT    HW118587   1.290   0.623   2.392
 3718WAT    HW218588   1.144   0.596   2.423
 3718WAT    LP118589   1.225   0.675   2.501
 3718WAT    LP218590   1.194   0.721   2.402
 3719WAT     OW18591   3.934   0.208   6.221
 3719WAT    HW118592   3.962   0.293   6.187
 3719WAT    HW218593   3.838   0.211   6.217
 3719WAT    LP118594   3.958   0.156   6.180
 3719WAT    LP218595   3.956   0.199   6.286
 3720WAT     OW18596   2.837   1.179   4.855
 3720WAT    HW118597   2.812   1.149   4.943
 3720WAT    HW218598   2.834   1.100   4.801
 3720WAT    LP118599   2.792   1.227   4.832
 3720WAT    LP218600   2.902   1.206   4.856
 3721WAT     OW18601   1.791   2.399   3.090
 3721WAT    HW118602   1.817   2.394   2.998
 3721WAT    HW218603   1.790   2.308   3.119
 3721WAT    LP118604   1.836   2.437   3.127
 3721WAT    LP218605   1.727   2.427   3.096
 3722WAT     OW18606   4.536   6.528   6.334
 3722WAT    HW118607   4.482   6.551   6.259
 3722WAT    HW218608   4.475   6.520   6.407
 3722WAT    LP118609   4.569   6.467   6.323
 3722WAT    LP218610   4.584   6.578   6.346
 3723WAT     OW18611   3.872   6.344   5.312
 3723WAT    HW118612   3.958   6.347   5.269
 3723WAT    HW218613   3.880   6.406   5.384
 3723WAT    LP118614   3.821   6.363   5.268
 3723WAT    LP218615   3.859   6.280   5.336
 3724WAT     OW18616   0.636   6.545   4.258
 3724WAT    HW118617   0.545   6.564   4.279
 3724WAT    HW218618   0.686   6.579   4.333
 3724WAT    LP118619   0.647   6.476   4.251
 3724WAT    LP218620   0.655   6.578   4.199
 3725WAT     OW18621   0.399   6.638   4.368
 3725WAT    HW118622   0.422   6.620   4.459
 3725WAT    HW218623   0.306   6.614   4.361
 3725WAT    LP118624   0.408   6.705   4.352
 3725WAT    LP218625   0.438   6.598   4.325
 3726WAT     OW18626   5.097   5.315   0.964
 3726WAT    HW118627   5.024   5.333   0.906
 3726WAT    HW218628   5.175   5.337   0.913
 3726WAT    LP118629   5.093   5.354   1.022
 3726WAT    LP218630   5.098   5.247   0.982
 3727WAT     OW18631   4.531   4.387   1.080
 3727WAT    HW118632   4.582   4.314   1.116
 3727WAT    HW218633   4.504   4.357   0.993
 3727WAT    LP118634   4.475   4.399   1.120
 3727WAT    LP218635   4.569   4.445   1.076
 3728WAT     OW18636   2.338   3.103   5.394
 3728WAT    HW118637   2.254   3.143   5.415
 3728WAT    HW218638   2.395   3.127   5.467
 3728WAT    LP118639   2.332   3.033   5.390
 3728WAT    LP218640   2.363   3.128   5.334
 3729WAT     OW18641   2.825   3.160   0.571
 3729WAT    HW118642   2.742   3.133   0.610
 3729WAT    HW218643   2.861   3.224   0.633
 3729WAT    LP118644   2.868   3.105   0.564
 3729WAT    LP218645   2.815   3.189   0.508
 3730WAT     OW18646   6.593   5.025   3.483
 3730WAT    HW118647   6.654   4.953   3.467
 3730WAT    HW218648   6.577   5.023   3.577
 3730WAT    LP118649   6.623   5.086   3.464
 3730WAT    LP218650   6.534   5.016   3.447
 3731WAT     OW18651   2.768   3.711   0.426
 3731WAT    HW118652   2.843   3.707   0.366
 3731WAT    HW218653   2.798   3.769   0.497
 3731WAT    LP118654   2.712   3.738   0.394
 3731WAT    LP218655   2.753   3.648   0.450
 3732WAT     OW18656   5.085   6.502   4.736
 3732WAT    HW118657   5.131   6.422   4.763
 3732WAT    HW218658   4.993   6.476   4.733
 3732WAT    LP118659   5.095   6.553   4.783
 3732WAT    LP218660   5.107   6.523   4.673
 3733WAT     OW18661   5.650   2.644   4.000
 3733WAT    HW118662   5.618   2.584   4.066
 3733WAT    HW218663   5.681   2.587   3.929
 3733WAT    LP118664   5.599   2.686   3.977
 3733WAT    LP218665   5.703   2.683   4.025
 3734WAT     OW18666   1.900   5.609   3.410
 3734WAT    HW118667   1.931   5.616   3.320
 3734WAT    HW218668   1.846   5.687   3.424
 3734WAT    LP118669   1.862   5.551   3.419
 3734WAT    LP218670   1.954   5.608   3.455
 3735WAT     OW18671   2.299   0.718   5.778
 3735WAT    HW118672   2.302   0.630   5.815
 3735WAT    HW218673   2.233   0.712   5.708
 3735WAT    LP118674   2.279   0.765   5.826
 3735WAT    LP218675   2.361   0.737   5.752
 3736WAT     OW18676   4.578   3.818   5.359
 3736WAT    HW118677   4.500   3.854   5.317
 3736WAT    HW218678   4.614   3.757   5.295
 3736WAT    LP118679   4.624   3.869   5.372
 3736WAT    LP218680   4.562   3.785   5.418
 3737WAT     OW18681   2.563   2.376   5.727
 3737WAT    HW118682   2.622   2.354   5.799
 3737WAT    HW218683   2.606   2.342   5.649
 3737WAT    LP118684   2.500   2.346   5.736
 3737WAT    LP218685   2.554   2.445   5.722
 3738WAT     OW18686   0.345   4.823   3.131
 3738WAT    HW118687   0.387   4.830   3.045
 3738WAT    HW218688   0.310   4.734   3.134
 3738WAT    LP118689   0.391   4.834   3.182
 3738WAT    LP218690   0.293   4.870   3.137
 3739WAT     OW18691   2.424   1.938   3.604
 3739WAT    HW118692   2.432   1.958   3.697
 3739WAT    HW218693   2.349   1.989   3.574
 3739WAT    LP118694   2.482   1.957   3.569
 3739WAT    LP218695   2.413   1.870   3.594
 3740WAT     OW18696   5.852   1.129   6.192
 3740WAT    HW118697   5.868   1.180   6.271
 3740WAT    HW218698   5.762   1.149   6.167
 3740WAT    LP118699   5.896   1.148   6.141
 3740WAT    LP218700   5.860   1.060   6.204
 3741WAT     OW18701   0.785   3.688   2.273
 3741WAT    HW118702   0.738   3.762   2.235
 3741WAT    HW218703   0.739   3.611   2.238
 3741WAT    LP118704   0.852   3.688   2.252
 3741WAT    LP218705   0.782   3.689   2.343
 3742WAT     OW18706   6.282   5.876   0.398
 3742WAT    HW118707   6.232   5.923   0.332
 3742WAT    HW218708   6.218   5.824   0.445
 3742WAT    LP118709   6.330   5.835   0.368
 3742WAT    LP218710   6.314   5.921   0.441
 3743WAT     OW18711   1.924   2.383   1.089
 3743WAT    HW118712   1.894   2.334   1.166
 3743WAT    HW218713   2.019   2.379   1.093
 3743WAT    LP118714   1.900   2.353   1.030
 3743WAT    LP218715   1.902   2.449   1.092
 3744WAT     OW18716   0.952   4.540   6.527
 3744WAT    HW118717   0.958   4.634   6.542
 3744WAT    HW218718   0.938   4.531   6.433
 3744WAT    LP118719   1.012   4.509   6.546
 3744WAT    LP218720   0.899   4.512   6.563
 3745WAT     OW18721   2.241   5.129   4.441
 3745WAT    HW118722   2.253   5.136   4.346
 3745WAT    HW218723   2.193   5.046   4.453
 3745WAT    LP118724   2.303   5.126   4.474
 3745WAT    LP218725   2.203   5.182   4.466
 3746WAT     OW18726   2.101   1.026   5.531
 3746WAT    HW118727   2.023   1.003   5.581
 3746WAT    HW218728   2.069   1.041   5.442
 3746WAT    LP118729   2.131   1.084   5.557
 3746WAT    LP218730   2.148   0.974   5.533
 3747WAT     OW18731   2.195   5.025   0.412
 3747WAT    HW118732   2.104   5.041   0.436
 3747WAT    HW218733   2.191   4.954   0.347
 3747WAT    LP118734   2.224   5.082   0.384
 3747WAT    LP218735   2.232   5.005   0.468
 3748WAT     OW18736   3.141   3.958   1.631
 3748WAT    HW118737   3.209   3.973   1.696
 3748WAT    HW218738   3.109   3.870   1.649
 3748WAT    LP118739   3.090   4.005   1.638
 3748WAT    LP218740   3.167   3.962   1.566
 3749WAT     OW18741   3.773   2.047   0.420
 3749WAT    HW118742   3.788   1.984   0.491
 3749WAT    HW218743   3.814   2.128   0.451
 3749WAT    LP118744   3.803   2.024   0.361
 3749WAT    LP218745   3.705   2.056   0.409
 3750WAT     OW18746   4.506   4.119   2.708
 3750WAT    HW118747   4.540   4.208   2.702
 3750WAT    HW218748   4.580   4.067   2.738
 3750WAT    LP118749   4.453   4.116   2.753
 3750WAT    LP218750   4.484   4.097   2.645
 3751WAT     OW18751   3.484   4.963   1.209
 3751WAT    HW118752   3.407   5.012   1.179
 3751WAT    HW218753   3.524   5.021   1.275
 3751WAT    LP118754   3.464   4.903   1.238
 3751WAT    LP218755   3.528   4.951   1.157
 3752WAT     OW18756   6.587   3.060   3.963
 3752WAT    HW118757   6.504   3.108   3.967
 3752WAT    HW218758   6.593   3.030   3.872
 3752WAT    LP118759   6.641   3.103   3.978
 3752WAT    LP218760   6.587   3.006   4.007
 3753WAT     OW18761   6.589   0.877   5.391
 3753WAT    HW118762   6.516   0.931   5.422
 3753WAT    HW218763   6.646   0.868   5.467
 3753WAT    LP118764   6.566   0.814   5.370
 3753WAT    LP218765   6.622   0.909   5.338
 3754WAT     OW18766   0.013   1.254   4.173
 3754WAT    HW118767   0.076   1.187   4.201
 3754WAT    HW218768  -0.066   1.232   4.223
 3754WAT    LP118769   0.035   1.318   4.189
 3754WAT    LP218770   0.001   1.250   4.105
 3755WAT     OW18771   0.187   3.880   6.532
 3755WAT    HW118772   0.245   3.893   6.457
 3755WAT    HW218773   0.110   3.837   6.495
 3755WAT    LP118774   0.217   3.840   6.580
 3755WAT    LP218775   0.169   3.941   6.561
 3756WAT     OW18776   5.640   1.165   4.501
 3756WAT    HW118777   5.665   1.194   4.588
 3756WAT    HW218778   5.544   1.168   4.500
 3756WAT    LP118779   5.666   1.208   4.452
 3756WAT    LP218780   5.663   1.100   4.489
 3757WAT     OW18781   0.598   0.656   4.097
 3757WAT    HW118782   0.602   0.572   4.143
 3757WAT    HW218783   0.505   0.676   4.092
 3757WAT    LP118784   0.632   0.705   4.134
 3757WAT    LP218785   0.626   0.651   4.034
 3758WAT     OW18786   5.387   3.641   1.522
 3758WAT    HW118787   5.409   3.556   1.484
 3758WAT    HW218788   5.360   3.620   1.612
 3758WAT    LP118789   5.442   3.683   1.522
 3758WAT    LP218790   5.334   3.671   1.487
 3759WAT     OW18791   5.860   4.853   6.383
 3759WAT    HW118792   5.906   4.937   6.386
 3759WAT    HW218793   5.827   4.847   6.293
 3759WAT    LP118794   5.903   4.800   6.397
 3759WAT    LP218795   5.806   4.853   6.429
 3760WAT     OW18796   1.784   1.818   0.621
 3760WAT    HW118797   1.712   1.881   0.615
 3760WAT    HW218798   1.796   1.805   0.715
 3760WAT    LP118799   1.766   1.758   0.590
 3760WAT    LP218800   1.842   1.843   0.592
 3761WAT     OW18801   2.092   6.279   0.279
 3761WAT    HW118802   2.080   6.361   0.230
 3761WAT    HW218803   2.150   6.303   0.351
 3761WAT    LP118804   2.031   6.256   0.303
 3761WAT    LP218805   2.122   6.230   0.238
 3762WAT     OW18806   1.343   2.216   4.027
 3762WAT    HW118807   1.312   2.273   3.957
 3762WAT    HW218808   1.352   2.130   3.986
 3762WAT    LP118809   1.405   2.238   4.051
 3762WAT    LP218810   1.297   2.214   4.079
 3763WAT     OW18811   5.526   2.594   3.128
 3763WAT    HW118812   5.467   2.590   3.203
 3763WAT    HW218813   5.569   2.680   3.137
 3763WAT    LP118814   5.574   2.543   3.131
 3763WAT    LP218815   5.491   2.591   3.068
 3764WAT     OW18816   0.278   0.524   5.595
 3764WAT    HW118817   0.282   0.428   5.591
 3764WAT    HW218818   0.198   0.547   5.547
 3764WAT    LP118819   0.274   0.546   5.662
 3764WAT    LP218820   0.334   0.552   5.565
 3765WAT     OW18821   2.624   2.124   2.944
 3765WAT    HW118822   2.708   2.113   2.988
 3765WAT    HW218823   2.561   2.080   3.001
 3765WAT    LP118824   2.608   2.192   2.937
 3765WAT    LP218825   2.625   2.094   2.880
 3766WAT     OW18826   6.634   5.068   5.227
 3766WAT    HW118827   6.594   5.067   5.140
 3766WAT    HW218828   6.657   4.977   5.244
 3766WAT    LP118829   6.691   5.108   5.228
 3766WAT    LP218830   6.589   5.091   5.275
 3767WAT     OW18831   4.858   4.129   6.269
 3767WAT    HW118832   4.898   4.138   6.182
 3767WAT    HW218833   4.932   4.115   6.328
 3767WAT    LP118834   4.823   4.188   6.286
 3767WAT    LP218835   4.814   4.075   6.270
 3768WAT     OW18836   2.944   1.429   4.552
 3768WAT    HW118837   2.984   1.514   4.536
 3768WAT    HW218838   2.946   1.384   4.468
 3768WAT    LP118839   2.981   1.393   4.600
 3768WAT    LP218840   2.878   1.437   4.575
 3769WAT     OW18841   4.746   4.905   5.221
 3769WAT    HW118842   4.705   4.991   5.208
 3769WAT    HW218843   4.799   4.916   5.300
 3769WAT    LP118844   4.698   4.855   5.230
 3769WAT    LP218845   4.787   4.889   5.166
 3770WAT     OW18846   5.752   0.681   6.565
 3770WAT    HW118847   5.673   0.643   6.602
 3770WAT    HW218848   5.823   0.643   6.618
 3770WAT    LP118849   5.759   0.664   6.498
 3770WAT    LP218850   5.751   0.751   6.572
 3771WAT     OW18851   0.222   4.375   5.897
 3771WAT    HW118852   0.219   4.302   5.959
 3771WAT    HW218853   0.226   4.453   5.952
 3771WAT    LP118854   0.279   4.370   5.856
 3771WAT    LP218855   0.165   4.375   5.857
 3772WAT     OW18856   0.198   4.302   1.326
 3772WAT    HW118857   0.195   4.208   1.307
 3772WAT    HW218858   0.177   4.344   1.242
 3772WAT    LP118859   0.150   4.319   1.375
 3772WAT    LP218860   0.262   4.321   1.348
 3773WAT     OW18861   1.222   3.487   0.780
 3773WAT    HW118862   1.289   3.419   0.789
 3773WAT    HW218863   1.201   3.512   0.870
 3773WAT    LP118864   1.246   3.541   0.744
 3773WAT    LP218865   1.165   3.461   0.748
 3774WAT     OW18866   5.714   3.222   3.056
 3774WAT    HW118867   5.657   3.261   3.123
 3774WAT    HW218868   5.775   3.168   3.106
 3774WAT    LP118869   5.677   3.183   3.012
 3774WAT    LP218870   5.748   3.272   3.021
 3775WAT     OW18871   5.828   3.097   3.278
 3775WAT    HW118872   5.751   3.082   3.332
 3775WAT    HW218873   5.879   3.016   3.285
 3775WAT    LP118874   5.810   3.109   3.211
 3775WAT    LP218875   5.865   3.151   3.302
 3776WAT     OW18876   5.222   0.527   6.348
 3776WAT    HW118877   5.227   0.537   6.444
 3776WAT    HW218878   5.313   0.521   6.320
 3776WAT    LP118879   5.186   0.470   6.331
 3776WAT    LP218880   5.191   0.583   6.320
 3777WAT     OW18881   4.752   3.506   1.110
 3777WAT    HW118882   4.767   3.472   1.198
 3777WAT    HW218883   4.695   3.581   1.123
 3777WAT    LP118884   4.812   3.525   1.080
 3777WAT    LP218885   4.720   3.457   1.070
 3778WAT     OW18886   2.226   0.045   2.097
 3778WAT    HW118887   2.193   0.135   2.093
 3778WAT    HW218888   2.305   0.051   2.150
 3778WAT    LP118889   2.179   0.002   2.127
 3778WAT    LP218890   2.241   0.022   2.032
 3779WAT     OW18891   1.364   3.088   6.166
 3779WAT    HW118892   1.430   3.158   6.166
 3779WAT    HW218893   1.395   3.025   6.230
 3779WAT    LP118894   1.301   3.113   6.184
 3779WAT    LP218895   1.359   3.059   6.102
 3780WAT     OW18896   1.047   6.317   3.097
 3780WAT    HW118897   1.103   6.240   3.108
 3780WAT    HW218898   0.981   6.308   3.165
 3780WAT    LP118899   1.084   6.376   3.106
 3780WAT    LP218900   1.017   6.318   3.034
 3781WAT     OW18901   2.186   3.554   4.549
 3781WAT    HW118902   2.273   3.580   4.579
 3781WAT    HW218903   2.182   3.584   4.458
 3781WAT    LP118904   2.179   3.484   4.552
 3781WAT    LP218905   2.137   3.584   4.587
 3782WAT     OW18906   2.154   0.211   4.475
 3782WAT    HW118907   2.135   0.118   4.488
 3782WAT    HW218908   2.071   0.255   4.492
 3782WAT    LP118909   2.203   0.232   4.520
 3782WAT    LP218910   2.176   0.223   4.410
 3783WAT     OW18911   6.543   3.585   2.475
 3783WAT    HW118912   6.559   3.676   2.450
 3783WAT    HW218913   6.448   3.574   2.465
 3783WAT    LP118914   6.577   3.541   2.433
 3783WAT    LP218915   6.562   3.575   2.541
 3784WAT     OW18916   5.055   1.737   4.403
 3784WAT    HW118917   4.961   1.750   4.413
 3784WAT    HW218918   5.094   1.816   4.441
 3784WAT    LP118919   5.075   1.680   4.438
 3784WAT    LP218920   5.072   1.731   4.336
 3785WAT     OW18921   5.079   1.918   1.788
 3785WAT    HW118922   5.000   1.869   1.815
 3785WAT    HW218923   5.045   1.993   1.740
 3785WAT    LP118924   5.115   1.939   1.844
 3785WAT    LP218925   5.120   1.878   1.748
 3786WAT     OW18926   0.913   0.251   6.028
 3786WAT    HW118927   0.889   0.201   6.106
 3786WAT    HW218928   1.004   0.226   6.012
 3786WAT    LP118929   0.873   0.234   5.974
 3786WAT    LP218930   0.908   0.320   6.041
 3787WAT     OW18931   6.037   5.066   6.004
 3787WAT    HW118932   6.096   5.030   6.071
 3787WAT    HW218933   6.034   5.160   6.022
 3787WAT    LP118934   6.063   5.053   5.940
 3787WAT    LP218935   5.973   5.037   6.010
 3788WAT     OW18936   4.176   1.763   6.178
 3788WAT    HW118937   4.227   1.719   6.111
 3788WAT    HW218938   4.100   1.797   6.132
 3788WAT    LP118939   4.157   1.718   6.228
 3788WAT    LP218940   4.213   1.815   6.207
 3789WAT     OW18941   4.953   3.413   2.559
 3789WAT    HW118942   5.045   3.410   2.532
 3789WAT    HW218943   4.954   3.387   2.651
 3789WAT    LP118944   4.927   3.477   2.551
 3789WAT    LP218945   4.915   3.368   2.521
 3790WAT     OW18946   5.587   4.916   3.332
 3790WAT    HW118947   5.497   4.941   3.312
 3790WAT    HW218948   5.590   4.910   3.427
 3790WAT    LP118949   5.603   4.855   3.303
 3790WAT    LP218950   5.632   4.965   3.309
 3791WAT     OW18951   2.893   0.567   3.620
 3791WAT    HW118952   2.911   0.484   3.575
 3791WAT    HW218953   2.955   0.629   3.581
 3791WAT    LP118954   2.827   0.588   3.609
 3791WAT    LP218955   2.905   0.560   3.689
 3792WAT     OW18956   1.683   1.539   6.528
 3792WAT    HW118957   1.689   1.579   6.615
 3792WAT    HW218958   1.737   1.461   6.533
 3792WAT    LP118959   1.616   1.522   6.513
 3792WAT    LP218960   1.707   1.583   6.479
 3793WAT     OW18961   5.053   4.988   1.549
 3793WAT    HW118962   5.042   5.025   1.636
 3793WAT    HW218963   5.027   5.059   1.489
 3793WAT    LP118964   5.120   4.970   1.538
 3793WAT    LP218965   5.012   4.932   1.540
 3794WAT     OW18966   4.540   4.820   4.288
 3794WAT    HW118967   4.574   4.740   4.329
 3794WAT    HW218968   4.466   4.846   4.344
 3794WAT    LP118969   4.589   4.870   4.287
 3794WAT    LP218970   4.518   4.808   4.223
 3795WAT     OW18971   2.778   2.996   3.971
 3795WAT    HW118972   2.831   2.958   4.040
 3795WAT    HW218973   2.691   3.007   4.010
 3795WAT    LP118974   2.804   3.058   3.951
 3795WAT    LP218975   2.775   2.954   3.915
 3796WAT     OW18976   5.597   5.727   3.208
 3796WAT    HW118977   5.598   5.750   3.301
 3796WAT    HW218978   5.652   5.649   3.202
 3796WAT    LP118979   5.532   5.713   3.187
 3796WAT    LP218980   5.623   5.779   3.170
 3797WAT     OW18981   1.333   5.191   0.542
 3797WAT    HW118982   1.256   5.220   0.492
 3797WAT    HW218983   1.387   5.145   0.478
 3797WAT    LP118984   1.368   5.247   0.567
 3797WAT    LP218985   1.314   5.149   0.594
 3798WAT     OW18986   0.644   6.373   6.277
 3798WAT    HW118987   0.636   6.396   6.185
 3798WAT    HW218988   0.716   6.311   6.280
 3798WAT    LP118989   0.659   6.430   6.316
 3798WAT    LP218990   0.585   6.344   6.301
 3799WAT     OW18991   3.419   4.433   6.135
 3799WAT    HW118992   3.359   4.419   6.062
 3799WAT    HW218993   3.431   4.528   6.139
 3799WAT    LP118994   3.391   4.409   6.195
 3799WAT    LP218995   3.480   4.401   6.124
 3800WAT     OW18996   1.580   4.790   5.104
 3800WAT    HW118997   1.501   4.846   5.104
 3800WAT    HW218998   1.637   4.831   5.039
 3800WAT    LP118999   1.610   4.790   5.167
 3800WAT    LP219000   1.564   4.725   5.085
 3801WAT     OW19001   3.156   3.397   3.974
 3801WAT    HW119002   3.161   3.372   4.066
 3801WAT    HW219003   3.245   3.424   3.951
 3801WAT    LP119004   3.135   3.342   3.935
 3801WAT    LP219005   3.111   3.450   3.965
 3802WAT     OW19006   2.012   6.323   1.395
 3802WAT    HW119007   1.977   6.318   1.484
 3802WAT    HW219008   1.961   6.392   1.354
 3802WAT    LP119009   2.080   6.340   1.397
 3802WAT    LP219010   2.004   6.262   1.362
 3803WAT     OW19011   2.296   5.597   3.769
 3803WAT    HW119012   2.357   5.591   3.696
 3803WAT    HW219013   2.209   5.594   3.728
 3803WAT    LP119014   2.304   5.543   3.812
 3803WAT    LP219015   2.304   5.657   3.804
 3804WAT     OW19016   3.352   4.220   2.567
 3804WAT    HW119017   3.280   4.244   2.625
 3804WAT    HW219018   3.428   4.210   2.626
 3804WAT    LP119019   3.339   4.159   2.534
 3804WAT    LP219020   3.364   4.270   2.520
 3805WAT     OW19021   1.731   4.192   1.133
 3805WAT    HW119022   1.748   4.163   1.223
 3805WAT    HW219023   1.725   4.112   1.082
 3805WAT    LP119024   1.671   4.228   1.130
 3805WAT    LP219025   1.783   4.232   1.110
 3806WAT     OW19026   6.738   6.126   3.196
 3806WAT    HW119027   6.787   6.194   3.241
 3806WAT    HW219028   6.651   6.164   3.182
 3806WAT    LP119029   6.768   6.110   3.135
 3806WAT    LP219030   6.734   6.068   3.235
 3807WAT     OW19031   3.185   4.201   0.451
 3807WAT    HW119032   3.217   4.121   0.410
 3807WAT    HW219033   3.116   4.233   0.392
 3807WAT    LP119034   3.158   4.188   0.515
 3807WAT    LP219035   3.236   4.249   0.457
 3808WAT     OW19036   2.883   6.579   0.893
 3808WAT    HW119037   2.838   6.496   0.878
 3808WAT    HW219038   2.888   6.587   0.988
 3808WAT    LP119039   2.947   6.578   0.865
 3808WAT    LP219040   2.846   6.632   0.865
 3809WAT     OW19041   5.067   0.753   0.846
 3809WAT    HW119042   5.157   0.722   0.856
 3809WAT    HW219043   5.055   0.762   0.751
 3809WAT    LP119044   5.022   0.706   0.872
 3809WAT    LP219045   5.058   0.814   0.878
 3810WAT     OW19046   4.604   1.920   5.129
 3810WAT    HW119047   4.577   1.829   5.136
 3810WAT    HW219048   4.672   1.929   5.196
 3810WAT    LP119049   4.630   1.934   5.066
 3810WAT    LP219050   4.551   1.963   5.143
 3811WAT     OW19051   4.435   0.481   3.636
 3811WAT    HW119052   4.386   0.433   3.703
 3811WAT    HW219053   4.430   0.426   3.558
 3811WAT    LP119054   4.406   0.544   3.624
 3811WAT    LP219055   4.502   0.490   3.656
 3812WAT     OW19056   5.383   4.633   0.054
 3812WAT    HW119057   5.467   4.625   0.007
 3812WAT    HW219058   5.398   4.586   0.136
 3812WAT    LP119059   5.368   4.700   0.066
 3812WAT    LP219060   5.332   4.603   0.017
 3813WAT     OW19061   4.698   1.085   1.562
 3813WAT    HW119062   4.652   1.096   1.479
 3813WAT    HW219063   4.687   0.993   1.584
 3813WAT    LP119064   4.766   1.101   1.556
 3813WAT    LP219065   4.669   1.126   1.611
 3814WAT     OW19066   3.927   1.388   3.417
 3814WAT    HW119067   3.946   1.296   3.430
 3814WAT    HW219068   3.984   1.415   3.345
 3814WAT    LP119069   3.859   1.398   3.399
 3814WAT    LP219070   3.941   1.425   3.475
 3815WAT     OW19071   5.466   4.488   2.528
 3815WAT    HW119072   5.381   4.500   2.571
 3815WAT    HW219073   5.444   4.477   2.435
 3815WAT    LP119074   5.507   4.544   2.537
 3815WAT    LP219075   5.498   4.431   2.553
 3816WAT     OW19076   3.223   2.659   2.349
 3816WAT    HW119077   3.289   2.726   2.333
 3816WAT    HW219078   3.142   2.707   2.363
 3816WAT    LP119079   3.218   2.616   2.294
 3816WAT    LP219080   3.240   2.622   2.406
 3817WAT     OW19081   2.215   0.003   5.338
 3817WAT    HW119082   2.259  -0.039   5.411
 3817WAT    HW219083   2.187  -0.068   5.282
 3817WAT    LP119084   2.161   0.041   5.360
 3817WAT    LP219085   2.260   0.045   5.303
 3818WAT     OW19086   1.947   6.654   4.270
 3818WAT    HW119087   1.959   6.665   4.364
 3818WAT    HW219088   2.022   6.603   4.242
 3818WAT    LP119089   1.887   6.619   4.258
 3818WAT    LP219090   1.945   6.715   4.238
 3819WAT     OW19091   3.407   5.901   1.214
 3819WAT    HW119092   3.367   5.978   1.174
 3819WAT    HW219093   3.366   5.827   1.170
 3819WAT    LP119094   3.476   5.901   1.205
 3819WAT    LP219095   3.393   5.899   1.283
 3820WAT     OW19096   4.911   3.374   3.733
 3820WAT    HW119097   4.817   3.394   3.734
 3820WAT    HW219098   4.917   3.288   3.693
 3820WAT    LP119099   4.946   3.422   3.695
 3820WAT    LP219100   4.937   3.373   3.798
 3821WAT     OW19101   4.544   1.664   2.559
 3821WAT    HW119102   4.500   1.648   2.476
 3821WAT    HW219103   4.615   1.599   2.562
 3821WAT    LP119104   4.571   1.729   2.561
 3821WAT    LP219105   4.500   1.655   2.613
 3822WAT     OW19106   2.506   2.182   4.598
 3822WAT    HW119107   2.468   2.192   4.510
 3822WAT    HW219108   2.464   2.103   4.633
 3822WAT    LP119109   2.575   2.174   4.594
 3822WAT    LP219110   2.491   2.238   4.637
 3823WAT     OW19111   6.117   3.281   2.243
 3823WAT    HW119112   6.126   3.186   2.257
 3823WAT    HW219113   6.205   3.310   2.221
 3823WAT    LP119114   6.073   3.294   2.190
 3823WAT    LP219115   6.094   3.312   2.301
 3824WAT     OW19116   1.025   0.005   5.812
 3824WAT    HW119117   0.962  -0.013   5.882
 3824WAT    HW219118   1.079   0.076   5.845
 3824WAT    LP119119   1.064  -0.052   5.799
 3824WAT    LP219120   0.992   0.024   5.753
 3825WAT     OW19121   6.426   2.117   2.022
 3825WAT    HW119122   6.373   2.161   2.088
 3825WAT    HW219123   6.510   2.099   2.065
 3825WAT    LP119124   6.395   2.057   2.002
 3825WAT    LP219125   6.436   2.158   1.966
 3826WAT     OW19126   6.783   6.639   5.365
 3826WAT    HW119127   6.808   6.709   5.424
 3826WAT    HW219128   6.866   6.605   5.331
 3826WAT    LP119129   6.748   6.589   5.399
 3826WAT    LP219130   6.743   6.663   5.313
 3827WAT     OW19131   0.398   3.306   5.938
 3827WAT    HW119132   0.486   3.326   5.906
 3827WAT    HW219133   0.361   3.247   5.872
 3827WAT    LP119134   0.400   3.275   6.000
 3827WAT    LP219135   0.359   3.365   5.942
 3828WAT     OW19136   3.220   3.196   2.848
 3828WAT    HW119137   3.284   3.132   2.877
 3828WAT    HW219138   3.136   3.162   2.880
 3828WAT    LP119139   3.233   3.259   2.875
 3828WAT    LP219140   3.220   3.200   2.778
 3829WAT     OW19141   6.721   6.182   1.303
 3829WAT    HW119142   6.741   6.170   1.210
 3829WAT    HW219143   6.664   6.108   1.326
 3829WAT    LP119144   6.779   6.182   1.342
 3829WAT    LP219145   6.687   6.243   1.313
 3830WAT     OW19146   1.697   0.542   0.510
 3830WAT    HW119147   1.660   0.455   0.526
 3830WAT    HW219148   1.774   0.525   0.456
 3830WAT    LP119149   1.651   0.582   0.475
 3830WAT    LP219150   1.714   0.573   0.570
 3831WAT     OW19151   2.866   3.691   4.168
 3831WAT    HW119152   2.914   3.650   4.240
 3831WAT    HW219153   2.909   3.660   4.089
 3831WAT    LP119154   2.799   3.671   4.169
 3831WAT    LP219155   2.869   3.760   4.173
 3832WAT     OW19156   6.441   5.397   3.577
 3832WAT    HW119157   6.378   5.331   3.549
 3832WAT    HW219158   6.524   5.367   3.539
 3832WAT    LP119159   6.424   5.460   3.553
 3832WAT    LP219160   6.446   5.399   3.647
 3833WAT     OW19161   4.023   1.094   0.578
 3833WAT    HW119162   4.113   1.062   0.583
 3833WAT    HW219163   4.016   1.132   0.490
 3833WAT    LP119164   3.978   1.042   0.586
 3833WAT    LP219165   4.011   1.143   0.627
 3834WAT     OW19166   1.186   0.292   5.260
 3834WAT    HW119167   1.225   0.224   5.314
 3834WAT    HW219168   1.094   0.266   5.250
 3834WAT    LP119169   1.191   0.354   5.291
 3834WAT    LP219170   1.217   0.295   5.197
 3835WAT     OW19171   0.832   1.847   3.588
 3835WAT    HW119172   0.874   1.871   3.505
 3835WAT    HW219173   0.776   1.772   3.566
 3835WAT    LP119174   0.880   1.830   3.636
 3835WAT    LP219175   0.793   1.901   3.612
 3836WAT     OW19176   0.657   3.036   5.831
 3836WAT    HW119177   0.658   3.132   5.830
 3836WAT    HW219178   0.638   3.011   5.740
 3836WAT    LP119179   0.719   3.011   5.851
 3836WAT    LP219180   0.607   3.012   5.874
 3837WAT     OW19181   5.610   3.094   5.374
 3837WAT    HW119182   5.531   3.083   5.321
 3837WAT    HW219183   5.675   3.036   5.333
 3837WAT    LP119184   5.632   3.160   5.372
 3837WAT    LP219185   5.599   3.075   5.440
 3838WAT     OW19186   3.186   2.395   2.260
 3838WAT    HW119187   3.164   2.396   2.167
 3838WAT    HW219188   3.203   2.487   2.282
 3838WAT    LP119189   3.132   2.370   2.298
 3838WAT    LP219190   3.243   2.356   2.272
 3839WAT     OW19191   2.899   3.658   5.751
 3839WAT    HW119192   2.867   3.665   5.840
 3839WAT    HW219193   2.916   3.565   5.738
 3839WAT    LP119194   2.852   3.682   5.705
 3839WAT    LP219195   2.959   3.695   5.743
 3840WAT     OW19196   5.790   5.745   6.086
 3840WAT    HW119197   5.731   5.670   6.081
 3840WAT    HW219198   5.732   5.820   6.096
 3840WAT    LP119199   5.832   5.739   6.141
 3840WAT    LP219200   5.828   5.751   6.028
 3841WAT     OW19201   1.098   2.719   0.833
 3841WAT    HW119202   1.013   2.735   0.791
 3841WAT    HW219203   1.158   2.777   0.786
 3841WAT    LP119204   1.095   2.736   0.901
 3841WAT    LP219205   1.117   2.653   0.825
 3842WAT     OW19206   1.148   4.174   2.859
 3842WAT    HW119207   1.062   4.134   2.871
 3842WAT    HW219208   1.130   4.268   2.851
 3842WAT    LP119209   1.189   4.162   2.914
 3842WAT    LP219210   1.179   4.150   2.801
 3843WAT     OW19211   4.291   6.044   4.199
 3843WAT    HW119212   4.369   5.991   4.179
 3843WAT    HW219213   4.326   6.130   4.223
 3843WAT    LP119214   4.250   6.049   4.144
 3843WAT    LP219215   4.256   6.016   4.253
 3844WAT     OW19216   3.574   6.392   2.958
 3844WAT    HW119217   3.660   6.422   2.986
 3844WAT    HW219218   3.590   6.309   2.913
 3844WAT    LP119219   3.532   6.383   3.013
 3844WAT    LP219220   3.545   6.439   2.914
 3845WAT     OW19221   5.188   3.833   5.597
 3845WAT    HW119222   5.178   3.754   5.650
 3845WAT    HW219223   5.108   3.836   5.544
 3845WAT    LP119224   5.193   3.890   5.637
 3845WAT    LP219225   5.244   3.828   5.556
 3846WAT     OW19226   6.616   4.726   4.577
 3846WAT    HW119227   6.688   4.790   4.578
 3846WAT    HW219228   6.622   4.683   4.663
 3846WAT    LP119229   6.555   4.758   4.570
 3846WAT    LP219230   6.625   4.679   4.526
 3847WAT     OW19231   6.729   5.463   0.583
 3847WAT    HW119232   6.770   5.379   0.602
 3847WAT    HW219233   6.786   5.503   0.517
 3847WAT    LP119234   6.664   5.454   0.558
 3847WAT    LP219235   6.727   5.503   0.641
 3848WAT     OW19236   5.658   6.657   4.636
 3848WAT    HW119237   5.659   6.748   4.666
 3848WAT    HW219238   5.702   6.609   4.706
 3848WAT    LP119239   5.592   6.635   4.629
 3848WAT    LP219240   5.693   6.650   4.576
 3849WAT     OW19241   3.707   0.464   1.004
 3849WAT    HW119242   3.691   0.558   0.995
 3849WAT    HW219243   3.682   0.444   1.094
 3849WAT    LP119244   3.668   0.428   0.958
 3849WAT    LP219245   3.775   0.449   0.993
 3850WAT     OW19246   3.780   3.419   3.743
 3850WAT    HW119247   3.797   3.366   3.821
 3850WAT    HW219248   3.806   3.363   3.670
 3850WAT    LP119249   3.712   3.435   3.739
 3850WAT    LP219250   3.818   3.478   3.744
 3851WAT     OW19251   2.877   5.113   1.517
 3851WAT    HW119252   2.886   5.119   1.422
 3851WAT    HW219253   2.905   5.024   1.539
 3851WAT    LP119254   2.918   5.161   1.548
 3851WAT    LP219255   2.811   5.124   1.536
 3852WAT     OW19256   6.780   4.330   2.524
 3852WAT    HW119257   6.822   4.415   2.534
 3852WAT    HW219258   6.759   4.325   2.431
 3852WAT    LP119259   6.823   4.279   2.543
 3852WAT    LP219260   6.722   4.327   2.562
 3853WAT     OW19261   1.882   2.874   0.419
 3853WAT    HW119262   1.958   2.865   0.476
 3853WAT    HW219263   1.836   2.950   0.453
 3853WAT    LP119264   1.901   2.883   0.352
 3853WAT    LP219265   1.841   2.817   0.423
 3854WAT     OW19266   6.262   4.362   3.980
 3854WAT    HW119267   6.168   4.353   3.999
 3854WAT    HW219268   6.305   4.335   4.061
 3854WAT    LP119269   6.280   4.321   3.927
 3854WAT    LP219270   6.278   4.429   3.964
 3855WAT     OW19271   4.936   4.346   0.905
 3855WAT    HW119272   5.016   4.328   0.855
 3855WAT    HW219273   4.903   4.260   0.929
 3855WAT    LP119274   4.951   4.384   0.962
 3855WAT    LP219275   4.889   4.381   0.866
 3856WAT     OW19276   0.463   6.192   3.734
 3856WAT    HW119277   0.443   6.169   3.825
 3856WAT    HW219278   0.533   6.131   3.709
 3856WAT    LP119279   0.407   6.183   3.693
 3856WAT    LP219280   0.485   6.258   3.729
 3857WAT     OW19281   3.275   3.447   2.247
 3857WAT    HW119282   3.325   3.367   2.264
 3857WAT    HW219283   3.335   3.502   2.196
 3857WAT    LP119284   3.217   3.432   2.209
 3857WAT    LP219285   3.257   3.478   2.306
 3858WAT     OW19286   2.198   4.560   4.968
 3858WAT    HW119287   2.173   4.470   4.985
 3858WAT    HW219288   2.265   4.579   5.034
 3858WAT    LP119289   2.225   4.567   4.904
 3858WAT    LP219290   2.143   4.603   4.975
 3859WAT     OW19291   0.760   6.452   3.535
 3859WAT    HW119292   0.667   6.436   3.548
 3859WAT    HW219293   0.769   6.547   3.534
 3859WAT    LP119294   0.798   6.424   3.587
 3859WAT    LP219295   0.781   6.425   3.473
 3860WAT     OW19296   0.022   5.259   5.338
 3860WAT    HW119297  -0.052   5.219   5.293
 3860WAT    HW219298   0.071   5.186   5.374
 3860WAT    LP119299   0.061   5.297   5.293
 3860WAT    LP219300  -0.001   5.301   5.390
 3861WAT     OW19301   3.008   5.939   2.498
 3861WAT    HW119302   3.002   5.914   2.405
 3861WAT    HW219303   3.101   5.961   2.510
 3861WAT    LP119304   2.968   5.994   2.512
 3861WAT    LP219305   2.990   5.885   2.539
 3862WAT     OW19306   2.152   3.390   5.062
 3862WAT    HW119307   2.064   3.356   5.052
 3862WAT    HW219308   2.162   3.453   4.990
 3862WAT    LP119309   2.160   3.422   5.124
 3862WAT    LP219310   2.199   3.339   5.057
 3863WAT     OW19311   6.096   3.439   1.846
 3863WAT    HW119312   6.068   3.383   1.918
 3863WAT    HW219313   6.156   3.502   1.886
 3863WAT    LP119314   6.128   3.402   1.796
 3863WAT    LP219315   6.041   3.472   1.818
 3864WAT     OW19316   6.619   5.685   6.294
 3864WAT    HW119317   6.557   5.614   6.309
 3864WAT    HW219318   6.629   5.688   6.198
 3864WAT    LP119319   6.593   5.745   6.318
 3864WAT    LP219320   6.680   5.671   6.324
 3865WAT     OW19321   5.137   1.426   3.950
 3865WAT    HW119322   5.086   1.355   3.912
 3865WAT    HW219323   5.075   1.473   4.007
 3865WAT    LP119324   5.191   1.401   3.987
 3865WAT    LP219325   5.161   1.469   3.900
 3866WAT     OW19326   0.146   6.330   3.737
 3866WAT    HW119327   0.149   6.254   3.794
 3866WAT    HW219328   0.184   6.401   3.789
 3866WAT    LP119329   0.183   6.319   3.679
 3866WAT    LP219330   0.080   6.346   3.719
 3867WAT     OW19331   4.541   6.057   0.795
 3867WAT    HW119332   4.565   5.966   0.776
 3867WAT    HW219333   4.602   6.109   0.743
 3867WAT    LP119334   4.475   6.069   0.776
 3867WAT    LP219335   4.549   6.070   0.863
 3868WAT     OW19336   4.418   6.483   1.839
 3868WAT    HW119337   4.458   6.433   1.767
 3868WAT    HW219338   4.408   6.572   1.804
 3868WAT    LP119339   4.355   6.456   1.855
 3868WAT    LP219340   4.459   6.482   1.895
 3869WAT     OW19341   5.995   5.128   3.629
 3869WAT    HW119342   5.946   5.046   3.621
 3869WAT    HW219343   5.995   5.164   3.540
 3869WAT    LP119344   5.962   5.172   3.673
 3869WAT    LP219345   6.060   5.116   3.651
 3870WAT     OW19346   3.337   6.542   3.874
 3870WAT    HW119347   3.290   6.604   3.930
 3870WAT    HW219348   3.338   6.583   3.788
 3870WAT    LP119349   3.402   6.532   3.898
 3870WAT    LP219350   3.303   6.480   3.872
 3871WAT     OW19351   6.135   4.269   2.700
 3871WAT    HW119352   6.043   4.257   2.678
 3871WAT    HW219353   6.153   4.201   2.765
 3871WAT    LP119354   6.176   4.261   2.644
 3871WAT    LP219355   6.146   4.332   2.728
 3872WAT     OW19356   1.730   4.108   1.393
 3872WAT    HW119357   1.696   4.164   1.463
 3872WAT    HW219358   1.814   4.076   1.427
 3872WAT    LP119359   1.687   4.055   1.380
 3872WAT    LP219360   1.740   4.145   1.335
 3873WAT     OW19361   4.482   3.365   0.286
 3873WAT    HW119362   4.533   3.371   0.366
 3873WAT    HW219363   4.413   3.431   0.296
 3873WAT    LP119364   4.522   3.380   0.230
 3873WAT    LP219365   4.454   3.302   0.279
 3874WAT     OW19366   2.549   0.691   6.205
 3874WAT    HW119367   2.472   0.648   6.169
 3874WAT    HW219368   2.622   0.662   6.149
 3874WAT    LP119369   2.543   0.761   6.203
 3874WAT    LP219370   2.560   0.671   6.272
 3875WAT     OW19371   0.468   4.039   4.369
 3875WAT    HW119372   0.508   4.087   4.441
 3875WAT    HW219373   0.518   3.957   4.364
 3875WAT    LP119374   0.401   4.026   4.381
 3875WAT    LP219375   0.474   4.075   4.309
 3876WAT     OW19376   3.227   2.096   2.881
 3876WAT    HW119377   3.244   2.188   2.901
 3876WAT    HW219378   3.193   2.059   2.962
 3876WAT    LP119379   3.180   2.091   2.829
 3876WAT    LP219380   3.286   2.064   2.862
 3877WAT     OW19381   5.380   4.468   1.547
 3877WAT    HW119382   5.473   4.445   1.558
 3877WAT    HW219383   5.381   4.544   1.489
 3877WAT    LP119384   5.345   4.415   1.518
 3877WAT    LP219385   5.351   4.485   1.609
 3878WAT     OW19386   0.342   2.275   3.604
 3878WAT    HW119387   0.414   2.233   3.557
 3878WAT    HW219388   0.359   2.369   3.595
 3878WAT    LP119389   0.280   2.258   3.576
 3878WAT    LP219390   0.343   2.257   3.672
 3879WAT     OW19391   0.494   4.394   0.343
 3879WAT    HW119392   0.566   4.331   0.335
 3879WAT    HW219393   0.416   4.340   0.354
 3879WAT    LP119394   0.504   4.436   0.398
 3879WAT    LP219395   0.488   4.433   0.285
 3880WAT     OW19396   0.739   6.639   4.493
 3880WAT    HW119397   0.669   6.606   4.551
 3880WAT    HW219398   0.737   6.734   4.504
 3880WAT    LP119399   0.801   6.613   4.512
 3880WAT    LP219400   0.725   6.621   4.426
 3881WAT     OW19401   1.316   3.184   5.801
 3881WAT    HW119402   1.325   3.279   5.805
 3881WAT    HW219403   1.398   3.152   5.840
 3881WAT    LP119404   1.261   3.163   5.839
 3881WAT    LP219405   1.310   3.162   5.735
 3882WAT     OW19406   4.918   1.170   4.991
 3882WAT    HW119407   4.960   1.250   5.020
 3882WAT    HW219408   4.825   1.183   5.010
 3882WAT    LP119409   4.928   1.161   4.922
 3882WAT    LP219410   4.942   1.114   5.025
 3883WAT     OW19411   2.035   4.034   0.908
 3883WAT    HW119412   2.025   4.018   1.002
 3883WAT    HW219413   2.125   4.009   0.889
 3883WAT    LP119414   1.990   3.994   0.871
 3883WAT    LP219415   2.024   4.101   0.893
 3884WAT     OW19416   5.788   3.987   4.757
 3884WAT    HW119417   5.875   3.982   4.718
 3884WAT    HW219418   5.776   4.080   4.777
 3884WAT    LP119419   5.739   3.966   4.711
 3884WAT    LP219420   5.784   3.949   4.815
 3885WAT     OW19421   1.648   5.265   1.930
 3885WAT    HW119422   1.696   5.184   1.916
 3885WAT    HW219423   1.710   5.322   1.975
 3885WAT    LP119424   1.628   5.293   1.869
 3885WAT    LP219425   1.591   5.253   1.970
 3886WAT     OW19426   0.778   4.566   3.601
 3886WAT    HW119427   0.769   4.583   3.507
 3886WAT    HW219428   0.791   4.472   3.607
 3886WAT    LP119429   0.833   4.601   3.627
 3886WAT    LP219430   0.720   4.585   3.635
 3887WAT     OW19431   1.609   6.266   2.923
 3887WAT    HW119432   1.562   6.345   2.897
 3887WAT    HW219433   1.640   6.228   2.841
 3887WAT    LP119434   1.663   6.282   2.965
 3887WAT    LP219435   1.567   6.222   2.956
 3888WAT     OW19436   4.641   4.327   4.256
 3888WAT    HW119437   4.635   4.237   4.286
 3888WAT    HW219438   4.710   4.326   4.189
 3888WAT    LP119439   4.580   4.348   4.228
 3888WAT    LP219440   4.658   4.370   4.308
 3889WAT     OW19441   5.514   2.816   0.407
 3889WAT    HW119442   5.605   2.837   0.384
 3889WAT    HW219443   5.488   2.749   0.344
 3889WAT    LP119444   5.510   2.792   0.472
 3889WAT    LP219445   5.473   2.873   0.400
 3890WAT     OW19446   6.392   2.095   0.722
 3890WAT    HW119447   6.331   2.156   0.763
 3890WAT    HW219448   6.479   2.128   0.746
 3890WAT    LP119449   6.383   2.030   0.746
 3890WAT    LP219450   6.385   2.096   0.652
 3891WAT     OW19451   4.023   1.111   3.759
 3891WAT    HW119452   4.083   1.170   3.805
 3891WAT    HW219453   4.063   1.025   3.769
 3891WAT    LP119454   3.960   1.113   3.789
 3891WAT    LP219455   4.019   1.128   3.692
 3892WAT     OW19456   1.414   6.070   4.518
 3892WAT    HW119457   1.506   6.094   4.527
 3892WAT    HW219458   1.399   6.007   4.589
 3892WAT    LP119459   1.373   6.126   4.526
 3892WAT    LP219460   1.402   6.041   4.456
 3893WAT     OW19461   6.592   4.553   0.985
 3893WAT    HW119462   6.649   4.563   1.062
 3893WAT    HW219463   6.507   4.587   1.013
 3893WAT    LP119464   6.617   4.591   0.931
 3893WAT    LP219465   6.587   4.486   0.966
 3894WAT     OW19466   2.393   5.602   0.233
 3894WAT    HW119467   2.305   5.570   0.253
 3894WAT    HW219468   2.434   5.531   0.184
 3894WAT    LP119469   2.389   5.660   0.194
 3894WAT    LP219470   2.428   5.616   0.292
 3895WAT     OW19471   2.277   2.237   3.970
 3895WAT    HW119472   2.360   2.282   3.952
 3895WAT    HW219473   2.252   2.267   4.057
 3895WAT    LP119474   2.229   2.254   3.923
 3895WAT    LP219475   2.286   2.167   3.970
 3896WAT     OW19476   3.416   0.398   0.364
 3896WAT    HW119477   3.464   0.435   0.438
 3896WAT    HW219478   3.341   0.354   0.403
 3896WAT    LP119479   3.394   0.449   0.321
 3896WAT    LP219480   3.456   0.353   0.328
 3897WAT     OW19481   3.681   4.042   2.527
 3897WAT    HW119482   3.655   4.106   2.594
 3897WAT    HW219483   3.776   4.049   2.523
 3897WAT    LP119484   3.662   3.978   2.546
 3897WAT    LP219485   3.652   4.058   2.465
 3898WAT     OW19486   5.866   4.207   2.676
 3898WAT    HW119487   5.787   4.260   2.668
 3898WAT    HW219488   5.858   4.162   2.760
 3898WAT    LP119489   5.871   4.161   2.624
 3898WAT    LP219490   5.923   4.249   2.676
 3899WAT     OW19491   1.062   5.073   1.123
 3899WAT    HW119492   0.978   5.058   1.166
 3899WAT    HW219493   1.126   5.072   1.194
 3899WAT    LP119494   1.076   5.022   1.077
 3899WAT    LP219495   1.063   5.135   1.090
 3900WAT     OW19496   0.790   0.722   2.557
 3900WAT    HW119497   0.736   0.725   2.636
 3900WAT    HW219498   0.728   0.736   2.486
 3900WAT    LP119499   0.838   0.772   2.558
 3900WAT    LP219500   0.820   0.659   2.551
 3901WAT     OW19501   0.572   6.071   4.224
 3901WAT    HW119502   0.637   6.003   4.205
 3901WAT    HW219503   0.624   6.148   4.246
 3901WAT    LP119504   0.532   6.083   4.169
 3901WAT    LP219505   0.532   6.052   4.279
 3902WAT     OW19506   1.722   2.920   0.920
 3902WAT    HW119507   1.803   2.875   0.898
 3902WAT    HW219508   1.703   2.895   1.010
 3902WAT    LP119509   1.730   2.990   0.915
 3902WAT    LP219510   1.670   2.900   0.877
 3903WAT     OW19511   2.320   3.817   3.101
 3903WAT    HW119512   2.322   3.774   3.015
 3903WAT    HW219513   2.378   3.892   3.092
 3903WAT    LP119514   2.255   3.838   3.116
 3903WAT    LP219515   2.342   3.773   3.151
 3904WAT     OW19516   4.601   6.223   3.843
 3904WAT    HW119517   4.624   6.155   3.906
 3904WAT    HW219518   4.675   6.226   3.782
 3904WAT    LP119519   4.542   6.207   3.809
 3904WAT    LP219520   4.593   6.285   3.875
 3905WAT     OW19521   5.282   2.504   0.443
 3905WAT    HW119522   5.337   2.544   0.509
 3905WAT    HW219523   5.202   2.557   0.442
 3905WAT    LP119524   5.313   2.505   0.380
 3905WAT    LP219525   5.267   2.438   0.459
 3906WAT     OW19526   0.199   4.854   3.583
 3906WAT    HW119527   0.167   4.903   3.659
 3906WAT    HW219528   0.252   4.917   3.534
 3906WAT    LP119529   0.237   4.800   3.603
 3906WAT    LP219530   0.145   4.832   3.543
 3907WAT     OW19531   2.507   5.074   3.049
 3907WAT    HW119532   2.447   5.019   3.100
 3907WAT    HW219533   2.481   5.164   3.072
 3907WAT    LP119534   2.573   5.062   3.067
 3907WAT    LP219535   2.499   5.063   2.981
 3908WAT     OW19536   2.458   5.885   0.199
 3908WAT    HW119537   2.429   5.794   0.205
 3908WAT    HW219538   2.378   5.936   0.194
 3908WAT    LP119539   2.495   5.903   0.256
 3908WAT    LP219540   2.498   5.894   0.142
 3909WAT     OW19541   2.049   1.231   0.030
 3909WAT    HW119542   2.122   1.215  -0.030
 3909WAT    HW219543   2.079   1.305   0.084
 3909WAT    LP119544   1.991   1.248  -0.005
 3909WAT    LP219545   2.037   1.175   0.070
 3910WAT     OW19546   4.873   0.480   2.795
 3910WAT    HW119547   4.854   0.572   2.812
 3910WAT    HW219548   4.861   0.438   2.881
 3910WAT    LP119549   4.828   0.453   2.749
 3910WAT    LP219550   4.938   0.471   2.772
 3911WAT     OW19551   0.138   4.180   4.572
 3911WAT    HW119552   0.067   4.224   4.525
 3911WAT    HW219553   0.167   4.111   4.513
 3911WAT    LP119554   0.190   4.225   4.585
 3911WAT    LP219555   0.114   4.153   4.632
 3912WAT     OW19556   2.540   6.614   5.727
 3912WAT    HW119557   2.591   6.670   5.785
 3912WAT    HW219558   2.596   6.538   5.712
 3912WAT    LP119559   2.480   6.595   5.756
 3912WAT    LP219560   2.527   6.647   5.666
 3913WAT     OW19561   3.917   5.790   2.833
 3913WAT    HW119562   3.872   5.725   2.779
 3913WAT    HW219563   3.964   5.738   2.899
 3913WAT    LP119564   3.962   5.827   2.795
 3913WAT    LP219565   3.871   5.833   2.864
 3914WAT     OW19566   6.077   6.332   6.347
 3914WAT    HW119567   6.012   6.278   6.301
 3914WAT    HW219568   6.039   6.419   6.349
 3914WAT    LP119569   6.087   6.308   6.412
 3914WAT    LP219570   6.138   6.332   6.313
 3915WAT     OW19571   1.533   1.468   0.301
 3915WAT    HW119572   1.595   1.513   0.358
 3915WAT    HW219573   1.586   1.408   0.249
 3915WAT    LP119574   1.485   1.433   0.338
 3915WAT    LP219575   1.500   1.514   0.259
 3916WAT     OW19576   3.294   2.845   6.045
 3916WAT    HW119577   3.322   2.836   5.954
 3916WAT    HW219578   3.224   2.781   6.055
 3916WAT    LP119579   3.347   2.831   6.089
 3916WAT    LP219580   3.270   2.910   6.057
 3917WAT     OW19581   6.467   6.316   4.375
 3917WAT    HW119582   6.486   6.410   4.376
 3917WAT    HW219583   6.545   6.276   4.412
 3917WAT    LP119584   6.411   6.302   4.414
 3917WAT    LP219585   6.456   6.294   4.310
 3918WAT     OW19586   1.983   5.868   6.060
 3918WAT    HW119587   1.940   5.791   6.023
 3918WAT    HW219588   2.028   5.835   6.138
 3918WAT    LP119589   2.030   5.894   6.014
 3918WAT    LP219590   1.937   5.917   6.076
 3919WAT     OW19591   4.870   6.045   1.470
 3919WAT    HW119592   4.779   6.019   1.454
 3919WAT    HW219593   4.917   5.963   1.483
 3919WAT    LP119594   4.896   6.080   1.414
 3919WAT    LP219595   4.874   6.086   1.527
 3920WAT     OW19596   4.698   5.569   0.433
 3920WAT    HW119597   4.633   5.512   0.475
 3920WAT    HW219598   4.684   5.655   0.473
 3920WAT    LP119599   4.763   5.547   0.445
 3920WAT    LP219600   4.687   5.572   0.364
 3921WAT     OW19601   2.801   1.888   4.163
 3921WAT    HW119602   2.809   1.883   4.068
 3921WAT    HW219603   2.719   1.935   4.178
 3921WAT    LP119604   2.798   1.824   4.190
 3921WAT    LP219605   2.855   1.922   4.191
 3922WAT     OW19606   2.708   0.571   0.794
 3922WAT    HW119607   2.673   0.526   0.717
 3922WAT    HW219608   2.677   0.520   0.868
 3922WAT    LP119609   2.778   0.572   0.792
 3922WAT    LP219610   2.685   0.637   0.798
 3923WAT     OW19611   3.549   2.520   5.759
 3923WAT    HW119612   3.490   2.519   5.683
 3923WAT    HW219613   3.629   2.478   5.728
 3923WAT    LP119614   3.561   2.585   5.779
 3923WAT    LP219615   3.521   2.484   5.812
 3924WAT     OW19616   1.681   3.163   0.288
 3924WAT    HW119617   1.692   3.111   0.368
 3924WAT    HW219618   1.677   3.099   0.217
 3924WAT    LP119619   1.622   3.201   0.291
 3924WAT    LP219620   1.735   3.207   0.279
 3925WAT     OW19621   5.586   0.548   1.493
 3925WAT    HW119622   5.534   0.534   1.414
 3925WAT    HW219623   5.578   0.642   1.511
 3925WAT    LP119624   5.561   0.510   1.546
 3925WAT    LP219625   5.653   0.530   1.482
 3926WAT     OW19626   6.166   4.768   0.241
 3926WAT    HW119627   6.221   4.736   0.312
 3926WAT    HW219628   6.118   4.690   0.211
 3926WAT    LP119629   6.122   4.817   0.263
 3926WAT    LP219630   6.205   4.794   0.189
 3927WAT     OW19631   1.377   5.594   3.530
 3927WAT    HW119632   1.351   5.575   3.620
 3927WAT    HW219633   1.413   5.682   3.533
 3927WAT    LP119634   1.425   5.548   3.509
 3927WAT    LP219635   1.321   5.591   3.487
 3928WAT     OW19636   0.106   6.063   2.839
 3928WAT    HW119637   0.151   6.043   2.921
 3928WAT    HW219638   0.026   6.011   2.843
 3928WAT    LP119639   0.090   6.131   2.836
 3928WAT    LP219640   0.145   6.045   2.784
 3929WAT     OW19641   5.563   4.416   3.507
 3929WAT    HW119642   5.498   4.484   3.487
 3929WAT    HW219643   5.616   4.410   3.428
 3929WAT    LP119644   5.602   4.435   3.562
 3929WAT    LP219645   5.531   4.355   3.521
 3930WAT     OW19646   2.197   1.016   2.975
 3930WAT    HW119647   2.269   0.956   2.954
 3930WAT    HW219648   2.122   0.959   2.990
 3930WAT    LP119649   2.212   1.054   3.032
 3930WAT    LP219650   2.185   1.059   2.921
 3931WAT     OW19651   2.829   6.088   5.550
 3931WAT    HW119652   2.843   6.156   5.485
 3931WAT    HW219653   2.917   6.068   5.583
 3931WAT    LP119654   2.788   6.111   5.602
 3931WAT    LP219655   2.801   6.031   5.521
 3932WAT     OW19656   1.572   2.247   2.769
 3932WAT    HW119657   1.580   2.156   2.742
 3932WAT    HW219658   1.515   2.287   2.704
 3932WAT    LP119659   1.544   2.252   2.833
 3932WAT    LP219660   1.635   2.278   2.770
 3933WAT     OW19661   0.580   2.069   2.084
 3933WAT    HW119662   0.542   2.147   2.123
 3933WAT    HW219663   0.664   2.057   2.128
 3933WAT    LP119664   0.538   2.013   2.094
 3933WAT    LP219665   0.590   2.077   2.015
 3934WAT     OW19666   5.371   3.468   2.809
 3934WAT    HW119667   5.315   3.411   2.862
 3934WAT    HW219668   5.363   3.554   2.851
 3934WAT    LP119669   5.438   3.446   2.810
 3934WAT    LP219670   5.349   3.471   2.743
 3935WAT     OW19671   4.546   2.293   3.345
 3935WAT    HW119672   4.581   2.327   3.427
 3935WAT    HW219673   4.607   2.326   3.278
 3935WAT    LP119674   4.545   2.223   3.345
 3935WAT    LP219675   4.482   2.318   3.333
 3936WAT     OW19676   6.546   4.291   2.660
 3936WAT    HW119677   6.631   4.307   2.618
 3936WAT    HW219678   6.484   4.342   2.608
 3936WAT    LP119679   6.530   4.223   2.658
 3936WAT    LP219680   6.547   4.313   2.726
 3937WAT     OW19681   1.922   2.128   4.949
 3937WAT    HW119682   1.830   2.152   4.937
 3937WAT    HW219683   1.923   2.080   5.032
 3937WAT    LP119684   1.944   2.087   4.897
 3937WAT    LP219685   1.962   2.185   4.953
 3938WAT     OW19686   5.306   1.279   3.520
 3938WAT    HW119687   5.296   1.207   3.583
 3938WAT    HW219688   5.223   1.325   3.522
 3938WAT    LP119689   5.359   1.321   3.539
 3938WAT    LP219690   5.319   1.254   3.456
 3939WAT     OW19691   0.302   4.090   3.942
 3939WAT    HW119692   0.341   4.007   3.915
 3939WAT    HW219693   0.264   4.127   3.862
 3939WAT    LP119694   0.253   4.079   3.990
 3939WAT    LP219695   0.351   4.133   3.968
 3940WAT     OW19696   6.783   3.052   4.631
 3940WAT    HW119697   6.782   3.137   4.675
 3940WAT    HW219698   6.728   2.996   4.687
 3940WAT    LP119699   6.756   3.056   4.567
 3940WAT    LP219700   6.848   3.026   4.627
 3941WAT     OW19701   0.260   4.559   3.114
 3941WAT    HW119702   0.309   4.497   3.168
 3941WAT    HW219703   0.169   4.527   3.119
 3941WAT    LP119704   0.265   4.623   3.141
 3941WAT    LP219705   0.283   4.558   3.048
 3942WAT     OW19706   1.342   6.409   2.010
 3942WAT    HW119707   1.353   6.315   2.025
 3942WAT    HW219708   1.247   6.423   2.012
 3942WAT    LP119709   1.373   6.446   2.061
 3942WAT    LP219710   1.368   6.428   1.948
 3943WAT     OW19711   0.427   0.218   4.300
 3943WAT    HW119712   0.365   0.221   4.228
 3943WAT    HW219713   0.432   0.125   4.323
 3943WAT    LP119714   0.490   0.241   4.280
 3943WAT    LP219715   0.404   0.256   4.354
 3944WAT     OW19716   5.491   5.564   0.162
 3944WAT    HW119717   5.570   5.614   0.145
 3944WAT    HW219718   5.523   5.478   0.189
 3944WAT    LP119719   5.453   5.593   0.213
 3944WAT    LP219720   5.452   5.558   0.104
 3945WAT     OW19721   0.731   4.222   4.053
 3945WAT    HW119722   0.643   4.225   4.090
 3945WAT    HW219723   0.788   4.252   4.123
 3945WAT    LP119724   0.747   4.157   4.033
 3945WAT    LP219725   0.735   4.265   3.998
 3946WAT     OW19726   4.880   4.950   5.454
 3946WAT    HW119727   4.817   4.998   5.508
 3946WAT    HW219728   4.960   5.003   5.458
 3946WAT    LP119729   4.892   4.886   5.481
 3946WAT    LP219730   4.857   4.943   5.389
 3947WAT     OW19731   4.759   3.222   2.943
 3947WAT    HW119732   4.685   3.217   2.883
 3947WAT    HW219733   4.721   3.251   3.026
 3947WAT    LP119734   4.790   3.160   2.950
 3947WAT    LP219735   4.807   3.269   2.920
 3948WAT     OW19736   0.602   5.344   4.694
 3948WAT    HW119737   0.555   5.385   4.767
 3948WAT    HW219738   0.544   5.357   4.619
 3948WAT    LP119739   0.663   5.375   4.684
 3948WAT    LP219740   0.612   5.276   4.707
 3949WAT     OW19741   5.991   0.986   0.013
 3949WAT    HW119742   5.986   1.021   0.102
 3949WAT    HW219743   6.037   1.054  -0.036
 3949WAT    LP119744   6.028   0.926   0.012
 3949WAT    LP219745   5.927   0.975  -0.013
 3950WAT     OW19746   6.519   6.212   2.538
 3950WAT    HW119747   6.590   6.149   2.551
 3950WAT    HW219748   6.463   6.172   2.471
 3950WAT    LP119749   6.483   6.221   2.598
 3950WAT    LP219750   6.544   6.274   2.516
 3951WAT     OW19751   6.640   1.152   5.015
 3951WAT    HW119752   6.722   1.198   4.997
 3951WAT    HW219753   6.654   1.064   4.979
 3951WAT    LP119754   6.627   1.149   5.083
 3951WAT    LP219755   6.586   1.184   4.982
 3952WAT     OW19756   3.125   0.870   3.911
 3952WAT    HW119757   3.210   0.862   3.867
 3952WAT    HW219758   3.066   0.902   3.843
 3952WAT    LP119759   3.104   0.808   3.935
 3952WAT    LP219760   3.129   0.916   3.964
 3953WAT     OW19761   5.703   6.336   1.920
 3953WAT    HW119762   5.783   6.337   1.868
 3953WAT    HW219763   5.724   6.280   1.995
 3953WAT    LP119764   5.686   6.400   1.941
 3953WAT    LP219765   5.650   6.309   1.883
 3954WAT     OW19766   1.224   5.724   0.998
 3954WAT    HW119767   1.132   5.695   0.999
 3954WAT    HW219768   1.260   5.692   1.081
 3954WAT    LP119769   1.258   5.695   0.944
 3954WAT    LP219770   1.227   5.793   0.995
 3955WAT     OW19771   4.835   3.308   2.217
 3955WAT    HW119772   4.804   3.246   2.283
 3955WAT    HW219773   4.766   3.308   2.150
 3955WAT    LP119774   4.843   3.371   2.244
 3955WAT    LP219775   4.895   3.286   2.190
 3956WAT     OW19776   6.000   1.927   3.729
 3956WAT    HW119777   6.080   1.950   3.682
 3956WAT    HW219778   5.953   1.869   3.669
 3956WAT    LP119779   6.014   1.895   3.789
 3956WAT    LP219780   5.962   1.985   3.742
 3957WAT     OW19781   4.999   5.145   2.323
 3957WAT    HW119782   5.023   5.174   2.411
 3957WAT    HW219783   4.999   5.049   2.329
 3957WAT    LP119784   4.935   5.168   2.306
 3957WAT    LP219785   5.045   5.167   2.276
 3958WAT     OW19786   5.577   1.928   3.826
 3958WAT    HW119787   5.580   1.839   3.790
 3958WAT    HW219788   5.484   1.950   3.827
 3958WAT    LP119789   5.604   1.929   3.890
 3958WAT    LP219790   5.613   1.972   3.785
 3959WAT     OW19791   1.804   2.425   2.086
 3959WAT    HW119792   1.876   2.449   2.028
 3959WAT    HW219793   1.841   2.357   2.143
 3959WAT    LP119794   1.784   2.481   2.124
 3959WAT    LP219795   1.750   2.400   2.050
 3960WAT     OW19796   4.556   1.310   5.734
 3960WAT    HW119797   4.529   1.240   5.675
 3960WAT    HW219798   4.651   1.298   5.745
 3960WAT    LP119799   4.543   1.373   5.706
 3960WAT    LP219800   4.523   1.305   5.796
 3961WAT     OW19801   5.687   2.305   2.373
 3961WAT    HW119802   5.687   2.216   2.409
 3961WAT    HW219803   5.658   2.295   2.283
 3961WAT    LP119804   5.642   2.346   2.409
 3961WAT    LP219805   5.751   2.333   2.376
 3962WAT     OW19806   3.809   0.248   0.381
 3962WAT    HW119807   3.824   0.342   0.390
 3962WAT    HW219808   3.727   0.242   0.330
 3962WAT    LP119809   3.861   0.217   0.346
 3962WAT    LP219810   3.801   0.217   0.443
 3963WAT     OW19811   5.747   4.568   4.624
 3963WAT    HW119812   5.728   4.540   4.714
 3963WAT    HW219813   5.832   4.612   4.630
 3963WAT    LP119814   5.751   4.513   4.582
 3963WAT    LP219815   5.698   4.612   4.601
 3964WAT     OW19816   6.389   4.014   0.061
 3964WAT    HW119817   6.411   4.105   0.081
 3964WAT    HW219818   6.408   4.005  -0.033
 3964WAT    LP119819   6.428   3.970   0.098
 3964WAT    LP219820   6.321   4.002   0.073
 3965WAT     OW19821   4.470   1.189   0.691
 3965WAT    HW119822   4.555   1.145   0.696
 3965WAT    HW219823   4.455   1.223   0.780
 3965WAT    LP119824   4.472   1.242   0.645
 3965WAT    LP219825   4.420   1.144   0.673
 3966WAT     OW19826   0.491   6.291   2.996
 3966WAT    HW119827   0.400   6.301   3.026
 3966WAT    HW219828   0.543   6.333   3.064
 3966WAT    LP119829   0.507   6.223   2.991
 3966WAT    LP219830   0.500   6.322   2.934
 3967WAT     OW19831   1.896   4.169   3.934
 3967WAT    HW119832   1.967   4.165   3.870
 3967WAT    HW219833   1.820   4.199   3.883
 3967WAT    LP119834   1.884   4.106   3.962
 3967WAT    LP219835   1.911   4.215   3.985
 3968WAT     OW19836   2.504   6.414   0.178
 3968WAT    HW119837   2.581   6.443   0.131
 3968WAT    HW219838   2.538   6.373   0.257
 3968WAT    LP119839   2.462   6.468   0.194
 3968WAT    LP219840   2.468   6.367   0.139
 3969WAT     OW19841   1.873   1.726   5.965
 3969WAT    HW119842   1.939   1.741   6.033
 3969WAT    HW219843   1.902   1.647   5.921
 3969WAT    LP119844   1.810   1.717   5.994
 3969WAT    LP219845   1.870   1.780   5.920
 3970WAT     OW19846   3.983   0.431   4.656
 3970WAT    HW119847   4.032   0.350   4.672
 3970WAT    HW219848   4.012   0.491   4.724
 3970WAT    LP119849   3.998   0.456   4.593
 3970WAT    LP219850   3.914   0.419   4.661
 3971WAT     OW19851   0.227   1.257   0.998
 3971WAT    HW119852   0.234   1.273   0.904
 3971WAT    HW219853   0.135   1.276   1.018
 3971WAT    LP119854   0.242   1.191   1.014
 3971WAT    LP219855   0.269   1.300   1.034
 3972WAT     OW19856   6.343   4.632   2.074
 3972WAT    HW119857   6.429   4.674   2.082
 3972WAT    HW219858   6.321   4.639   1.981
 3972WAT    LP119859   6.346   4.565   2.094
 3972WAT    LP219860   6.296   4.666   2.113
 3973WAT     OW19861   1.919   1.965   3.829
 3973WAT    HW119862   1.918   1.887   3.773
 3973WAT    HW219863   1.978   2.026   3.784
 3973WAT    LP119864   1.855   1.992   3.835
 3973WAT    LP219865   1.944   1.949   3.892
 3974WAT     OW19866   1.598   5.788   5.563
 3974WAT    HW119867   1.627   5.739   5.486
 3974WAT    HW219868   1.535   5.852   5.528
 3974WAT    LP119869   1.567   5.745   5.609
 3974WAT    LP219870   1.652   5.820   5.593
 3975WAT     OW19871   3.743   0.419   5.555
 3975WAT    HW119872   3.755   0.336   5.509
 3975WAT    HW219873   3.700   0.476   5.491
 3975WAT    LP119874   3.703   0.411   5.612
 3975WAT    LP219875   3.805   0.446   5.574
 3976WAT     OW19876   1.175   5.090   4.453
 3976WAT    HW119877   1.098   5.119   4.503
 3976WAT    HW219878   1.143   5.017   4.400
 3976WAT    LP119879   1.198   5.142   4.411
 3976WAT    LP219880   1.226   5.070   4.495
 3977WAT     OW19881   5.105   3.993   4.771
 3977WAT    HW119882   5.113   4.083   4.739
 3977WAT    HW219883   5.070   4.002   4.860
 3977WAT    LP119884   5.061   3.956   4.731
 3977WAT    LP219885   5.168   3.962   4.772
 3978WAT     OW19886   0.885   2.220   3.128
 3978WAT    HW119887   0.821   2.245   3.195
 3978WAT    HW219888   0.960   2.277   3.145
 3978WAT    LP119889   0.903   2.153   3.135
 3978WAT    LP219890   0.860   2.231   3.064
 3979WAT     OW19891   4.865   4.017   5.717
 3979WAT    HW119892   4.831   4.019   5.628
 3979WAT    HW219893   4.897   4.106   5.733
 3979WAT    LP119894   4.814   4.001   5.763
 3979WAT    LP219895   4.917   3.970   5.723
 3980WAT     OW19896   3.464   1.813   0.605
 3980WAT    HW119897   3.476   1.887   0.544
 3980WAT    HW219898   3.395   1.761   0.565
 3980WAT    LP119899   3.523   1.776   0.611
 3980WAT    LP219900   3.444   1.836   0.668
 3981WAT     OW19901   5.029   4.454   2.967
 3981WAT    HW119902   4.935   4.441   2.957
 3981WAT    HW219903   5.046   4.540   2.929
 3981WAT    LP119904   5.048   4.452   3.034
 3981WAT    LP219905   5.064   4.404   2.932
 3982WAT     OW19906   3.921   2.691   2.863
 3982WAT    HW119907   3.959   2.610   2.898
 3982WAT    HW219908   3.889   2.738   2.940
 3982WAT    LP119909   3.969   2.729   2.829
 3982WAT    LP219910   3.868   2.676   2.819
 3983WAT     OW19911   5.312   5.776   0.508
 3983WAT    HW119912   5.240   5.735   0.556
 3983WAT    HW219913   5.294   5.756   0.416
 3983WAT    LP119914   5.313   5.845   0.519
 3983WAT    LP219915   5.374   5.748   0.528
 3984WAT     OW19916   0.458   2.499   1.755
 3984WAT    HW119917   0.503   2.482   1.672
 3984WAT    HW219918   0.369   2.466   1.742
 3984WAT    LP119919   0.490   2.465   1.808
 3984WAT    LP219920   0.457   2.568   1.769
 3985WAT     OW19921   2.897   3.696   5.156
 3985WAT    HW119922   2.942   3.779   5.172
 3985WAT    HW219923   2.951   3.630   5.200
 3985WAT    LP119924   2.832   3.697   5.183
 3985WAT    LP219925   2.893   3.683   5.087
 3986WAT     OW19926   0.091   5.357   2.383
 3986WAT    HW119927   0.008   5.374   2.427
 3986WAT    HW219928   0.158   5.373   2.449
 3986WAT    LP119929   0.094   5.290   2.360
 3986WAT    LP219930   0.099   5.400   2.328
 3987WAT     OW19931   1.745   1.365   2.402
 3987WAT    HW119932   1.830   1.400   2.431
 3987WAT    HW219933   1.725   1.295   2.465
 3987WAT    LP119934   1.696   1.415   2.404
 3987WAT    LP219935   1.750   1.339   2.337
 3988WAT     OW19936   0.165   1.026   0.345
 3988WAT    HW119937   0.116   0.955   0.306
 3988WAT    HW219938   0.157   1.012   0.440
 3988WAT    LP119939   0.232   1.024   0.326
 3988WAT    LP219940   0.138   1.088   0.327
 3989WAT     OW19941   3.785   3.819   2.237
 3989WAT    HW119942   3.797   3.767   2.316
 3989WAT    HW219943   3.766   3.908   2.269
 3989WAT    LP119944   3.844   3.819   2.198
 3989WAT    LP219945   3.732   3.795   2.199
 3990WAT     OW19946   0.385   1.490   4.724
 3990WAT    HW119947   0.306   1.483   4.670
 3990WAT    HW219948   0.376   1.574   4.770
 3990WAT    LP119949   0.387   1.437   4.770
 3990WAT    LP219950   0.443   1.489   4.685
 3991WAT     OW19951   2.740   0.717   2.148
 3991WAT    HW119952   2.769   0.723   2.239
 3991WAT    HW219953   2.819   0.694   2.099
 3991WAT    LP119954   2.691   0.668   2.141
 3991WAT    LP219955   2.715   0.779   2.127
 3992WAT     OW19956   0.418   4.999   0.116
 3992WAT    HW119957   0.395   5.060   0.046
 3992WAT    HW219958   0.513   5.005   0.122
 3992WAT    LP119959   0.388   5.017   0.176
 3992WAT    LP219960   0.399   4.934   0.099
 3993WAT     OW19961   1.735   1.685   1.786
 3993WAT    HW119962   1.799   1.621   1.755
 3993WAT    HW219963   1.737   1.676   1.882
 3993WAT    LP119964   1.753   1.750   1.767
 3993WAT    LP219965   1.671   1.670   1.761
 3994WAT     OW19966   2.817   1.102   0.512
 3994WAT    HW119967   2.840   1.138   0.598
 3994WAT    HW219968   2.729   1.066   0.524
 3994WAT    LP119969   2.816   1.153   0.463
 3994WAT    LP219970   2.862   1.052   0.493
 3995WAT     OW19971   1.363   4.967   5.095
 3995WAT    HW119972   1.359   5.056   5.060
 3995WAT    HW219973   1.337   4.975   5.187
 3995WAT    LP119974   1.319   4.925   5.061
 3995WAT    LP219975   1.428   4.941   5.090
 3996WAT     OW19976   5.543   3.555   3.568
 3996WAT    HW119977   5.619   3.614   3.569
 3996WAT    HW219978   5.476   3.602   3.518
 3996WAT    LP119979   5.559   3.494   3.537
 3996WAT    LP219980   5.520   3.543   3.633
 3997WAT     OW19981   5.532   4.853   5.599
 3997WAT    HW119982   5.516   4.773   5.649
 3997WAT    HW219983   5.548   4.920   5.666
 3997WAT    LP119984   5.587   4.846   5.557
 3997WAT    LP219985   5.476   4.869   5.560
 3998WAT     OW19986   5.727   3.783   6.001
 3998WAT    HW119987   5.634   3.762   5.987
 3998WAT    HW219988   5.727   3.876   6.023
 3998WAT    LP119989   5.753   3.744   6.053
 3998WAT    LP219990   5.763   3.771   5.942
 3999WAT     OW19991   5.757   0.920   4.453
 3999WAT    HW119992   5.729   1.008   4.477
 3999WAT    HW219993   5.687   0.887   4.397
 3999WAT    LP119994   5.818   0.922   4.418
 3999WAT    LP219995   5.764   0.880   4.510
 4000WAT     OW19996   2.114   0.556   3.821
 4000WAT    HW119997   2.165   0.614   3.877
 4000WAT    HW219998   2.041   0.527   3.876
 4000WAT    LP119999   2.091   0.590   3.764
 4000WAT    LP220000   2.152   0.501   3.801
 4001WAT     OW20001   6.058   5.517   4.171
 4001WAT    HW120002   6.043   5.460   4.246
 4001WAT    HW220003   6.079   5.458   4.099
 4001WAT    LP120004   6.001   5.554   4.157
 4001WAT    LP220005   6.112   5.561   4.183
 4002WAT     OW20006   6.326   0.852   2.204
 4002WAT    HW120007   6.282   0.778   2.245
 4002WAT    HW220008   6.402   0.870   2.259
 4002WAT    LP120009   6.346   0.836   2.138
 4002WAT    LP220010   6.283   0.908   2.202
 4003WAT     OW20011   1.685   3.673   5.899
 4003WAT    HW120012   1.774   3.678   5.934
 4003WAT    HW220013   1.634   3.730   5.955
 4003WAT    LP120014   1.684   3.695   5.832
 4003WAT    LP220015   1.661   3.607   5.902
 4004WAT     OW20016   6.185   0.669   4.282
 4004WAT    HW120017   6.188   0.602   4.350
 4004WAT    HW220018   6.123   0.734   4.316
 4004WAT    LP120019   6.249   0.698   4.274
 4004WAT    LP220020   6.163   0.643   4.222
 4005WAT     OW20021   4.341   6.279   5.399
 4005WAT    HW120022   4.421   6.310   5.357
 4005WAT    HW220023   4.369   6.202   5.450
 4005WAT    LP120024   4.314   6.328   5.441
 4005WAT    LP220025   4.293   6.260   5.351
 4006WAT     OW20026   6.699   1.218   3.928
 4006WAT    HW120027   6.620   1.273   3.927
 4006WAT    HW220028   6.747   1.248   4.006
 4006WAT    LP120029   6.682   1.150   3.934
 4006WAT    LP220030   6.737   1.228   3.870
 4007WAT     OW20031   2.239   3.696   0.810
 4007WAT    HW120032   2.251   3.789   0.831
 4007WAT    HW220033   2.317   3.653   0.846
 4007WAT    LP120034   2.181   3.671   0.839
 4007WAT    LP220035   2.236   3.687   0.740
 4008WAT     OW20036   2.364   6.020   2.196
 4008WAT    HW120037   2.313   6.051   2.121
 4008WAT    HW220038   2.429   5.962   2.158
 4008WAT    LP120039   2.395   6.074   2.228
 4008WAT    LP220040   2.323   5.986   2.241
 4009WAT     OW20041   3.315   4.571   4.128
 4009WAT    HW120042   3.319   4.610   4.216
 4009WAT    HW220043   3.227   4.591   4.097
 4009WAT    LP120044   3.363   4.599   4.086
 4009WAT    LP220045   3.325   4.501   4.132
 4010WAT     OW20046   1.185   4.940   3.643
 4010WAT    HW120047   1.178   4.849   3.670
 4010WAT    HW220048   1.269   4.946   3.598
 4010WAT    LP120049   1.133   4.958   3.600
 4010WAT    LP220050   1.184   4.983   3.699
 4011WAT     OW20051   5.553   1.342   6.443
 4011WAT    HW120052   5.575   1.424   6.400
 4011WAT    HW220053   5.610   1.338   6.520
 4011WAT    LP120054   5.485   1.342   6.463
 4011WAT    LP220055   5.564   1.287   6.401
 4012WAT     OW20056   1.770   3.376   1.396
 4012WAT    HW120057   1.677   3.371   1.419
 4012WAT    HW220058   1.773   3.357   1.302
 4012WAT    LP120059   1.795   3.440   1.409
 4012WAT    LP220060   1.807   3.329   1.432
 4013WAT     OW20061   0.811   3.449   4.891
 4013WAT    HW120062   0.888   3.506   4.899
 4013WAT    HW220063   0.760   3.487   4.819
 4013WAT    LP120064   0.829   3.384   4.876
 4013WAT    LP220065   0.773   3.450   4.951
 4014WAT     OW20066   1.030   0.063   2.231
 4014WAT    HW120067   1.073   0.106   2.306
 4014WAT    HW220068   0.979   0.133   2.190
 4014WAT    LP120069   1.078   0.038   2.187
 4014WAT    LP220070   0.989   0.011   2.252
 4015WAT     OW20071   0.744   6.592   0.934
 4015WAT    HW120072   0.732   6.498   0.936
 4015WAT    HW220073   0.661   6.628   0.964
 4015WAT    LP120074   0.796   6.612   0.977
 4015WAT    LP220075   0.758   6.614   0.869
 4016WAT     OW20076   1.087   1.893   1.355
 4016WAT    HW120077   1.182   1.902   1.350
 4016WAT    HW220078   1.053   1.973   1.315
 4016WAT    LP120079   1.065   1.837   1.320
 4016WAT    LP220080   1.066   1.888   1.422
 4017WAT     OW20081   4.218   4.054   4.472
 4017WAT    HW120082   4.203   3.977   4.418
 4017WAT    HW220083   4.179   4.126   4.422
 4017WAT    LP120084   4.186   4.047   4.534
 4017WAT    LP220085   4.286   4.065   4.482
 4018WAT     OW20086   4.829   5.205   3.506
 4018WAT    HW120087   4.854   5.231   3.417
 4018WAT    HW220088   4.741   5.240   3.518
 4018WAT    LP120089   4.829   5.135   3.512
 4018WAT    LP220090   4.874   5.232   3.553
 4019WAT     OW20091   0.079   6.542   6.299
 4019WAT    HW120092   0.118   6.491   6.228
 4019WAT    HW220093   0.120   6.507   6.378
 4019WAT    LP120094   0.093   6.610   6.291
 4019WAT    LP220095   0.010   6.533   6.301
 4020WAT     OW20096   0.077   6.513   1.156
 4020WAT    HW120097   0.125   6.436   1.126
 4020WAT    HW220098   0.125   6.587   1.119
 4020WAT    LP120099   0.011   6.511   1.133
 4020WAT    LP220100   0.078   6.515   1.226
 4021WAT     OW20101   2.622   6.671   1.158
 4021WAT    HW120102   2.712   6.639   1.159
 4021WAT    HW220103   2.571   6.603   1.200
 4021WAT    LP120104   2.617   6.731   1.194
 4021WAT    LP220105   2.600   6.682   1.092
 4022WAT     OW20106   6.209   6.058   5.022
 4022WAT    HW120107   6.290   6.100   5.050
 4022WAT    HW220108   6.176   6.015   5.101
 4022WAT    LP120109   6.163   6.105   4.999
 4022WAT    LP220110   6.221   6.011   4.972
 4023WAT     OW20111   1.785   6.505   2.130
 4023WAT    HW120112   1.741   6.583   2.093
 4023WAT    HW220113   1.873   6.536   2.151
 4023WAT    LP120114   1.752   6.483   2.187
 4023WAT    LP220115   1.788   6.454   2.082
 4024WAT     OW20116   5.266   5.555   4.746
 4024WAT    HW120117   5.242   5.495   4.815
 4024WAT    HW220118   5.355   5.583   4.768
 4024WAT    LP120119   5.265   5.524   4.683
 4024WAT    LP220120   5.223   5.611   4.745
 4025WAT     OW20121   2.972   2.409   4.279
 4025WAT    HW120122   2.921   2.391   4.357
 4025WAT    HW220123   3.059   2.431   4.312
 4025WAT    LP120124   2.975   2.352   4.238
 4025WAT    LP220125   2.945   2.463   4.243
 4026WAT     OW20126   3.728   0.783   1.205
 4026WAT    HW120127   3.702   0.769   1.114
 4026WAT    HW220128   3.683   0.864   1.231
 4026WAT    LP120129   3.707   0.730   1.245
 4026WAT    LP220130   3.797   0.790   1.210
 4027WAT     OW20131   1.985   3.699   5.032
 4027WAT    HW120132   1.970   3.675   5.123
 4027WAT    HW220133   2.077   3.723   5.028
 4027WAT    LP120134   1.972   3.645   4.990
 4027WAT    LP220135   1.944   3.753   5.014
 4028WAT     OW20136   0.332   1.142   3.856
 4028WAT    HW120137   0.398   1.099   3.801
 4028WAT    HW220138   0.291   1.070   3.905
 4028WAT    LP120139   0.361   1.188   3.899
 4028WAT    LP220140   0.284   1.174   3.816
 4029WAT     OW20141   6.736   6.304   4.735
 4029WAT    HW120142   6.795   6.379   4.739
 4029WAT    HW220143   6.781   6.236   4.786
 4029WAT    LP120144   6.674   6.319   4.764
 4029WAT    LP220145   6.726   6.283   4.669
 4030WAT     OW20146   4.037   2.579   6.462
 4030WAT    HW120147   4.093   2.505   6.440
 4030WAT    HW220148   3.977   2.545   6.529
 4030WAT    LP120149   4.075   2.632   6.488
 4030WAT    LP220150   4.001   2.601   6.406
 4031WAT     OW20151   2.394   5.786   1.764
 4031WAT    HW120152   2.372   5.735   1.842
 4031WAT    HW220153   2.467   5.737   1.724
 4031WAT    LP120154   2.340   5.788   1.720
 4031WAT    LP220155   2.414   5.851   1.780
 4032WAT     OW20156   1.720   0.477   1.875
 4032WAT    HW120157   1.742   0.514   1.960
 4032WAT    HW220158   1.661   0.542   1.836
 4032WAT    LP120159   1.777   0.470   1.835
 4032WAT    LP220160   1.688   0.416   1.882
 4033WAT     OW20161   4.473   0.798   5.197
 4033WAT    HW120162   4.544   0.822   5.137
 4033WAT    HW220163   4.517   0.786   5.282
 4033WAT    LP120164   4.425   0.848   5.201
 4033WAT    LP220165   4.443   0.738   5.177
 4034WAT     OW20166   0.862   4.407   1.988
 4034WAT    HW120167   0.853   4.450   2.073
 4034WAT    HW220168   0.898   4.474   1.931
 4034WAT    LP120169   0.906   4.352   1.993
 4034WAT    LP220170   0.800   4.385   1.965
 4035WAT     OW20171   4.959   5.784   1.498
 4035WAT    HW120172   4.967   5.731   1.419
 4035WAT    HW220173   4.875   5.758   1.536
 4035WAT    LP120174   5.012   5.771   1.542
 4035WAT    LP220175   4.959   5.853   1.482
 4036WAT     OW20176   4.051   1.984   4.014
 4036WAT    HW120177   4.016   2.053   3.957
 4036WAT    HW220178   4.082   2.030   4.091
 4036WAT    LP120179   4.001   1.938   4.030
 4036WAT    LP220180   4.104   1.950   3.982
 4037WAT     OW20181   2.796   5.769   5.597
 4037WAT    HW120182   2.842   5.846   5.630
 4037WAT    HW220183   2.755   5.799   5.516
 4037WAT    LP120184   2.841   5.717   5.584
 4037WAT    LP220185   2.748   5.747   5.643
 4038WAT     OW20186   6.030   2.965   3.011
 4038WAT    HW120187   6.077   2.892   2.969
 4038WAT    HW220188   5.938   2.949   2.990
 4038WAT    LP120189   6.040   2.965   3.080
 4038WAT    LP220190   6.051   3.026   2.984
 4039WAT     OW20191   6.367   0.779   1.947
 4039WAT    HW120192   6.361   0.816   2.035
 4039WAT    HW220193   6.286   0.730   1.936
 4039WAT    LP120194   6.373   0.829   1.899
 4039WAT    LP220195   6.422   0.736   1.942
 4040WAT     OW20196   1.651   5.040   2.834
 4040WAT    HW120197   1.596   5.098   2.887
 4040WAT    HW220198   1.722   5.014   2.892
 4040WAT    LP120199   1.615   4.984   2.812
 4040WAT    LP220200   1.676   5.074   2.778
 4041WAT     OW20201   2.721   0.908   3.176
 4041WAT    HW120202   2.664   0.908   3.253
 4041WAT    HW220203   2.801   0.865   3.205
 4041WAT    LP120204   2.691   0.873   3.124
 4041WAT    LP220205   2.734   0.974   3.156
 4042WAT     OW20206   5.553   3.056   5.642
 4042WAT    HW120207   5.549   3.073   5.548
 4042WAT    HW220208   5.500   3.124   5.682
 4042WAT    LP120209   5.527   2.992   5.657
 4042WAT    LP220210   5.619   3.059   5.665
 4043WAT     OW20211   4.501   0.691   4.006
 4043WAT    HW120212   4.479   0.600   3.987
 4043WAT    HW220213   4.565   0.715   3.939
 4043WAT    LP120214   4.444   0.732   4.002
 4043WAT    LP220215   4.528   0.697   4.070
 4044WAT     OW20216   0.993   0.319   2.626
 4044WAT    HW120217   0.913   0.279   2.660
 4044WAT    HW220218   1.049   0.331   2.703
 4044WAT    LP120219   1.024   0.277   2.579
 4044WAT    LP220220   0.978   0.381   2.596
 4045WAT     OW20221   1.222   3.563   2.005
 4045WAT    HW120222   1.147   3.590   2.058
 4045WAT    HW220223   1.269   3.644   1.988
 4045WAT    LP120224   1.263   3.518   2.041
 4045WAT    LP220225   1.202   3.533   1.945
 4046WAT     OW20226   4.266   2.336   2.275
 4046WAT    HW120227   4.307   2.299   2.353
 4046WAT    HW220228   4.242   2.425   2.301
 4046WAT    LP120229   4.311   2.337   2.222
 4046WAT    LP220230   4.209   2.300   2.257
 4047WAT     OW20231   1.451   3.890   1.704
 4047WAT    HW120232   1.520   3.837   1.665
 4047WAT    HW220233   1.393   3.911   1.631
 4047WAT    LP120234   1.417   3.854   1.754
 4047WAT    LP220235   1.478   3.949   1.732
 4048WAT     OW20236   5.853   4.018   2.480
 4048WAT    HW120237   5.920   4.032   2.413
 4048WAT    HW220238   5.865   4.090   2.541
 4048WAT    LP120239   5.789   4.020   2.452
 4048WAT    LP220240   5.863   3.956   2.512
 4049WAT     OW20241   3.219   3.295   3.492
 4049WAT    HW120242   3.203   3.247   3.574
 4049WAT    HW220243   3.277   3.238   3.442
 4049WAT    LP120244   3.158   3.305   3.457
 4049WAT    LP220245   3.249   3.357   3.504
 4050WAT     OW20246   2.879   2.120   3.044
 4050WAT    HW120247   2.941   2.049   3.055
 4050WAT    HW220248   2.897   2.180   3.117
 4050WAT    LP120249   2.888   2.153   2.983
 4050WAT    LP220250   2.813   2.097   3.048
 4051WAT     OW20251   1.391   2.368   2.605
 4051WAT    HW120252   1.337   2.437   2.643
 4051WAT    HW220253   1.330   2.310   2.560
 4051WAT    LP120254   1.437   2.395   2.560
 4051WAT    LP220255   1.426   2.334   2.655
 4052WAT     OW20256   5.015   2.507   1.304
 4052WAT    HW120257   5.029   2.554   1.222
 4052WAT    HW220258   5.021   2.574   1.372
 4052WAT    LP120259   4.952   2.477   1.305
 4052WAT    LP220260   5.064   2.458   1.313
 4053WAT     OW20261   2.598   2.886   5.029
 4053WAT    HW120262   2.621   2.904   4.938
 4053WAT    HW220263   2.579   2.972   5.067
 4053WAT    LP120264   2.542   2.844   5.033
 4053WAT    LP220265   2.652   2.856   5.063
 4054WAT     OW20266   4.365   1.734   1.292
 4054WAT    HW120267   4.343   1.676   1.364
 4054WAT    HW220268   4.438   1.691   1.248
 4054WAT    LP120269   4.311   1.742   1.249
 4054WAT    LP220270   4.385   1.797   1.317
 4055WAT     OW20271   1.361   5.997   6.325
 4055WAT    HW120272   1.411   5.917   6.340
 4055WAT    HW220273   1.347   5.999   6.230
 4055WAT    LP120274   1.300   5.995   6.359
 4055WAT    LP220275   1.398   6.053   6.345
 4056WAT     OW20276   5.501   0.179   2.999
 4056WAT    HW120277   5.531   0.213   3.084
 4056WAT    HW220278   5.534   0.242   2.936
 4056WAT    LP120279   5.528   0.115   2.988
 4056WAT    LP220280   5.432   0.176   2.997
 4057WAT     OW20281   3.387   2.430   1.834
 4057WAT    HW120282   3.309   2.479   1.805
 4057WAT    HW220283   3.415   2.475   1.913
 4057WAT    LP120284   3.370   2.364   1.847
 4057WAT    LP220285   3.437   2.432   1.785
 4058WAT     OW20286   1.164   4.637   5.079
 4058WAT    HW120287   1.184   4.696   5.006
 4058WAT    HW220288   1.158   4.694   5.155
 4058WAT    LP120289   1.103   4.604   5.068
 4058WAT    LP220290   1.215   4.589   5.087
 4059WAT     OW20291   6.083   1.361   3.973
 4059WAT    HW120292   6.114   1.409   4.050
 4059WAT    HW220293   6.122   1.406   3.899
 4059WAT    LP120294   6.105   1.294   3.976
 4059WAT    LP220295   6.013   1.362   3.970
 4060WAT     OW20296   5.277   5.479   1.804
 4060WAT    HW120297   5.330   5.558   1.800
 4060WAT    HW220298   5.340   5.407   1.806
 4060WAT    LP120299   5.237   5.478   1.861
 4060WAT    LP220300   5.236   5.474   1.747
 4061WAT     OW20301   1.478   0.097   4.986
 4061WAT    HW120302   1.399   0.044   4.997
 4061WAT    HW220303   1.457   0.180   5.029
 4061WAT    LP120304   1.532   0.066   5.018
 4061WAT    LP220305   1.492   0.106   4.919
 4062WAT     OW20306   0.561   6.450   0.700
 4062WAT    HW120307   0.490   6.487   0.752
 4062WAT    HW220308   0.608   6.393   0.761
 4062WAT    LP120309   0.536   6.414   0.646
 4062WAT    LP220310   0.604   6.501   0.677
 4063WAT     OW20311   0.388   5.615   5.274
 4063WAT    HW120312   0.453   5.553   5.306
 4063WAT    HW220313   0.311   5.562   5.255
 4063WAT    LP120314   0.374   5.663   5.323
 4063WAT    LP220315   0.411   5.648   5.216
 4064WAT     OW20316   3.627   1.726   2.894
 4064WAT    HW120317   3.588   1.685   2.817
 4064WAT    HW220318   3.693   1.785   2.858
 4064WAT    LP120319   3.579   1.762   2.930
 4064WAT    LP220320   3.657   1.678   2.936
 4065WAT     OW20321   1.209   0.738   3.506
 4065WAT    HW120322   1.187   0.697   3.589
 4065WAT    HW220323   1.125   0.763   3.468
 4065WAT    LP120324   1.250   0.794   3.516
 4065WAT    LP220325   1.242   0.692   3.464
 4066WAT     OW20326   0.719   5.147   1.558
 4066WAT    HW120327   0.809   5.117   1.570
 4066WAT    HW220328   0.665   5.074   1.587
 4066WAT    LP120329   0.707   5.204   1.596
 4066WAT    LP220330   0.707   5.160   1.490
 4067WAT     OW20331   3.380   2.199   3.771
 4067WAT    HW120332   3.327   2.168   3.845
 4067WAT    HW220333   3.326   2.268   3.731
 4067WAT    LP120334   3.440   2.225   3.794
 4067WAT    LP220335   3.392   2.147   3.726
 4068WAT     OW20336   0.275   0.702   4.354
 4068WAT    HW120337   0.291   0.637   4.421
 4068WAT    HW220338   0.345   0.766   4.364
 4068WAT    LP120339   0.277   0.674   4.290
 4068WAT    LP220340   0.212   0.733   4.363
 4069WAT     OW20341   2.102   3.148   0.958
 4069WAT    HW120342   2.043   3.131   0.884
 4069WAT    HW220343   2.160   3.072   0.960
 4069WAT    LP120344   2.139   3.207   0.947
 4069WAT    LP220345   2.066   3.154   1.018
 4070WAT     OW20346   4.968   4.376   2.147
 4070WAT    HW120347   4.945   4.468   2.131
 4070WAT    HW220348   5.029   4.353   2.077
 4070WAT    LP120349   4.998   4.369   2.210
 4070WAT    LP220350   4.911   4.335   2.145
 4071WAT     OW20351   1.572   3.039   1.367
 4071WAT    HW120352   1.629   3.020   1.441
 4071WAT    HW220353   1.561   3.134   1.369
 4071WAT    LP120354   1.602   3.020   1.307
 4071WAT    LP220355   1.511   3.007   1.374
 4072WAT     OW20356   0.210   5.201   4.213
 4072WAT    HW120357   0.130   5.242   4.244
 4072WAT    HW220358   0.224   5.127   4.273
 4072WAT    LP120359   0.201   5.178   4.147
 4072WAT    LP220360   0.264   5.245   4.215
 4073WAT     OW20361   1.313   5.667   1.969
 4073WAT    HW120362   1.351   5.644   2.054
 4073WAT    HW220363   1.353   5.605   1.908
 4073WAT    LP120364   1.243   5.660   1.971
 4073WAT    LP220365   1.329   5.733   1.952
 4074WAT     OW20366   5.972   3.668   2.048
 4074WAT    HW120367   5.908   3.706   1.987
 4074WAT    HW220368   5.940   3.580   2.065
 4074WAT    LP120369   6.036   3.665   2.018
 4074WAT    LP220370   5.976   3.705   2.107
 4075WAT     OW20371   4.708   2.712   5.796
 4075WAT    HW120372   4.729   2.721   5.889
 4075WAT    HW220373   4.618   2.745   5.788
 4075WAT    LP120374   4.752   2.749   5.757
 4075WAT    LP220375   4.711   2.645   5.777
 4076WAT     OW20376   2.476   2.803   1.254
 4076WAT    HW120377   2.561   2.799   1.298
 4076WAT    HW220378   2.479   2.883   1.202
 4076WAT    LP120379   2.467   2.747   1.212
 4076WAT    LP220380   2.424   2.805   1.301
 4077WAT     OW20381   3.030   1.471   2.893
 4077WAT    HW120382   3.003   1.557   2.861
 4077WAT    HW220383   3.123   1.482   2.915
 4077WAT    LP120384   2.993   1.454   2.950
 4077WAT    LP220385   3.021   1.422   2.844
 4078WAT     OW20386   4.805   0.396   0.503
 4078WAT    HW120387   4.795   0.404   0.597
 4078WAT    HW220388   4.827   0.304   0.489
 4078WAT    LP120389   4.746   0.412   0.470
 4078WAT    LP220390   4.857   0.437   0.479
 4079WAT     OW20391   5.448   4.110   6.443
 4079WAT    HW120392   5.376   4.141   6.388
 4079WAT    HW220393   5.431   4.017   6.456
 4079WAT    LP120394   5.510   4.120   6.411
 4079WAT    LP220395   5.449   4.144   6.504
 4080WAT     OW20396   6.623   0.614   2.953
 4080WAT    HW120397   6.620   0.645   2.863
 4080WAT    HW220398   6.545   0.651   2.994
 4080WAT    LP120399   6.622   0.544   2.956
 4080WAT    LP220400   6.681   0.637   2.985
 4081WAT     OW20401   2.926   2.618   4.829
 4081WAT    HW120402   2.942   2.684   4.897
 4081WAT    HW220403   2.834   2.628   4.807
 4081WAT    LP120404   2.966   2.630   4.773
 4081WAT    LP220405   2.939   2.554   4.854
 4082WAT     OW20406   1.953   5.829   0.318
 4082WAT    HW120407   1.961   5.791   0.230
 4082WAT    HW220408   1.866   5.868   0.320
 4082WAT    LP120409   1.959   5.779   0.367
 4082WAT    LP220410   2.003   5.877   0.328
 4083WAT     OW20411   4.337   4.448   0.104
 4083WAT    HW120412   4.303   4.373   0.055
 4083WAT    HW220413   4.405   4.410   0.160
 4083WAT    LP120414   4.364   4.496   0.061
 4083WAT    LP220415   4.286   4.476   0.143
 4084WAT     OW20416   0.891   2.224   4.743
 4084WAT    HW120417   0.934   2.146   4.707
 4084WAT    HW220418   0.878   2.203   4.835
 4084WAT    LP120419   0.932   2.280   4.735
 4084WAT    LP220420   0.830   2.234   4.711
 4085WAT     OW20421   5.225   0.802   5.819
 4085WAT    HW120422   5.268   0.726   5.858
 4085WAT    HW220423   5.163   0.831   5.886
 4085WAT    LP120424   5.272   0.852   5.806
 4085WAT    LP220425   5.192   0.784   5.760
 4086WAT     OW20426   2.361   3.432   1.412
 4086WAT    HW120427   2.285   3.452   1.359
 4086WAT    HW220428   2.326   3.418   1.500
 4086WAT    LP120429   2.393   3.374   1.389
 4086WAT    LP220430   2.407   3.485   1.411
 4087WAT     OW20431   2.983   1.961   0.144
 4087WAT    HW120432   3.030   1.948   0.226
 4087WAT    HW220433   2.932   1.880   0.134
 4087WAT    LP120434   2.940   2.017   0.148
 4087WAT    LP220435   3.027   1.969   0.091
 4088WAT     OW20436   1.119   2.753   1.097
 4088WAT    HW120437   1.145   2.667   1.131
 4088WAT    HW220438   1.106   2.738   1.003
 4088WAT    LP120439   1.059   2.774   1.127
 4088WAT    LP220440   1.169   2.800   1.108
 4089WAT     OW20441   4.271   0.590   0.189
 4089WAT    HW120442   4.358   0.628   0.173
 4089WAT    HW220443   4.289   0.511   0.239
 4089WAT    LP120444   4.232   0.634   0.226
 4089WAT    LP220445   4.240   0.575   0.128
 4090WAT     OW20446   3.886   4.187   0.052
 4090WAT    HW120447   3.791   4.187   0.065
 4090WAT    HW220448   3.916   4.266   0.098
 4090WAT    LP120449   3.915   4.130   0.079
 4090WAT    LP220450   3.901   4.191  -0.016
 4091WAT     OW20451   6.185   3.541   4.339
 4091WAT    HW120452   6.141   3.541   4.254
 4091WAT    HW220453   6.118   3.569   4.401
 4091WAT    LP120454   6.208   3.476   4.354
 4091WAT    LP220455   6.239   3.585   4.339
 4092WAT     OW20456   4.036   0.119   4.428
 4092WAT    HW120457   4.106   0.075   4.380
 4092WAT    HW220458   4.059   0.212   4.424
 4092WAT    LP120459   3.974   0.107   4.397
 4092WAT    LP220460   4.034   0.097   4.494
 4093WAT     OW20461   6.795   1.652   4.430
 4093WAT    HW120462   6.819   1.712   4.360
 4093WAT    HW220463   6.703   1.632   4.414
 4093WAT    LP120464   6.833   1.593   4.426
 4093WAT    LP220465   6.803   1.681   4.493
 4094WAT     OW20466   4.665   6.080   3.085
 4094WAT    HW120467   4.654   6.161   3.036
 4094WAT    HW220468   4.706   6.020   3.022
 4094WAT    LP120469   4.707   6.090   3.140
 4094WAT    LP220470   4.603   6.055   3.106
 4095WAT     OW20471   1.979   6.112   1.212
 4095WAT    HW120472   1.905   6.143   1.159
 4095WAT    HW220473   1.988   6.178   1.281
 4095WAT    LP120474   1.965   6.049   1.239
 4095WAT    LP220475   2.037   6.109   1.173
 4096WAT     OW20476   2.363   0.797   2.978
 4096WAT    HW120477   2.317   0.734   2.922
 4096WAT    HW220478   2.456   0.783   2.959
 4096WAT    LP120479   2.345   0.863   2.961
 4096WAT    LP220480   2.349   0.785   3.045
 4097WAT     OW20481   3.706   3.994   4.262
 4097WAT    HW120482   3.707   4.001   4.167
 4097WAT    HW220483   3.619   3.961   4.283
 4097WAT    LP120484   3.756   3.950   4.284
 4097WAT    LP220485   3.716   4.057   4.292
 4098WAT     OW20486   5.466   3.400   4.871
 4098WAT    HW120487   5.466   3.359   4.957
 4098WAT    HW220488   5.519   3.479   4.882
 4098WAT    LP120489   5.494   3.358   4.823
 4098WAT    LP220490   5.401   3.417   4.851
 4099WAT     OW20491   2.474   1.191   3.914
 4099WAT    HW120492   2.499   1.155   3.999
 4099WAT    HW220493   2.428   1.120   3.871
 4099WAT    LP120494   2.433   1.247   3.922
 4099WAT    LP220495   2.531   1.209   3.878
 4100WAT     OW20496   3.790   0.398   3.301
 4100WAT    HW120497   3.754   0.362   3.382
 4100WAT    HW220498   3.876   0.433   3.327
 4100WAT    LP120499   3.798   0.347   3.253
 4100WAT    LP220500   3.749   0.448   3.276
 4101WAT     OW20501   3.064   5.153   6.348
 4101WAT    HW120502   3.008   5.153   6.271
 4101WAT    HW220503   3.045   5.070   6.392
 4101WAT    LP120504   3.131   5.156   6.330
 4101WAT    LP220505   3.048   5.207   6.390
 4102WAT     OW20506   4.229   4.114   2.787
 4102WAT    HW120507   4.323   4.110   2.767
 4102WAT    HW220508   4.226   4.131   2.881
 4102WAT    LP120509   4.198   4.165   2.752
 4102WAT    LP220510   4.198   4.053   2.772
 4103WAT     OW20511   4.128   4.942   4.223
 4103WAT    HW120512   4.090   5.023   4.188
 4103WAT    HW220513   4.054   4.883   4.233
 4103WAT    LP120514   4.175   4.915   4.179
 4103WAT    LP220515   4.159   4.954   4.285
 4104WAT     OW20516   0.057   4.335   4.070
 4104WAT    HW120517   0.040   4.410   4.126
 4104WAT    HW220518   0.109   4.370   3.998
 4104WAT    LP120519   0.094   4.286   4.105
 4104WAT    LP220520  -0.002   4.307   4.047
 4105WAT     OW20521   6.417   0.462   5.395
 4105WAT    HW120522   6.482   0.518   5.352
 4105WAT    HW220523   6.404   0.501   5.481
 4105WAT    LP120524   6.358   0.460   5.359
 4105WAT    LP220525   6.442   0.396   5.401
 4106WAT     OW20526   5.547   4.681   4.306
 4106WAT    HW120527   5.592   4.598   4.289
 4106WAT    HW220528   5.470   4.656   4.357
 4106WAT    LP120529   5.589   4.724   4.343
 4106WAT    LP220530   5.529   4.712   4.246
 4107WAT     OW20531   3.111   5.439   3.109
 4107WAT    HW120532   3.125   5.350   3.142
 4107WAT    HW220533   3.054   5.427   3.033
 4107WAT    LP120534   3.080   5.479   3.158
 4107WAT    LP220535   3.172   5.468   3.090
 4108WAT     OW20536   5.972   4.956   4.571
 4108WAT    HW120537   6.036   5.027   4.572
 4108WAT    HW220538   5.956   4.939   4.478
 4108WAT    LP120539   5.999   4.899   4.602
 4108WAT    LP220540   5.913   4.975   4.603
 4109WAT     OW20541   3.003   4.571   3.042
 4109WAT    HW120542   2.925   4.585   2.989
 4109WAT    HW220543   3.034   4.659   3.063
 4109WAT    LP120544   2.988   4.535   3.100
 4109WAT    LP220545   3.052   4.536   3.005
 4110WAT     OW20546   0.822   2.461   1.299
 4110WAT    HW120547   0.814   2.391   1.364
 4110WAT    HW220548   0.745   2.451   1.244
 4110WAT    LP120549   0.822   2.524   1.331
 4110WAT    LP220550   0.881   2.454   1.262
 4111WAT     OW20551   4.856   1.898   2.597
 4111WAT    HW120552   4.904   1.823   2.632
 4111WAT    HW220553   4.776   1.903   2.649
 4111WAT    LP120554   4.894   1.957   2.605
 4111WAT    LP220555   4.841   1.889   2.529
 4112WAT     OW20556   1.025   3.177   4.283
 4112WAT    HW120557   1.054   3.086   4.287
 4112WAT    HW220558   1.053   3.207   4.197
 4112WAT    LP120559   0.955   3.181   4.289
 4112WAT    LP220560   1.055   3.215   4.334
 4113WAT     OW20561   0.558   3.445   2.983
 4113WAT    HW120562   0.567   3.350   2.972
 4113WAT    HW220563   0.476   3.455   3.032
 4113WAT    LP120564   0.612   3.471   3.019
 4113WAT    LP220565   0.553   3.477   2.921
 4114WAT     OW20566   6.733   5.175   1.445
 4114WAT    HW120567   6.800   5.184   1.377
 4114WAT    HW220568   6.783   5.164   1.526
 4114WAT    LP120569   6.693   5.233   1.448
 4114WAT    LP220570   6.693   5.119   1.432
 4115WAT     OW20571   1.867   0.051   0.182
 4115WAT    HW120572   1.861   0.083   0.092
 4115WAT    HW220573   1.938  -0.012   0.180
 4115WAT    LP120574   1.881   0.104   0.226
 4115WAT    LP220575   1.807   0.020   0.202
 4116WAT     OW20576   0.526   1.196   5.130
 4116WAT    HW120577   0.470   1.184   5.053
 4116WAT    HW220578   0.482   1.147   5.199
 4116WAT    LP120579   0.590   1.170   5.118
 4116WAT    LP220580   0.530   1.264   5.146
 4117WAT     OW20581   0.086   2.561   0.148
 4117WAT    HW120582   0.075   2.486   0.090
 4117WAT    HW220583   0.083   2.637   0.090
 4117WAT    LP120584   0.033   2.564   0.194
 4117WAT    LP220585   0.147   2.558   0.182
 4118WAT     OW20586   2.219   3.623   1.954
 4118WAT    HW120587   2.153   3.675   1.909
 4118WAT    HW220588   2.170   3.552   1.996
 4118WAT    LP120589   2.266   3.597   1.909
 4118WAT    LP220590   2.253   3.662   2.003
 4119WAT     OW20591   3.530   1.643   5.323
 4119WAT    HW120592   3.548   1.699   5.247
 4119WAT    HW220593   3.581   1.682   5.394
 4119WAT    LP120594   3.462   1.644   5.338
 4119WAT    LP220595   3.551   1.578   5.310
 4120WAT     OW20596   0.423   4.870   2.619
 4120WAT    HW120597   0.506   4.874   2.571
 4120WAT    HW220598   0.449   4.870   2.711
 4120WAT    LP120599   0.383   4.926   2.604
 4120WAT    LP220600   0.388   4.811   2.603
 4121WAT     OW20601   5.988   5.089   6.416
 4121WAT    HW120602   5.942   5.166   6.384
 4121WAT    HW220603   5.991   5.100   6.511
 4121WAT    LP120604   5.954   5.030   6.399
 4121WAT    LP220605   6.053   5.086   6.390
 4122WAT     OW20606   1.260   2.199   0.290
 4122WAT    HW120607   1.310   2.118   0.277
 4122WAT    HW220608   1.169   2.170   0.297
 4122WAT    LP120609   1.280   2.231   0.349
 4122WAT    LP220610   1.268   2.242   0.236
 4123WAT     OW20611   3.583   3.765   0.140
 4123WAT    HW120612   3.576   3.852   0.178
 4123WAT    HW220613   3.511   3.716   0.180
 4123WAT    LP120614   3.576   3.767   0.071
 4123WAT    LP220615   3.645   3.736   0.157
 4124WAT     OW20616   1.655   0.863   2.907
 4124WAT    HW120617   1.597   0.896   2.976
 4124WAT    HW220618   1.678   0.774   2.936
 4124WAT    LP120619   1.621   0.861   2.846
 4124WAT    LP220620   1.712   0.903   2.902
 4125WAT     OW20621   4.373   2.301   3.767
 4125WAT    HW120622   4.321   2.305   3.687
 4125WAT    HW220623   4.347   2.219   3.808
 4125WAT    LP120624   4.442   2.300   3.751
 4125WAT    LP220625   4.359   2.355   3.808
 4126WAT     OW20626   5.798   5.059   1.921
 4126WAT    HW120627   5.885   5.021   1.909
 4126WAT    HW220628   5.764   5.069   1.832
 4126WAT    LP120629   5.757   5.015   1.958
 4126WAT    LP220630   5.802   5.121   1.954
 4127WAT     OW20631   6.748   2.970   2.930
 4127WAT    HW120632   6.807   3.001   2.862
 4127WAT    HW220633   6.738   3.045   2.989
 4127WAT    LP120634   6.686   2.952   2.903
 4127WAT    LP220635   6.776   2.916   2.964
 4128WAT     OW20636   3.144   0.036   3.975
 4128WAT    HW120637   3.099   0.035   4.060
 4128WAT    HW220638   3.150   0.128   3.952
 4128WAT    LP120639   3.208   0.007   3.980
 4128WAT    LP220640   3.107   0.001   3.927
 4129WAT     OW20641   4.082   5.852   0.545
 4129WAT    HW120642   4.154   5.913   0.531
 4129WAT    HW220643   4.030   5.892   0.614
 4129WAT    LP120644   4.043   5.845   0.486
 4129WAT    LP220645   4.105   5.790   0.564
 4130WAT     OW20646   2.097   2.731   4.029
 4130WAT    HW120647   2.084   2.825   4.035
 4130WAT    HW220648   2.168   2.720   3.965
 4130WAT    LP120649   2.115   2.704   4.091
 4130WAT    LP220650   2.039   2.699   4.006
 4131WAT     OW20651   0.917   6.657   2.877
 4131WAT    HW120652   0.893   6.748   2.858
 4131WAT    HW220653   0.993   6.665   2.935
 4131WAT    LP120654   0.865   6.624   2.909
 4131WAT    LP220655   0.934   6.624   2.818
 4132WAT     OW20656   3.424   4.106   5.651
 4132WAT    HW120657   3.345   4.074   5.696
 4132WAT    HW220658   3.462   4.168   5.713
 4132WAT    LP120659   3.468   4.053   5.639
 4132WAT    LP220660   3.407   4.137   5.591
 4133WAT     OW20661   4.517   0.888   5.656
 4133WAT    HW120662   4.497   0.974   5.620
 4133WAT    HW220663   4.456   0.878   5.730
 4133WAT    LP120664   4.505   0.837   5.608
 4133WAT    LP220665   4.583   0.885   5.678
 4134WAT     OW20666   6.337   1.279   6.434
 4134WAT    HW120667   6.418   1.307   6.475
 4134WAT    HW220668   6.326   1.340   6.360
 4134WAT    LP120669   6.341   1.213   6.411
 4134WAT    LP220670   6.283   1.285   6.479
 4135WAT     OW20671   5.589   6.552   2.038
 4135WAT    HW120672   5.597   6.620   1.970
 4135WAT    HW220673   5.626   6.473   1.997
 4135WAT    LP120674   5.626   6.570   2.094
 4135WAT    LP220675   5.522   6.542   2.055
 4136WAT     OW20676   5.508   6.632   2.701
 4136WAT    HW120677   5.424   6.636   2.655
 4136WAT    HW220678   5.565   6.582   2.643
 4136WAT    LP120679   5.533   6.696   2.712
 4136WAT    LP220680   5.501   6.599   2.762
 4137WAT     OW20681   0.536   1.883   5.322
 4137WAT    HW120682   0.467   1.910   5.261
 4137WAT    HW220683   0.526   1.940   5.398
 4137WAT    LP120684   0.528   1.816   5.340
 4137WAT    LP220685   0.599   1.891   5.293
 4138WAT     OW20686   3.533   3.304   2.930
 4138WAT    HW120687   3.603   3.307   2.995
 4138WAT    HW220688   3.506   3.212   2.928
 4138WAT    LP120689   3.479   3.345   2.950
 4138WAT    LP220690   3.556   3.325   2.868
 4139WAT     OW20691   3.697   2.878   1.288
 4139WAT    HW120692   3.635   2.946   1.314
 4139WAT    HW220693   3.700   2.819   1.363
 4139WAT    LP120694   3.674   2.844   1.231
 4139WAT    LP220695   3.760   2.905   1.276
 4140WAT     OW20696   1.133   3.819   1.751
 4140WAT    HW120697   1.125   3.914   1.743
 4140WAT    HW220698   1.210   3.805   1.806
 4140WAT    LP120699   1.075   3.792   1.781
 4140WAT    LP220700   1.141   3.790   1.688
 4141WAT     OW20701   6.311   5.357   4.350
 4141WAT    HW120702   6.216   5.343   4.342
 4141WAT    HW220703   6.345   5.274   4.384
 4141WAT    LP120704   6.339   5.372   4.288
 4141WAT    LP220705   6.324   5.409   4.394
 4142WAT     OW20706   6.745   4.799   3.481
 4142WAT    HW120707   6.716   4.756   3.562
 4142WAT    HW220708   6.839   4.811   3.493
 4142WAT    LP120709   6.732   4.759   3.426
 4142WAT    LP220710   6.713   4.861   3.473
 4143WAT     OW20711   5.004   1.331   1.768
 4143WAT    HW120712   4.999   1.418   1.729
 4143WAT    HW220713   4.991   1.271   1.694
 4143WAT    LP120714   5.066   1.321   1.798
 4143WAT    LP220715   4.953   1.323   1.816
 4144WAT     OW20716   6.146   3.098   1.045
 4144WAT    HW120717   6.084   3.073   0.976
 4144WAT    HW220718   6.169   3.015   1.088
 4144WAT    LP120719   6.203   3.128   1.018
 4144WAT    LP220720   6.116   3.141   1.091
 4145WAT     OW20721   1.678   2.221   6.396
 4145WAT    HW120722   1.704   2.131   6.375
 4145WAT    HW220723   1.593   2.212   6.440
 4145WAT    LP120724   1.724   2.251   6.438
 4145WAT    LP220725   1.671   2.259   6.338
 4146WAT     OW20726   2.393   2.036   1.635
 4146WAT    HW120727   2.454   2.067   1.701
 4146WAT    HW220728   2.307   2.060   1.669
 4146WAT    LP120729   2.405   2.067   1.574
 4146WAT    LP220730   2.398   1.967   1.628
 4147WAT     OW20731   5.127   4.312   2.356
 4147WAT    HW120732   5.064   4.345   2.292
 4147WAT    HW220733   5.111   4.218   2.359
 4147WAT    LP120734   5.193   4.325   2.334
 4147WAT    LP220735   5.117   4.341   2.418
 4148WAT     OW20736   5.233   6.420   5.322
 4148WAT    HW120737   5.244   6.348   5.384
 4148WAT    HW220738   5.233   6.499   5.377
 4148WAT    LP120739   5.286   6.421   5.276
 4148WAT    LP220740   5.172   6.414   5.288
 4149WAT     OW20741   5.117   3.797   2.845
 4149WAT    HW120742   5.131   3.831   2.757
 4149WAT    HW220743   5.044   3.736   2.837
 4149WAT    LP120744   5.174   3.764   2.868
 4149WAT    LP220745   5.101   3.849   2.889
 4150WAT     OW20746   0.486   6.288   0.022
 4150WAT    HW120747   0.475   6.240   0.105
 4150WAT    HW220748   0.579   6.279   0.002
 4150WAT    LP120749   0.447   6.259  -0.028
 4150WAT    LP220750   0.468   6.355   0.030
 4151WAT     OW20751   1.902   0.990   1.817
 4151WAT    HW120752   1.968   1.057   1.833
 4151WAT    HW220753   1.828   1.038   1.781
 4151WAT    LP120754   1.925   0.942   1.772
 4151WAT    LP220755   1.884   0.959   1.877
 4152WAT     OW20756   0.732   6.001   6.509
 4152WAT    HW120757   0.646   5.993   6.467
 4152WAT    HW220758   0.744   6.096   6.520
 4152WAT    LP120759   0.733   5.969   6.571
 4152WAT    LP220760   0.782   5.975   6.468
 4153WAT     OW20761   5.332   0.391   0.806
 4153WAT    HW120762   5.306   0.361   0.719
 4153WAT    HW220763   5.402   0.331   0.832
 4153WAT    LP120764   5.355   0.457   0.804
 4153WAT    LP220765   5.278   0.386   0.851
 4154WAT     OW20766   0.722   3.457   0.016
 4154WAT    HW120767   0.649   3.402  -0.013
 4154WAT    HW220768   0.765   3.406   0.084
 4154WAT    LP120769   0.766   3.470  -0.037
 4154WAT    LP220770   0.698   3.518   0.042
 4155WAT     OW20771   1.062   2.961   5.478
 4155WAT    HW120772   1.038   2.993   5.391
 4155WAT    HW220773   1.143   3.008   5.499
 4155WAT    LP120774   1.012   2.976   5.525
 4155WAT    LP220775   1.073   2.892   5.478
 4156WAT     OW20776   1.991   0.244   2.633
 4156WAT    HW120777   2.039   0.211   2.709
 4156WAT    HW220778   1.899   0.243   2.661
 4156WAT    LP120779   2.011   0.308   2.616
 4156WAT    LP220780   2.000   0.201   2.578
 4157WAT     OW20781   1.503   3.306   1.414
 4157WAT    HW120782   1.473   3.304   1.505
 4157WAT    HW220783   1.433   3.353   1.367
 4157WAT    LP120784   1.564   3.340   1.408
 4157WAT    LP220785   1.510   3.241   1.388
 4158WAT     OW20786   0.466   1.584   5.048
 4158WAT    HW120787   0.548   1.554   5.008
 4158WAT    HW220788   0.430   1.646   4.984
 4158WAT    LP120789   0.422   1.531   5.059
 4158WAT    LP220790   0.479   1.616   5.109
 4159WAT     OW20791   0.893   4.854   3.118
 4159WAT    HW120792   0.882   4.778   3.061
 4159WAT    HW220793   0.987   4.866   3.124
 4159WAT    LP120794   0.862   4.910   3.090
 4159WAT    LP220795   0.865   4.842   3.181
 4160WAT     OW20796   2.411   4.862   1.347
 4160WAT    HW120797   2.316   4.856   1.344
 4160WAT    HW220798   2.436   4.897   1.261
 4160WAT    LP120799   2.432   4.905   1.398
 4160WAT    LP220800   2.440   4.799   1.357
 4161WAT     OW20801   6.430   3.549   4.675
 4161WAT    HW120802   6.381   3.475   4.712
 4161WAT    HW220803   6.501   3.508   4.626
 4161WAT    LP120804   6.390   3.587   4.632
 4161WAT    LP220805   6.456   3.590   4.726
 4162WAT     OW20806   1.941   2.019   5.201
 4162WAT    HW120807   2.021   1.970   5.221
 4162WAT    HW220808   1.945   2.096   5.258
 4162WAT    LP120809   1.939   2.037   5.134
 4162WAT    LP220810   1.885   1.980   5.216
 4163WAT     OW20811   1.588   1.838   1.407
 4163WAT    HW120812   1.563   1.757   1.452
 4163WAT    HW220813   1.635   1.888   1.474
 4163WAT    LP120814   1.630   1.824   1.353
 4163WAT    LP220815   1.532   1.873   1.385
 4164WAT     OW20816   2.561   1.830   1.318
 4164WAT    HW120817   2.623   1.885   1.365
 4164WAT    HW220818   2.575   1.852   1.226
 4164WAT    LP120819   2.575   1.762   1.329
 4164WAT    LP220820   2.496   1.844   1.337
 4165WAT     OW20821   1.036   5.895   1.781
 4165WAT    HW120822   1.028   5.806   1.813
 4165WAT    HW220823   0.985   5.948   1.843
 4165WAT    LP120824   1.102   5.916   1.779
 4165WAT    LP220825   1.008   5.901   1.716
 4166WAT     OW20826   0.032   3.576   5.115
 4166WAT    HW120827   0.001   3.631   5.187
 4166WAT    HW220828   0.120   3.549   5.142
 4166WAT    LP120829  -0.009   3.520   5.107
 4166WAT    LP220830   0.035   3.613   5.055
 4167WAT     OW20831   5.417   0.582   2.706
 4167WAT    HW120832   5.479   0.595   2.634
 4167WAT    HW220833   5.367   0.663   2.709
 4167WAT    LP120834   5.376   0.527   2.694
 4167WAT    LP220835   5.451   0.572   2.767
 4168WAT     OW20836   5.203   3.572   2.009
 4168WAT    HW120837   5.119   3.526   2.006
 4168WAT    HW220838   5.256   3.521   2.070
 4168WAT    LP120839   5.232   3.574   1.946
 4168WAT    LP220840   5.194   3.637   2.033
 4169WAT     OW20841   4.129   2.291   1.505
 4169WAT    HW120842   4.180   2.325   1.432
 4169WAT    HW220843   4.039   2.284   1.471
 4169WAT    LP120844   4.152   2.228   1.525
 4169WAT    LP220845   4.131   2.335   1.560
 4170WAT     OW20846   3.705   1.678   2.311
 4170WAT    HW120847   3.620   1.679   2.267
 4170WAT    HW220848   3.722   1.585   2.327
 4170WAT    LP120849   3.754   1.706   2.270
 4170WAT    LP220850   3.702   1.713   2.372
 4171WAT     OW20851   5.009   3.334   1.423
 4171WAT    HW120852   4.921   3.360   1.397
 4171WAT    HW220853   5.006   3.238   1.423
 4171WAT    LP120854   5.056   3.357   1.377
 4171WAT    LP220855   5.024   3.358   1.487
 4172WAT     OW20856   3.079   1.171   3.527
 4172WAT    HW120857   3.047   1.255   3.560
 4172WAT    HW220858   3.067   1.176   3.432
 4172WAT    LP120859   3.147   1.162   3.543
 4172WAT    LP220860   3.042   1.118   3.554
 4173WAT     OW20861   4.508   5.631   0.034
 4173WAT    HW120862   4.483   5.539   0.030
 4173WAT    HW220863   4.444   5.671   0.092
 4173WAT    LP120864   4.573   5.638   0.060
 4173WAT    LP220865   4.505   5.660  -0.030
 4174WAT     OW20866   0.087   0.339   5.100
 4174WAT    HW120867  -0.003   0.315   5.122
 4174WAT    HW220868   0.140   0.271   5.142
 4174WAT    LP120869   0.097   0.339   5.031
 4174WAT    LP220870   0.103   0.402   5.126
 4175WAT     OW20871   6.410   4.492   3.003
 4175WAT    HW120872   6.361   4.477   3.084
 4175WAT    HW220873   6.343   4.498   2.935
 4175WAT    LP120874   6.447   4.552   3.007
 4175WAT    LP220875   6.454   4.439   2.990
 4176WAT     OW20876   5.524   5.016   1.499
 4176WAT    HW120877   5.545   4.986   1.411
 4176WAT    HW220878   5.446   4.966   1.523
 4176WAT    LP120879   5.577   5.002   1.543
 4176WAT    LP220880   5.511   5.084   1.499
 4177WAT     OW20881   4.668   6.021   5.671
 4177WAT    HW120882   4.691   5.929   5.657
 4177WAT    HW220883   4.673   6.032   5.766
 4177WAT    LP120884   4.713   6.063   5.639
 4177WAT    LP220885   4.603   6.034   5.649
 4178WAT     OW20886   5.402   2.507   2.894
 4178WAT    HW120887   5.448   2.540   2.972
 4178WAT    HW220888   5.313   2.539   2.905
 4178WAT    LP120889   5.431   2.533   2.836
 4178WAT    LP220890   5.404   2.437   2.893
 4179WAT     OW20891   3.682   5.935   0.755
 4179WAT    HW120892   3.773   5.962   0.749
 4179WAT    HW220893   3.643   5.995   0.818
 4179WAT    LP120894   3.651   5.940   0.692
 4179WAT    LP220895   3.677   5.869   0.778
 4180WAT     OW20896   4.650   2.204   2.502
 4180WAT    HW120897   4.557   2.220   2.516
 4180WAT    HW220898   4.653   2.133   2.438
 4180WAT    LP120899   4.682   2.261   2.477
 4180WAT    LP220900   4.681   2.185   2.562
 4181WAT     OW20901   3.852   0.330   2.152
 4181WAT    HW120902   3.843   0.299   2.243
 4181WAT    HW220903   3.761   0.342   2.123
 4181WAT    LP120904   3.887   0.390   2.150
 4181WAT    LP220905   3.884   0.281   2.113
 4182WAT     OW20906   4.197   5.718   1.027
 4182WAT    HW120907   4.102   5.729   1.015
 4182WAT    HW220908   4.231   5.808   1.027
 4182WAT    LP120909   4.210   5.687   1.088
 4182WAT    LP220910   4.224   5.681   0.975
 4183WAT     OW20911   5.744   1.850   6.087
 4183WAT    HW120912   5.776   1.767   6.123
 4183WAT    HW220913   5.815   1.882   6.032
 4183WAT    LP120914   5.686   1.840   6.050
 4183WAT    LP220915   5.731   1.896   6.139
 4184WAT     OW20916   6.445   1.552   3.686
 4184WAT    HW120917   6.486   1.635   3.710
 4184WAT    HW220918   6.518   1.497   3.657
 4184WAT    LP120919   6.413   1.523   3.741
 4184WAT    LP220920   6.399   1.561   3.634
 4185WAT     OW20921   0.145   6.494   2.646
 4185WAT    HW120922   0.189   6.434   2.585
 4185WAT    HW220923   0.100   6.438   2.708
 4185WAT    LP120924   0.192   6.535   2.678
 4185WAT    LP220925   0.099   6.534   2.611
 4186WAT     OW20926   4.362   2.288   2.019
 4186WAT    HW120927   4.319   2.206   1.994
 4186WAT    HW220928   4.334   2.302   2.110
 4186WAT    LP120929   4.431   2.282   2.015
 4186WAT    LP220930   4.340   2.341   1.978
 4187WAT     OW20931   4.429   1.806   5.790
 4187WAT    HW120932   4.518   1.838   5.781
 4187WAT    HW220933   4.374   1.879   5.761
 4187WAT    LP120934   4.418   1.750   5.749
 4187WAT    LP220935   4.415   1.789   5.857
 4188WAT     OW20936   1.195   2.111   1.776
 4188WAT    HW120937   1.282   2.088   1.743
 4188WAT    HW220938   1.135   2.052   1.730
 4188WAT    LP120939   1.191   2.101   1.845
 4188WAT    LP220940   1.180   2.178   1.761
 4189WAT     OW20941   6.152   4.087   5.114
 4189WAT    HW120942   6.211   4.130   5.053
 4189WAT    HW220943   6.209   4.034   5.170
 4189WAT    LP120944   6.117   4.135   5.152
 4189WAT    LP220945   6.106   4.046   5.080
 4190WAT     OW20946   4.631   5.537   3.649
 4190WAT    HW120947   4.570   5.570   3.716
 4190WAT    HW220948   4.613   5.443   3.646
 4190WAT    LP120949   4.618   5.567   3.587
 4190WAT    LP220950   4.697   5.549   3.668
 4191WAT     OW20951   1.559   3.241   4.038
 4191WAT    HW120952   1.584   3.212   4.125
 4191WAT    HW220953   1.562   3.336   4.042
 4191WAT    LP120954   1.604   3.216   3.990
 4191WAT    LP220955   1.494   3.219   4.022
 4192WAT     OW20956   5.535   1.223   2.834
 4192WAT    HW120957   5.447   1.238   2.869
 4192WAT    HW220958   5.567   1.311   2.813
 4192WAT    LP120959   5.575   1.192   2.882
 4192WAT    LP220960   5.532   1.183   2.776
 4193WAT     OW20961   4.025   5.891   1.379
 4193WAT    HW120962   3.997   5.940   1.302
 4193WAT    HW220963   4.040   5.958   1.446
 4193WAT    LP120964   3.975   5.846   1.400
 4193WAT    LP220965   4.084   5.855   1.366
 4194WAT     OW20966   5.121   1.459   5.310
 4194WAT    HW120967   5.068   1.503   5.376
 4194WAT    HW220968   5.110   1.366   5.329
 4194WAT    LP120969   5.097   1.474   5.246
 4194WAT    LP220970   5.188   1.477   5.316
 4195WAT     OW20971   1.954   6.514   2.986
 4195WAT    HW120972   1.961   6.592   3.042
 4195WAT    HW220973   1.907   6.450   3.040
 4195WAT    LP120974   1.918   6.529   2.928
 4195WAT    LP220975   2.018   6.490   2.968
 4196WAT     OW20976   3.797   4.178   1.972
 4196WAT    HW120977   3.884   4.166   1.933
 4196WAT    HW220978   3.803   4.135   2.058
 4196WAT    LP120979   3.783   4.246   1.980
 4196WAT    LP220980   3.748   4.148   1.933
 4197WAT     OW20981   3.839   1.974   5.051
 4197WAT    HW120982   3.918   1.973   5.105
 4197WAT    HW220983   3.804   2.063   5.060
 4197WAT    LP120984   3.855   1.961   4.984
 4197WAT    LP220985   3.793   1.926   5.073
 4198WAT     OW20986   4.173   4.844   0.206
 4198WAT    HW120987   4.151   4.755   0.232
 4198WAT    HW220988   4.267   4.842   0.188
 4198WAT    LP120989   4.137   4.863   0.148
 4198WAT    LP220990   4.158   4.890   0.257
 4199WAT     OW20991   2.173   1.639   3.450
 4199WAT    HW120992   2.252   1.617   3.401
 4199WAT    HW220993   2.183   1.591   3.532
 4199WAT    LP120994   2.170   1.708   3.462
 4199WAT    LP220995   2.116   1.618   3.416
 4200WAT     OW20996   4.968   0.959   4.583
 4200WAT    HW120997   4.908   0.958   4.509
 4200WAT    HW220998   4.936   0.889   4.641
 4200WAT    LP120999   5.033   0.946   4.562
 4200WAT    LP221000   4.966   1.021   4.616
 4201WAT     OW21001   4.186   0.664   1.660
 4201WAT    HW121002   4.156   0.590   1.608
 4201WAT    HW221003   4.254   0.627   1.717
 4201WAT    LP121004   4.213   0.714   1.619
 4201WAT    LP221005   4.134   0.690   1.698
 4202WAT     OW21006   4.518   2.473   1.603
 4202WAT    HW121007   4.425   2.493   1.607
 4202WAT    HW221008   4.525   2.408   1.532
 4202WAT    LP121009   4.555   2.530   1.587
 4202WAT    LP221010   4.540   2.446   1.663
 4203WAT     OW21011   1.867   3.545   4.834
 4203WAT    HW121012   1.776   3.556   4.862
 4203WAT    HW221013   1.918   3.591   4.899
 4203WAT    LP121014   1.884   3.477   4.832
 4203WAT    LP221015   1.876   3.573   4.770
 4204WAT     OW21016   2.736   4.282   4.816
 4204WAT    HW121017   2.667   4.244   4.761
 4204WAT    HW221018   2.814   4.229   4.797
 4204WAT    LP121019   2.747   4.349   4.800
 4204WAT    LP221020   2.719   4.277   4.884
 4205WAT     OW21021   3.834   4.355   2.269
 4205WAT    HW121022   3.856   4.263   2.253
 4205WAT    HW221023   3.740   4.360   2.250
 4205WAT    LP121024   3.847   4.373   2.336
 4205WAT    LP221025   3.870   4.397   2.226
 4206WAT     OW21026   5.256   3.054   1.138
 4206WAT    HW121027   5.161   3.047   1.140
 4206WAT    HW221028   5.283   2.999   1.065
 4206WAT    LP121029   5.276   3.120   1.128
 4206WAT    LP221030   5.284   3.031   1.198
 4207WAT     OW21031   2.674   1.206   3.728
 4207WAT    HW121032   2.595   1.210   3.782
 4207WAT    HW221033   2.746   1.227   3.788
 4207WAT    LP121034   2.682   1.142   3.701
 4207WAT    LP221035   2.671   1.253   3.676
 4208WAT     OW21036   5.136   0.386   1.001
 4208WAT    HW121037   5.207   0.399   0.938
 4208WAT    HW221038   5.179   0.362   1.082
 4208WAT    LP121039   5.098   0.444   1.009
 4208WAT    LP221040   5.094   0.334   0.979
 4209WAT     OW21041   5.435   5.708   4.072
 4209WAT    HW121042   5.456   5.736   3.983
 4209WAT    HW221043   5.341   5.691   4.071
 4209WAT    LP121044   5.471   5.650   4.089
 4209WAT    LP221045   5.450   5.759   4.118
 4210WAT     OW21046   6.741   3.169   3.118
 4210WAT    HW121047   6.689   3.248   3.104
 4210WAT    HW221048   6.700   3.127   3.193
 4210WAT    LP121049   6.738   3.127   3.062
 4210WAT    LP221050   6.807   3.185   3.132
 4211WAT     OW21051   2.111   3.112   1.435
 4211WAT    HW121052   2.090   3.152   1.351
 4211WAT    HW221053   2.051   3.154   1.497
 4211WAT    LP121054   2.100   3.043   1.433
 4211WAT    LP221055   2.177   3.124   1.453
 4212WAT     OW21056   5.275   4.043   5.163
 4212WAT    HW121057   5.329   4.120   5.150
 4212WAT    HW221058   5.333   3.969   5.144
 4212WAT    LP121059   5.252   4.039   5.230
 4212WAT    LP221060   5.220   4.043   5.120
 4213WAT     OW21061   6.569   5.831   2.325
 4213WAT    HW121062   6.475   5.833   2.309
 4213WAT    HW221063   6.597   5.747   2.288
 4213WAT    LP121064   6.601   5.884   2.293
 4213WAT    LP221065   6.583   5.833   2.394
 4214WAT     OW21066   5.430   3.183   1.589
 4214WAT    HW121067   5.455   3.268   1.553
 4214WAT    HW221068   5.397   3.134   1.514
 4214WAT    LP121069   5.486   3.151   1.617
 4214WAT    LP221070   5.381   3.190   1.638
 4215WAT     OW21071   5.300   4.869   1.563
 4215WAT    HW121072   5.297   4.859   1.658
 4215WAT    HW221073   5.217   4.911   1.541
 4215WAT    LP121074   5.354   4.909   1.544
 4215WAT    LP221075   5.305   4.807   1.531
 4216WAT     OW21076   3.907   6.618   6.228
 4216WAT    HW121077   3.836   6.608   6.165
 4216WAT    HW221078   3.919   6.712   6.235
 4216WAT    LP121079   3.889   6.591   6.290
 4216WAT    LP221080   3.965   6.587   6.205
 4217WAT     OW21081   0.717   6.037   2.604
 4217WAT    HW121082   0.764   5.955   2.593
 4217WAT    HW221083   0.755   6.076   2.683
 4217WAT    LP121084   0.728   6.079   2.549
 4217WAT    LP221085   0.649   6.026   2.612
 4218WAT     OW21086   0.728   2.586   3.228
 4218WAT    HW121087   0.804   2.632   3.192
 4218WAT    HW221088   0.661   2.594   3.160
 4218WAT    LP121089   0.743   2.519   3.240
 4218WAT    LP221090   0.707   2.616   3.287
 4219WAT     OW21091   3.848   2.083   3.329
 4219WAT    HW121092   3.938   2.074   3.359
 4219WAT    HW221093   3.855   2.104   3.236
 4219WAT    LP121094   3.812   2.023   3.338
 4219WAT    LP221095   3.815   2.135   3.364
 4220WAT     OW21096   5.400   3.045   0.523
 4220WAT    HW121097   5.437   3.126   0.486
 4220WAT    HW221098   5.434   2.975   0.467
 4220WAT    LP121099   5.421   3.037   0.589
 4220WAT    LP221100   5.330   3.047   0.521
 4221WAT     OW21101   5.272   0.634   4.058
 4221WAT    HW121102   5.308   0.712   4.016
 4221WAT    HW221103   5.183   0.659   4.082
 4221WAT    LP121104   5.271   0.580   4.013
 4221WAT    LP221105   5.309   0.616   4.114
 4222WAT     OW21106   1.240   5.607   4.544
 4222WAT    HW121107   1.218   5.664   4.617
 4222WAT    HW221108   1.186   5.529   4.558
 4222WAT    LP121109   1.224   5.637   4.483
 4222WAT    LP221110   1.308   5.590   4.545
 4223WAT     OW21111   1.898   4.120   5.021
 4223WAT    HW121112   1.914   4.054   4.954
 4223WAT    HW221113   1.859   4.072   5.094
 4223WAT    LP121114   1.958   4.150   5.041
 4223WAT    LP221115   1.855   4.169   4.997
 4224WAT     OW21116   6.373   5.551   1.520
 4224WAT    HW121117   6.311   5.557   1.447
 4224WAT    HW221118   6.439   5.489   1.489
 4224WAT    LP121119   6.402   5.613   1.533
 4224WAT    LP221120   6.341   5.527   1.578
 4225WAT     OW21121   2.529   4.211   4.164
 4225WAT    HW121122   2.591   4.178   4.100
 4225WAT    HW221123   2.560   4.298   4.187
 4225WAT    LP121124   2.464   4.214   4.137
 4225WAT    LP221125   2.528   4.170   4.221
 4226WAT     OW21126   1.925   5.850   2.655
 4226WAT    HW121127   1.920   5.809   2.568
 4226WAT    HW221128   1.965   5.935   2.638
 4226WAT    LP121129   1.861   5.858   2.682
 4226WAT    LP221130   1.964   5.812   2.698
 4227WAT     OW21131   5.687   2.139   4.823
 4227WAT    HW121132   5.670   2.199   4.896
 4227WAT    HW221133   5.680   2.052   4.862
 4227WAT    LP121134   5.640   2.148   4.772
 4227WAT    LP221135   5.752   2.149   4.798
 4228WAT     OW21136   3.082   0.536   0.230
 4228WAT    HW121137   3.042   0.488   0.302
 4228WAT    HW221138   3.052   0.491   0.151
 4228WAT    LP121139   3.061   0.603   0.230
 4228WAT    LP221140   3.152   0.534   0.234
 4229WAT     OW21141   6.117   1.715   3.070
 4229WAT    HW121142   6.162   1.785   3.117
 4229WAT    HW221143   6.024   1.728   3.092
 4229WAT    LP121144   6.127   1.721   3.001
 4229WAT    LP221145   6.139   1.653   3.092
 4230WAT     OW21146   5.453   5.120   2.526
 4230WAT    HW121147   5.547   5.114   2.506
 4230WAT    HW221148   5.449   5.112   2.622
 4230WAT    LP121149   5.428   5.181   2.505
 4230WAT    LP221150   5.418   5.068   2.495
 4231WAT     OW21151   6.006   1.833   4.078
 4231WAT    HW121152   5.972   1.905   4.130
 4231WAT    HW221153   5.936   1.768   4.078
 4231WAT    LP121154   6.019   1.854   4.012
 4231WAT    LP221155   6.064   1.807   4.106
 4232WAT     OW21156   5.796   4.662   1.312
 4232WAT    HW121157   5.711   4.638   1.276
 4232WAT    HW221158   5.854   4.665   1.236
 4232WAT    LP121159   5.793   4.724   1.344
 4232WAT    LP221160   5.818   4.613   1.358
 4233WAT     OW21161   4.325   4.406   2.200
 4233WAT    HW121162   4.325   4.406   2.296
 4233WAT    HW221163   4.233   4.416   2.176
 4233WAT    LP121164   4.364   4.458   2.175
 4233WAT    LP221165   4.350   4.345   2.176
 4234WAT     OW21166   0.121   4.623   1.615
 4234WAT    HW121167   0.106   4.533   1.587
 4234WAT    HW221168   0.141   4.670   1.535
 4234WAT    LP121169   0.064   4.649   1.646
 4234WAT    LP221170   0.175   4.626   1.660
 4235WAT     OW21171   5.359   0.814   4.856
 4235WAT    HW121172   5.439   0.866   4.857
 4235WAT    HW221173   5.389   0.725   4.839
 4235WAT    LP121174   5.326   0.818   4.917
 4235WAT    LP221175   5.316   0.836   4.805
 4236WAT     OW21176   0.101   3.005   6.102
 4236WAT    HW121177   0.158   2.999   6.179
 4236WAT    HW221178   0.072   3.096   6.102
 4236WAT    LP121179   0.137   2.991   6.044
 4236WAT    LP221180   0.047   2.962   6.108
 4237WAT     OW21181   1.804   2.535   0.901
 4237WAT    HW121182   1.848   2.490   0.973
 4237WAT    HW221183   1.799   2.470   0.831
 4237WAT    LP121184   1.740   2.556   0.920
 4237WAT    LP221185   1.841   2.591   0.881
 4238WAT     OW21186   6.452   4.288   0.087
 4238WAT    HW121187   6.544   4.273   0.062
 4238WAT    HW221188   6.426   4.365   0.037
 4238WAT    LP121189   6.413   4.232   0.070
 4238WAT    LP221190   6.447   4.300   0.156
 4239WAT     OW21191   5.254   5.056   4.640
 4239WAT    HW121192   5.250   4.985   4.576
 4239WAT    HW221193   5.344   5.090   4.633
 4239WAT    LP121194   5.208   5.106   4.625
 4239WAT    LP221195   5.242   5.032   4.704
 4240WAT     OW21196   4.943   2.101   1.631
 4240WAT    HW121197   4.954   2.196   1.619
 4240WAT    HW221198   4.850   2.090   1.651
 4240WAT    LP121199   4.961   2.067   1.573
 4240WAT    LP221200   4.983   2.079   1.684
 4241WAT     OW21201   1.755   1.446   4.728
 4241WAT    HW121202   1.834   1.496   4.709
 4241WAT    HW221203   1.739   1.394   4.648
 4241WAT    LP121204   1.764   1.404   4.783
 4241WAT    LP221205   1.701   1.489   4.740
 4242WAT     OW21206   3.105   3.877   3.978
 4242WAT    HW121207   3.028   3.924   4.011
 4242WAT    HW221208   3.078   3.786   3.971
 4242WAT    LP121209   3.125   3.902   3.916
 4242WAT    LP221210   3.159   3.884   4.023
 4243WAT     OW21211   6.053   0.482   1.606
 4243WAT    HW121212   6.010   0.419   1.663
 4243WAT    HW221213   6.080   0.430   1.530
 4243WAT    LP121214   6.009   0.533   1.587
 4243WAT    LP221215   6.109   0.510   1.638
 4244WAT     OW21216   2.545   0.007   6.630
 4244WAT    HW121217   2.509   0.024   6.543
 4244WAT    HW221218   2.613  -0.058   6.616
 4244WAT    LP121219   2.572   0.066   6.657
 4244WAT    LP221220   2.496  -0.017   6.673
 4245WAT     OW21221   5.445   3.846   5.066
 4245WAT    HW121222   5.537   3.850   5.041
 4245WAT    HW221223   5.398   3.830   4.984
 4245WAT    LP121224   5.434   3.793   5.111
 4245WAT    LP221225   5.425   3.906   5.096
 4246WAT     OW21226   2.291   0.535   0.559
 4246WAT    HW121227   2.253   0.447   0.551
 4246WAT    HW221228   2.248   0.586   0.490
 4246WAT    LP121229   2.278   0.562   0.622
 4246WAT    LP221230   2.361   0.533   0.548
 4247WAT     OW21231   5.093   5.691   4.357
 4247WAT    HW121232   5.003   5.698   4.389
 4247WAT    HW221233   5.124   5.607   4.391
 4247WAT    LP121234   5.095   5.691   4.287
 4247WAT    LP221235   5.132   5.743   4.382
 4248WAT     OW21236   6.535   0.896   2.376
 4248WAT    HW121237   6.542   0.985   2.341
 4248WAT    HW221238   6.509   0.908   2.467
 4248WAT    LP121239   6.486   0.860   2.341
 4248WAT    LP221240   6.596   0.863   2.371
 4249WAT     OW21241   6.056   5.874   2.691
 4249WAT    HW121242   6.062   5.949   2.632
 4249WAT    HW221243   6.145   5.840   2.696
 4249WAT    LP121244   6.034   5.894   2.755
 4249WAT    LP221245   6.012   5.826   2.665
 4250WAT     OW21246   1.822   0.440   1.484
 4250WAT    HW121247   1.876   0.434   1.563
 4250WAT    HW221248   1.799   0.532   1.478
 4250WAT    LP121249   1.859   0.419   1.428
 4250WAT    LP221250   1.765   0.400   1.491
 4251WAT     OW21251   3.035   0.262   1.687
 4251WAT    HW121252   3.124   0.229   1.695
 4251WAT    HW221253   3.033   0.307   1.602
 4251WAT    LP121254   2.989   0.209   1.687
 4251WAT    LP221255   3.020   0.306   1.739
 4252WAT     OW21256   3.852   4.383   6.024
 4252WAT    HW121257   3.917   4.373   6.094
 4252WAT    HW221258   3.862   4.474   5.995
 4252WAT    LP121259   3.866   4.339   5.972
 4252WAT    LP221260   3.788   4.372   6.048
 4253WAT     OW21261   3.460   1.111   2.141
 4253WAT    HW121262   3.447   1.040   2.078
 4253WAT    HW221263   3.382   1.165   2.133
 4253WAT    LP121264   3.467   1.086   2.206
 4253WAT    LP221265   3.517   1.148   2.124
 4254WAT     OW21266   0.811   6.588   4.934
 4254WAT    HW121267   0.842   6.584   5.024
 4254WAT    HW221268   0.738   6.649   4.936
 4254WAT    LP121269   0.862   6.612   4.891
 4254WAT    LP221270   0.791   6.525   4.912
 4255WAT     OW21271   6.104   4.908   4.063
 4255WAT    HW121272   6.155   4.983   4.032
 4255WAT    HW221273   6.171   4.843   4.088
 4255WAT    LP121274   6.065   4.925   4.118
 4255WAT    LP221275   6.063   4.883   4.012
 4256WAT     OW21276   1.673   5.849   1.097
 4256WAT    HW121277   1.706   5.886   1.178
 4256WAT    HW221278   1.584   5.885   1.088
 4256WAT    LP121279   1.712   5.868   1.043
 4256WAT    LP221280   1.670   5.779   1.101
 4257WAT     OW21281   2.399   5.484   3.991
 4257WAT    HW121282   2.349   5.526   4.061
 4257WAT    HW221283   2.367   5.525   3.911
 4257WAT    LP121284   2.468   5.496   3.999
 4257WAT    LP221285   2.387   5.415   3.990
 4258WAT     OW21286   5.300   4.604   4.402
 4258WAT    HW121287   5.302   4.545   4.477
 4258WAT    HW221288   5.232   4.568   4.345
 4258WAT    LP121289   5.284   4.669   4.422
 4258WAT    LP221290   5.362   4.604   4.369
 4259WAT     OW21291   1.915   5.316   2.373
 4259WAT    HW121292   1.912   5.337   2.466
 4259WAT    HW221293   1.839   5.259   2.359
 4259WAT    LP121294   1.910   5.374   2.334
 4259WAT    LP221295   1.974   5.282   2.356
 4260WAT     OW21296   1.730   0.744   4.045
 4260WAT    HW121297   1.685   0.667   4.010
 4260WAT    HW221298   1.660   0.809   4.058
 4260WAT    LP121299   1.762   0.729   4.105
 4260WAT    LP221300   1.777   0.768   3.998
 4261WAT     OW21301   3.798   3.287   3.998
 4261WAT    HW121302   3.713   3.317   4.032
 4261WAT    HW221303   3.800   3.194   4.020
 4261WAT    LP121304   3.802   3.297   3.929
 4261WAT    LP221305   3.850   3.321   4.030
 4262WAT     OW21306   1.756   2.579   3.644
 4262WAT    HW121307   1.809   2.500   3.633
 4262WAT    HW221308   1.696   2.558   3.716
 4262WAT    LP121309   1.796   2.634   3.661
 4262WAT    LP221310   1.720   2.593   3.586
 4263WAT     OW21311   5.032   2.595   6.052
 4263WAT    HW121312   5.089   2.631   6.120
 4263WAT    HW221313   5.036   2.500   6.066
 4263WAT    LP121314   4.967   2.619   6.060
 4263WAT    LP221315   5.056   2.611   5.988
 4264WAT     OW21316   1.789   1.570   2.864
 4264WAT    HW121317   1.703   1.557   2.824
 4264WAT    HW221318   1.779   1.538   2.954
 4264WAT    LP121319   1.838   1.534   2.830
 4264WAT    LP221320   1.806   1.638   2.865
 4265WAT     OW21321   2.671   3.446   1.926
 4265WAT    HW121322   2.581   3.419   1.945
 4265WAT    HW221323   2.663   3.538   1.901
 4265WAT    LP121324   2.712   3.439   1.982
 4265WAT    LP221325   2.697   3.409   1.873
 4266WAT     OW21326   2.340   2.512   0.507
 4266WAT    HW121327   2.318   2.426   0.470
 4266WAT    HW221328   2.352   2.568   0.431
 4266WAT    LP121329   2.287   2.535   0.548
 4266WAT    LP221330   2.398   2.508   0.545
 4267WAT     OW21331   6.292   2.295   3.096
 4267WAT    HW121332   6.338   2.257   3.171
 4267WAT    HW221333   6.357   2.293   3.025
 4267WAT    LP121334   6.236   2.256   3.080
 4267WAT    LP221335   6.273   2.360   3.110
 4268WAT     OW21336   4.393   3.263   2.172
 4268WAT    HW121337   4.485   3.268   2.148
 4268WAT    HW221338   4.346   3.269   2.088
 4268WAT    LP121339   4.378   3.203   2.204
 4268WAT    LP221340   4.376   3.317   2.213
 4269WAT     OW21341   0.988   3.582   4.590
 4269WAT    HW121342   1.020   3.629   4.513
 4269WAT    HW221343   0.995   3.490   4.567
 4269WAT    LP121344   1.027   3.597   4.646
 4269WAT    LP221345   0.921   3.599   4.603
 4270WAT     OW21346   5.591   4.135   2.174
 4270WAT    HW121347   5.576   4.114   2.266
 4270WAT    HW221348   5.677   4.178   2.173
 4270WAT    LP121349   5.592   4.077   2.135
 4270WAT    LP221350   5.542   4.179   2.150
 4271WAT     OW21351   3.742   1.827   0.592
 4271WAT    HW121352   3.649   1.819   0.612
 4271WAT    HW221353   3.786   1.778   0.662
 4271WAT    LP121354   3.757   1.799   0.529
 4271WAT    LP221355   3.762   1.894   0.593
 4272WAT     OW21356   5.731   4.053   6.088
 4272WAT    HW121357   5.690   4.099   6.015
 4272WAT    HW221358   5.709   4.106   6.165
 4272WAT    LP121359   5.704   3.989   6.095
 4272WAT    LP221360   5.800   4.049   6.079
 4273WAT     OW21361   4.804   4.508   1.853
 4273WAT    HW121362   4.867   4.449   1.811
 4273WAT    HW221363   4.852   4.543   1.928
 4273WAT    LP121364   4.786   4.559   1.809
 4273WAT    LP221365   4.748   4.473   1.874
 4274WAT     OW21366   1.840   0.512   2.358
 4274WAT    HW121367   1.838   0.537   2.265
 4274WAT    HW221368   1.811   0.421   2.358
 4274WAT    LP121369   1.905   0.517   2.383
 4274WAT    LP221370   1.797   0.552   2.395
 4275WAT     OW21371   3.048   3.901   4.706
 4275WAT    HW121372   3.027   3.827   4.763
 4275WAT    HW221373   3.046   3.865   4.618
 4275WAT    LP121374   3.000   3.952   4.713
 4275WAT    LP221375   3.111   3.927   4.721
 4276WAT     OW21376   2.756   2.814   3.764
 4276WAT    HW121377   2.770   2.845   3.674
 4276WAT    HW221378   2.765   2.892   3.818
 4276WAT    LP121379   2.692   2.787   3.770
 4276WAT    LP221380   2.803   2.766   3.781
 4277WAT     OW21381   5.916   3.070   0.251
 4277WAT    HW121382   5.894   3.106   0.165
 4277WAT    HW221383   5.898   3.142   0.313
 4277WAT    LP121384   5.875   3.015   0.266
 4277WAT    LP221385   5.983   3.051   0.254
 4278WAT     OW21386   2.010   3.847   0.357
 4278WAT    HW121387   1.990   3.762   0.319
 4278WAT    HW221388   1.983   3.839   0.449
 4278WAT    LP121389   2.079   3.861   0.353
 4278WAT    LP221390   1.974   3.898   0.325
 4279WAT     OW21391   2.934   1.189   2.337
 4279WAT    HW121392   3.005   1.182   2.402
 4279WAT    HW221393   2.893   1.273   2.357
 4279WAT    LP121394   2.960   1.188   2.272
 4279WAT    LP221395   2.889   1.136   2.345
 4280WAT     OW21396   4.727   1.403   6.111
 4280WAT    HW121397   4.813   1.428   6.075
 4280WAT    HW221398   4.723   1.448   6.196
 4280WAT    LP121399   4.676   1.425   6.069
 4280WAT    LP221400   4.723   1.334   6.120
 4281WAT     OW21401   2.107   4.214   2.034
 4281WAT    HW121402   2.054   4.293   2.022
 4281WAT    HW221403   2.130   4.214   2.127
 4281WAT    LP121404   2.069   4.157   2.018
 4281WAT    LP221405   2.164   4.216   1.994
 4282WAT     OW21406   6.480   6.576   1.735
 4282WAT    HW121407   6.556   6.635   1.734
 4282WAT    HW221408   6.430   6.603   1.812
 4282WAT    LP121409   6.442   6.584   1.677
 4282WAT    LP221410   6.501   6.509   1.741
 4283WAT     OW21411   1.025   6.212   1.849
 4283WAT    HW121412   1.046   6.288   1.901
 4283WAT    HW221413   1.005   6.143   1.913
 4283WAT    LP121414   0.969   6.224   1.808
 4283WAT    LP221415   1.079   6.193   1.808
 4284WAT     OW21416   3.482   2.082   5.515
 4284WAT    HW121417   3.538   2.063   5.440
 4284WAT    HW221418   3.531   2.050   5.590
 4284WAT    LP121419   3.470   2.151   5.520
 4284WAT    LP221420   3.421   2.048   5.509
 4285WAT     OW21421   3.103   0.621   4.028
 4285WAT    HW121422   3.031   0.574   3.987
 4285WAT    HW221423   3.097   0.710   3.993
 4285WAT    LP121424   3.095   0.622   4.098
 4285WAT    LP221425   3.165   0.593   4.012
 4286WAT     OW21426   5.895   5.143   2.173
 4286WAT    HW121427   5.858   5.138   2.084
 4286WAT    HW221428   5.833   5.196   2.222
 4286WAT    LP121429   5.901   5.079   2.201
 4286WAT    LP221430   5.958   5.174   2.171
 4287WAT     OW21431   3.953   1.192   2.707
 4287WAT    HW121432   3.950   1.288   2.712
 4287WAT    HW221433   3.925   1.172   2.618
 4287WAT    LP121434   4.018   1.169   2.719
 4287WAT    LP221435   3.909   1.164   2.754
 4288WAT     OW21436   0.927   6.013   2.008
 4288WAT    HW121437   0.845   6.052   2.040
 4288WAT    HW221438   0.945   5.943   2.070
 4288WAT    LP121439   0.918   5.988   1.943
 4288WAT    LP221440   0.979   6.060   2.008
 4289WAT     OW21441   5.918   6.397   1.743
 4289WAT    HW121442   6.011   6.411   1.727
 4289WAT    HW221443   5.887   6.478   1.783
 4289WAT    LP121444   5.884   6.384   1.683
 4289WAT    LP221445   5.908   6.343   1.787
 4290WAT     OW21446   4.473   1.782   0.438
 4290WAT    HW121447   4.469   1.723   0.362
 4290WAT    HW221448   4.540   1.744   0.494
 4290WAT    LP121449   4.491   1.846   0.418
 4290WAT    LP221450   4.411   1.784   0.471
 4291WAT     OW21451   1.791   4.580   1.827
 4291WAT    HW121452   1.823   4.625   1.749
 4291WAT    HW221453   1.705   4.617   1.844
 4291WAT    LP121454   1.787   4.511   1.815
 4291WAT    LP221455   1.834   4.591   1.881
 4292WAT     OW21456   1.768   2.912   2.342
 4292WAT    HW121457   1.850   2.935   2.297
 4292WAT    HW221458   1.794   2.892   2.431
 4292WAT    LP121459   1.723   2.965   2.340
 4292WAT    LP221460   1.738   2.856   2.312
 4293WAT     OW21461   1.745   6.577   1.780
 4293WAT    HW121462   1.656   6.542   1.772
 4293WAT    HW221463   1.764   6.613   1.693
 4293WAT    LP121464   1.747   6.627   1.829
 4293WAT    LP221465   1.790   6.526   1.796
 4294WAT     OW21466   4.142   4.120   1.107
 4294WAT    HW121467   4.070   4.149   1.162
 4294WAT    HW221468   4.206   4.192   1.113
 4294WAT    LP121469   4.170   4.061   1.131
 4294WAT    LP221470   4.121   4.111   1.041
 4295WAT     OW21471   2.664   5.498   1.938
 4295WAT    HW121472   2.716   5.531   2.012
 4295WAT    HW221473   2.718   5.428   1.902
 4295WAT    LP121474   2.603   5.474   1.960
 4295WAT    LP221475   2.654   5.549   1.891
 4296WAT     OW21476   0.405   6.589   6.144
 4296WAT    HW121477   0.350   6.512   6.158
 4296WAT    HW221478   0.484   6.556   6.101
 4296WAT    LP121479   0.372   6.636   6.103
 4296WAT    LP221480   0.421   6.620   6.205
 4297WAT     OW21481   4.244   4.040   4.972
 4297WAT    HW121482   4.305   4.114   4.969
 4297WAT    HW221483   4.206   4.036   4.884
 4297WAT    LP121484   4.278   3.980   4.986
 4297WAT    LP221485   4.194   4.050   5.020
 4298WAT     OW21486   0.187   0.709   1.555
 4298WAT    HW121487   0.204   0.783   1.614
 4298WAT    HW221488   0.170   0.636   1.614
 4298WAT    LP121489   0.132   0.722   1.515
 4298WAT    LP221490   0.243   0.696   1.515
 4299WAT     OW21491   2.782   1.467   5.212
 4299WAT    HW121492   2.840   1.518   5.156
 4299WAT    HW221493   2.720   1.531   5.247
 4299WAT    LP121494   2.748   1.418   5.175
 4299WAT    LP221495   2.818   1.437   5.264
 4300WAT     OW21496   2.866   3.014   6.603
 4300WAT    HW121497   2.816   3.024   6.522
 4300WAT    HW221498   2.936   3.078   6.595
 4300WAT    LP121499   2.825   3.028   6.658
 4300WAT    LP221500   2.891   2.950   6.608
 4301WAT     OW21501   2.793   4.010   1.593
 4301WAT    HW121502   2.799   4.030   1.686
 4301WAT    HW221503   2.834   4.085   1.550
 4301WAT    LP121504   2.828   3.951   1.578
 4301WAT    LP221505   2.726   4.003   1.573
 4302WAT     OW21506   1.204   4.775   6.337
 4302WAT    HW121507   1.244   4.709   6.393
 4302WAT    HW221508   1.275   4.836   6.317
 4302WAT    LP121509   1.178   4.747   6.279
 4302WAT    LP221510   1.152   4.808   6.371
 4303WAT     OW21511   2.580   5.058   0.691
 4303WAT    HW121512   2.574   5.123   0.761
 4303WAT    HW221513   2.490   5.028   0.679
 4303WAT    LP121514   2.604   5.088   0.632
 4303WAT    LP221515   2.622   5.006   0.709
 4304WAT     OW21516   1.024   0.186   3.107
 4304WAT    HW121517   1.088   0.223   3.168
 4304WAT    HW221518   0.949   0.164   3.162
 4304WAT    LP121519   1.006   0.233   3.059
 4304WAT    LP221520   1.050   0.129   3.076
 4305WAT     OW21521   4.203   1.801   0.542
 4305WAT    HW121522   4.158   1.835   0.465
 4305WAT    HW221523   4.296   1.813   0.524
 4305WAT    LP121524   4.184   1.836   0.599
 4305WAT    LP221525   4.188   1.733   0.551
 4306WAT     OW21526   4.422   2.979   6.210
 4306WAT    HW121527   4.373   3.045   6.260
 4306WAT    HW221528   4.497   3.027   6.174
 4306WAT    LP121529   4.443   2.927   6.251
 4306WAT    LP221530   4.382   2.953   6.158
 4307WAT     OW21531   3.135   6.492   6.525
 4307WAT    HW121532   3.095   6.545   6.456
 4307WAT    HW221533   3.096   6.406   6.516
 4307WAT    LP121534   3.205   6.489   6.516
 4307WAT    LP221535   3.121   6.519   6.588
 4308WAT     OW21536   4.714   0.761   3.823
 4308WAT    HW121537   4.707   0.671   3.790
 4308WAT    HW221538   4.782   0.801   3.769
 4308WAT    LP121539   4.653   0.795   3.815
 4308WAT    LP221540   4.732   0.761   3.891
 4309WAT     OW21541   2.984   2.369   3.800
 4309WAT    HW121542   2.954   2.458   3.818
 4309WAT    HW221543   2.996   2.329   3.886
 4309WAT    LP121544   2.936   2.333   3.763
 4309WAT    LP221545   3.044   2.370   3.764
 4310WAT     OW21546   6.701   1.924   4.745
 4310WAT    HW121547   6.622   1.972   4.770
 4310WAT    HW221548   6.678   1.832   4.756
 4310WAT    LP121549   6.719   1.938   4.679
 4310WAT    LP221550   6.754   1.941   4.788
 4311WAT     OW21551   5.878   6.434   4.218
 4311WAT    HW121552   5.896   6.479   4.136
 4311WAT    HW221553   5.825   6.496   4.268
 4311WAT    LP121554   5.842   6.375   4.206
 4311WAT    LP221555   5.937   6.418   4.252
 4312WAT     OW21556   5.991   6.128   5.427
 4312WAT    HW121557   6.056   6.153   5.492
 4312WAT    HW221558   5.912   6.108   5.479
 4312WAT    LP121559   5.979   6.180   5.383
 4312WAT    LP221560   6.012   6.071   5.392
 4313WAT     OW21561   4.804   0.547   5.698
 4313WAT    HW121562   4.743   0.535   5.771
 4313WAT    HW221563   4.817   0.641   5.693
 4313WAT    LP121564   4.864   0.514   5.710
 4313WAT    LP221565   4.776   0.523   5.638
 4314WAT     OW21566   3.754   6.239   5.756
 4314WAT    HW121567   3.693   6.166   5.752
 4314WAT    HW221568   3.838   6.202   5.729
 4314WAT    LP121569   3.735   6.290   5.712
 4314WAT    LP221570   3.758   6.264   5.821
 4315WAT     OW21571   5.944   4.852   3.160
 4315WAT    HW121572   6.038   4.874   3.162
 4315WAT    HW221573   5.933   4.791   3.233
 4315WAT    LP121574   5.906   4.910   3.170
 4315WAT    LP221575   5.927   4.823   3.099
 4316WAT     OW21576   2.374   5.819   4.430
 4316WAT    HW121577   2.442   5.754   4.449
 4316WAT    HW221578   2.375   5.826   4.334
 4316WAT    LP121579   2.312   5.797   4.452
 4316WAT    LP221580   2.390   5.880   4.459
 4317WAT     OW21581   2.339   6.583   3.966
 4317WAT    HW121582   2.334   6.659   3.908
 4317WAT    HW221583   2.427   6.587   4.003
 4317WAT    LP121584   2.291   6.587   4.017
 4317WAT    LP221585   2.329   6.524   3.930
 4318WAT     OW21586   0.020   5.716   2.622
 4318WAT    HW121587   0.068   5.710   2.704
 4318WAT    HW221588   0.076   5.768   2.565
 4318WAT    LP121589   0.009   5.652   2.594
 4318WAT    LP221590  -0.042   5.748   2.632
 4319WAT     OW21591   1.884   1.268   4.066
 4319WAT    HW121592   1.871   1.196   4.128
 4319WAT    HW221593   1.966   1.309   4.094
 4319WAT    LP121594   1.889   1.244   4.001
 4319WAT    LP221595   1.831   1.314   4.071
 4320WAT     OW21596   0.537   4.688   5.689
 4320WAT    HW121597   0.468   4.642   5.643
 4320WAT    HW221598   0.615   4.635   5.675
 4320WAT    LP121599   0.546   4.752   5.663
 4320WAT    LP221600   0.523   4.693   5.758
 4321WAT     OW21601   2.550   3.351   3.144
 4321WAT    HW121602   2.641   3.362   3.174
 4321WAT    HW221603   2.539   3.420   3.078
 4321WAT    LP121604   2.541   3.288   3.115
 4321WAT    LP221605   2.505   3.360   3.197
 4322WAT     OW21606   3.534   5.525   2.960
 4322WAT    HW121607   3.541   5.507   2.866
 4322WAT    HW221608   3.592   5.461   3.001
 4322WAT    LP121609   3.555   5.590   2.974
 4322WAT    LP221610   3.468   5.516   2.982
 4323WAT     OW21611   2.912   5.216   0.118
 4323WAT    HW121612   2.862   5.215   0.036
 4323WAT    HW221613   2.862   5.274   0.176
 4323WAT    LP121614   2.916   5.151   0.145
 4323WAT    LP221615   2.976   5.240   0.107
 4324WAT     OW21616   0.722   2.326   3.321
 4324WAT    HW121617   0.784   2.343   3.392
 4324WAT    HW221618   0.707   2.412   3.281
 4324WAT    LP121619   0.749   2.281   3.274
 4324WAT    LP221620   0.662   2.300   3.347
 4325WAT     OW21621   0.944   4.084   1.528
 4325WAT    HW121622   0.883   4.010   1.518
 4325WAT    HW221623   0.888   4.161   1.520
 4325WAT    LP121624   0.975   4.082   1.590
 4325WAT    LP221625   0.992   4.083   1.477
 4326WAT     OW21626   4.364   6.259   0.358
 4326WAT    HW121627   4.334   6.255   0.267
 4326WAT    HW221628   4.458   6.278   0.351
 4326WAT    LP121629   4.331   6.310   0.393
 4326WAT    LP221630   4.354   6.198   0.391
 4327WAT     OW21631   2.241   1.768   5.976
 4327WAT    HW121632   2.271   1.677   5.985
 4327WAT    HW221633   2.177   1.779   6.046
 4327WAT    LP121634   2.294   1.812   5.984
 4327WAT    LP221635   2.211   1.778   5.914
 4328WAT     OW21636   3.347   0.170   6.029
 4328WAT    HW121637   3.289   0.187   5.954
 4328WAT    HW221638   3.406   0.245   6.030
 4328WAT    LP121639   3.310   0.167   6.088
 4328WAT    LP221640   3.382   0.111   6.020
 4329WAT     OW21641   1.515   0.321   1.255
 4329WAT    HW121642   1.517   0.366   1.339
 4329WAT    HW221643   1.425   0.290   1.246
 4329WAT    LP121644   1.531   0.364   1.203
 4329WAT    LP221645   1.559   0.266   1.255
 4330WAT     OW21646   0.020   3.365   5.420
 4330WAT    HW121647   0.042   3.387   5.329
 4330WAT    HW221648   0.072   3.288   5.440
 4330WAT    LP121649   0.036   3.418   5.462
 4330WAT    LP221650  -0.049   3.351   5.425
 4331WAT     OW21651   5.815   5.018   4.788
 4331WAT    HW121652   5.870   4.988   4.715
 4331WAT    HW221653   5.726   5.018   4.753
 4331WAT    LP121654   5.821   4.975   4.843
 4331WAT    LP221655   5.834   5.083   4.807
 4332WAT     OW21656   3.267   3.115   4.446
 4332WAT    HW121657   3.347   3.111   4.499
 4332WAT    HW221658   3.265   3.031   4.400
 4332WAT    LP121659   3.211   3.123   4.486
 4332WAT    LP221660   3.271   3.168   4.401
 4333WAT     OW21661   6.654   1.858   5.288
 4333WAT    HW121662   6.636   1.923   5.356
 4333WAT    HW221663   6.747   1.841   5.296
 4333WAT    LP121664   6.617   1.799   5.299
 4333WAT    LP221665   6.638   1.883   5.225
 4334WAT     OW21666   2.215   0.807   2.245
 4334WAT    HW121667   2.173   0.879   2.198
 4334WAT    HW221668   2.309   0.825   2.237
 4334WAT    LP121669   2.196   0.807   2.312
 4334WAT    LP221670   2.199   0.745   2.216
 4335WAT     OW21671   5.217   6.651   5.478
 4335WAT    HW121672   5.170   6.716   5.426
 4335WAT    HW221673   5.280   6.702   5.529
 4335WAT    LP121674   5.174   6.617   5.521
 4335WAT    LP221675   5.250   6.605   5.437
 4336WAT     OW21676   5.895   5.998   4.806
 4336WAT    HW121677   5.807   6.006   4.842
 4336WAT    HW221678   5.882   6.003   4.711
 4336WAT    LP121679   5.935   6.050   4.828
 4336WAT    LP221680   5.924   5.937   4.824
 4337WAT     OW21681   6.228   2.131   4.238
 4337WAT    HW121682   6.261   2.220   4.228
 4337WAT    HW221683   6.161   2.138   4.306
 4337WAT    LP121684   6.200   2.107   4.178
 4337WAT    LP221685   6.280   2.088   4.258
 4338WAT     OW21686   0.167   3.117   5.406
 4338WAT    HW121687   0.107   3.045   5.424
 4338WAT    HW221688   0.254   3.080   5.421
 4338WAT    LP121689   0.161   3.139   5.340
 4338WAT    LP221690   0.156   3.171   5.450
 4339WAT     OW21691   1.095   3.849   3.118
 4339WAT    HW121692   1.156   3.779   3.093
 4339WAT    HW221693   1.018   3.835   3.063
 4339WAT    LP121694   1.079   3.844   3.186
 4339WAT    LP221695   1.123   3.912   3.105
 4340WAT     OW21696   3.175   0.837   6.570
 4340WAT    HW121697   3.173   0.743   6.549
 4340WAT    HW221698   3.121   0.845   6.648
 4340WAT    LP121699   3.240   0.858   6.582
 4340WAT    LP221700   3.147   0.874   6.517
 4341WAT     OW21701   6.753   0.785   0.502
 4341WAT    HW121702   6.827   0.739   0.541
 4341WAT    HW221703   6.771   0.784   0.408
 4341WAT    LP121704   6.693   0.752   0.516
 4341WAT    LP221705   6.749   0.851   0.526
 4342WAT     OW21706   1.410   3.317   1.669
 4342WAT    HW121707   1.333   3.368   1.692
 4342WAT    HW221708   1.396   3.232   1.711
 4342WAT    LP121709   1.415   3.309   1.600
 4342WAT    LP221710   1.468   3.347   1.694
 4343WAT     OW21711   3.438   2.315   4.125
 4343WAT    HW121712   3.471   2.228   4.103
 4343WAT    HW221713   3.515   2.364   4.154
 4343WAT    LP121714   3.409   2.346   4.069
 4343WAT    LP221715   3.390   2.312   4.176
 4344WAT     OW21716   4.011   6.596   2.322
 4344WAT    HW121717   3.934   6.577   2.376
 4344WAT    HW221718   4.061   6.514   2.321
 4344WAT    LP121719   3.992   6.614   2.257
 4344WAT    LP221720   4.049   6.647   2.350
 4345WAT     OW21721   4.539   0.682   6.534
 4345WAT    HW121722   4.476   0.754   6.524
 4345WAT    HW221723   4.548   0.671   6.628
 4345WAT    LP121724   4.515   0.624   6.504
 4345WAT    LP221725   4.600   0.700   6.505
 4346WAT     OW21726   4.715   1.315   4.490
 4346WAT    HW121727   4.758   1.286   4.409
 4346WAT    HW221728   4.787   1.333   4.550
 4346WAT    LP121729   4.677   1.372   4.478
 4346WAT    LP221730   4.674   1.264   4.515
 4347WAT     OW21731   5.040   1.703   6.570
 4347WAT    HW121732   4.972   1.738   6.512
 4347WAT    HW221733   5.103   1.774   6.578
 4347WAT    LP121734   5.013   1.686   6.632
 4347WAT    LP221735   5.070   1.646   6.542
 4348WAT     OW21736   4.319   0.357   1.382
 4348WAT    HW121737   4.312   0.403   1.299
 4348WAT    HW221738   4.409   0.373   1.410
 4348WAT    LP121739   4.274   0.383   1.429
 4348WAT    LP221740   4.307   0.289   1.374
 4349WAT     OW21741   4.516   2.886   4.898
 4349WAT    HW121742   4.517   2.936   4.816
 4349WAT    HW221743   4.591   2.827   4.891
 4349WAT    LP121744   4.523   2.929   4.953
 4349WAT    LP221745   4.456   2.850   4.904
 4350WAT     OW21746   1.817   1.381   3.532
 4350WAT    HW121747   1.893   1.353   3.481
 4350WAT    HW221748   1.832   1.346   3.619
 4350WAT    LP121749   1.813   1.451   3.533
 4350WAT    LP221750   1.758   1.356   3.504
 4351WAT     OW21751   4.417   5.374   0.043
 4351WAT    HW121752   4.448   5.286   0.019
 4351WAT    HW221753   4.340   5.387  -0.011
 4351WAT    LP121754   4.400   5.376   0.111
 4351WAT    LP221755   4.466   5.422   0.029
 4352WAT     OW21756   2.969   5.450   2.866
 4352WAT    HW121757   2.887   5.412   2.834
 4352WAT    HW221758   3.034   5.427   2.799
 4352WAT    LP121759   2.964   5.520   2.872
 4352WAT    LP221760   2.987   5.423   2.928
 4353WAT     OW21761   1.167   4.173   3.804
 4353WAT    HW121762   1.232   4.110   3.772
 4353WAT    HW221763   1.220   4.248   3.833
 4353WAT    LP121764   1.124   4.193   3.752
 4353WAT    LP221765   1.130   4.147   3.857
 4354WAT     OW21766   1.604   4.442   5.638
 4354WAT    HW121767   1.662   4.474   5.570
 4354WAT    HW221768   1.640   4.357   5.663
 4354WAT    LP121769   1.603   4.486   5.693
 4354WAT    LP221770   1.539   4.435   5.614
 4355WAT     OW21771   1.997   1.132   4.945
 4355WAT    HW121772   2.019   1.208   4.892
 4355WAT    HW221773   2.080   1.090   4.963
 4355WAT    LP121774   1.966   1.152   5.004
 4355WAT    LP221775   1.954   1.089   4.910
 4356WAT     OW21776   6.014   3.644   4.532
 4356WAT    HW121777   6.062   3.632   4.614
 4356WAT    HW221778   5.930   3.601   4.548
 4356WAT    LP121779   6.005   3.712   4.518
 4356WAT    LP221780   6.048   3.613   4.479
 4357WAT     OW21781   5.839   2.411   0.788
 4357WAT    HW121782   5.794   2.465   0.723
 4357WAT    HW221783   5.907   2.365   0.739
 4357WAT    LP121784   5.867   2.451   0.838
 4357WAT    LP221785   5.794   2.365   0.817
 4358WAT     OW21786   3.611   4.729   4.920
 4358WAT    HW121787   3.674   4.798   4.942
 4358WAT    HW221788   3.530   4.755   4.963
 4358WAT    LP121789   3.602   4.725   4.850
 4358WAT    LP221790   3.633   4.667   4.944
 4359WAT     OW21791   5.348   2.894   2.669
 4359WAT    HW121792   5.411   2.938   2.726
 4359WAT    HW221793   5.376   2.803   2.668
 4359WAT    LP121794   5.283   2.900   2.694
 4359WAT    LP221795   5.350   2.921   2.604
 4360WAT     OW21796   2.182   5.565   6.332
 4360WAT    HW121797   2.256   5.540   6.276
 4360WAT    HW221798   2.174   5.659   6.320
 4360WAT    LP121799   2.124   5.532   6.311
 4360WAT    LP221800   2.195   5.549   6.399
 4361WAT     OW21801   4.851   5.054   1.183
 4361WAT    HW121802   4.782   5.113   1.153
 4361WAT    HW221803   4.883   5.095   1.264
 4361WAT    LP121804   4.826   4.991   1.196
 4361WAT    LP221805   4.903   5.050   1.136
 4362WAT     OW21806   1.837   0.307   5.945
 4362WAT    HW121807   1.824   0.303   6.040
 4362WAT    HW221808   1.774   0.244   5.910
 4362WAT    LP121809   1.824   0.371   5.921
 4362WAT    LP221810   1.902   0.289   5.928
 4363WAT     OW21811   1.347   3.086   1.800
 4363WAT    HW121812   1.262   3.043   1.788
 4363WAT    HW221813   1.357   3.093   1.894
 4363WAT    LP121814   1.398   3.047   1.772
 4363WAT    LP221815   1.346   3.149   1.770
 4364WAT     OW21816   0.881   3.690   0.746
 4364WAT    HW121817   0.926   3.688   0.831
 4364WAT    HW221818   0.788   3.683   0.768
 4364WAT    LP121819   0.894   3.751   0.714
 4364WAT    LP221820   0.901   3.637   0.706
 4365WAT     OW21821   0.133   1.748   3.702
 4365WAT    HW121822   0.216   1.717   3.737
 4365WAT    HW221823   0.070   1.681   3.727
 4365WAT    LP121824   0.116   1.810   3.730
 4365WAT    LP221825   0.136   1.755   3.632
 4366WAT     OW21826   2.284   2.224   3.096
 4366WAT    HW121827   2.349   2.154   3.107
 4366WAT    HW221828   2.223   2.189   3.031
 4366WAT    LP121829   2.252   2.238   3.156
 4366WAT    LP221830   2.315   2.282   3.071
 4367WAT     OW21831   1.221   3.657   5.292
 4367WAT    HW121832   1.136   3.700   5.297
 4367WAT    HW221833   1.215   3.598   5.218
 4367WAT    LP121834   1.272   3.704   5.282
 4367WAT    LP221835   1.234   3.622   5.351
 4368WAT     OW21836   1.498   3.977   0.395
 4368WAT    HW121837   1.489   3.989   0.489
 4368WAT    HW221838   1.408   3.978   0.362
 4368WAT    LP121839   1.535   4.029   0.366
 4368WAT    LP221840   1.529   3.916   0.380
 4369WAT     OW21841   4.892   2.848   2.076
 4369WAT    HW121842   4.958   2.846   2.007
 4369WAT    HW221843   4.942   2.850   2.157
 4369WAT    LP121844   4.851   2.905   2.070
 4369WAT    LP221845   4.852   2.790   2.073
 4370WAT     OW21846   2.900   6.073   4.156
 4370WAT    HW121847   2.860   6.008   4.215
 4370WAT    HW221848   2.933   6.022   4.083
 4370WAT    LP121849   2.853   6.120   4.135
 4370WAT    LP221850   2.952   6.106   4.189
 4371WAT     OW21851   3.396   4.669   1.965
 4371WAT    HW121852   3.393   4.756   2.003
 4371WAT    HW221853   3.384   4.609   2.039
 4371WAT    LP121854   3.345   4.660   1.918
 4371WAT    LP221855   3.458   4.658   1.934
 4372WAT     OW21856   4.604   3.714   1.242
 4372WAT    HW121857   4.644   3.701   1.328
 4372WAT    HW221858   4.510   3.726   1.261
 4372WAT    LP121859   4.630   3.772   1.211
 4372WAT    LP221860   4.614   3.659   1.201
 4373WAT     OW21861   2.525   5.113   2.026
 4373WAT    HW121862   2.602   5.132   2.080
 4373WAT    HW221863   2.556   5.050   1.961
 4373WAT    LP121864   2.474   5.086   2.065
 4373WAT    LP221865   2.502   5.172   1.994
 4374WAT     OW21866   2.636   0.785   2.941
 4374WAT    HW121867   2.664   0.827   3.022
 4374WAT    HW221868   2.700   0.715   2.927
 4374WAT    LP121869   2.571   0.759   2.947
 4374WAT    LP221870   2.638   0.831   2.888
 4375WAT     OW21871   4.056   4.107   0.404
 4375WAT    HW121872   3.989   4.175   0.412
 4375WAT    HW221873   4.008   4.025   0.414
 4375WAT    LP121874   4.086   4.110   0.341
 4375WAT    LP221875   4.104   4.114   0.454
 4376WAT     OW21876   2.219   0.556   2.128
 4376WAT    HW121877   2.216   0.637   2.178
 4376WAT    HW221878   2.160   0.571   2.054
 4376WAT    LP121879   2.284   0.542   2.106
 4376WAT    LP221880   2.196   0.502   2.167
 4377WAT     OW21881   0.090   2.059   6.547
 4377WAT    HW121882   0.080   2.153   6.533
 4377WAT    HW221883   0.108   2.023   6.460
 4377WAT    LP121884   0.143   2.045   6.591
 4377WAT    LP221885   0.031   2.031   6.573
 4378WAT     OW21886   3.191   3.610   2.717
 4378WAT    HW121887   3.231   3.553   2.782
 4378WAT    HW221888   3.105   3.632   2.755
 4378WAT    LP121889   3.229   3.668   2.708
 4378WAT    LP221890   3.183   3.577   2.656
 4379WAT     OW21891   0.813   4.159   6.523
 4379WAT    HW121892   0.878   4.175   6.454
 4379WAT    HW221893   0.729   4.155   6.476
 4379WAT    LP121894   0.826   4.098   6.555
 4379WAT    LP221895   0.813   4.211   6.569
 4380WAT     OW21896   2.658   3.881   0.043
 4380WAT    HW121897   2.590   3.923  -0.009
 4380WAT    HW221898   2.621   3.796   0.066
 4380WAT    LP121899   2.717   3.873   0.006
 4380WAT    LP221900   2.671   3.918   0.101
 4381WAT     OW21901   6.093   5.668   1.850
 4381WAT    HW121902   6.180   5.628   1.846
 4381WAT    HW221903   6.088   5.722   1.771
 4381WAT    LP121904   6.043   5.619   1.849
 4381WAT    LP221905   6.087   5.708   1.907
 4382WAT     OW21906   5.670   0.733   1.790
 4382WAT    HW121907   5.610   0.761   1.721
 4382WAT    HW221908   5.749   0.705   1.743
 4382WAT    LP121909   5.684   0.786   1.833
 4382WAT    LP221910   5.643   0.680   1.826
 4383WAT     OW21911   0.899   2.693   1.413
 4383WAT    HW121912   0.983   2.666   1.451
 4383WAT    HW221913   0.869   2.616   1.366
 4383WAT    LP121914   0.854   2.710   1.464
 4383WAT    LP221915   0.908   2.747   1.370
 4384WAT     OW21916   1.209   5.382   1.364
 4384WAT    HW121917   1.274   5.313   1.376
 4384WAT    HW221918   1.209   5.428   1.448
 4384WAT    LP121919   1.227   5.425   1.312
 4384WAT    LP221920   1.146   5.355   1.351
 4385WAT     OW21921   0.350   2.423   2.633
 4385WAT    HW121922   0.281   2.356   2.630
 4385WAT    HW221923   0.302   2.505   2.645
 4385WAT    LP121924   0.393   2.412   2.687
 4385WAT    LP221925   0.386   2.423   2.574
 4386WAT     OW21926   6.623   4.193   4.011
 4386WAT    HW121927   6.696   4.253   4.024
 4386WAT    HW221928   6.597   4.167   4.099
 4386WAT    LP121929   6.570   4.226   3.978
 4386WAT    LP221930   6.643   4.137   3.973
 4387WAT     OW21931   0.112   6.351   5.068
 4387WAT    HW121932   0.023   6.379   5.089
 4387WAT    HW221933   0.154   6.430   5.033
 4387WAT    LP121934   0.145   6.328   5.125
 4387WAT    LP221935   0.111   6.301   5.019
 4388WAT     OW21936   4.134   6.391   4.330
 4388WAT    HW121937   4.162   6.424   4.416
 4388WAT    HW221938   4.213   6.353   4.292
 4388WAT    LP121939   4.084   6.343   4.338
 4388WAT    LP221940   4.109   6.444   4.291
 4389WAT     OW21941   5.866   5.543   1.017
 4389WAT    HW121942   5.936   5.492   1.059
 4389WAT    HW221943   5.797   5.547   1.083
 4389WAT    LP121944   5.888   5.607   1.001
 4389WAT    LP221945   5.843   5.511   0.959
 4390WAT     OW21946   0.366   4.263   5.198
 4390WAT    HW121947   0.274   4.237   5.195
 4390WAT    HW221948   0.364   4.352   5.234
 4390WAT    LP121949   0.403   4.221   5.240
 4390WAT    LP221950   0.394   4.263   5.134
 4391WAT     OW21951   4.123   4.010   2.076
 4391WAT    HW121952   4.214   3.980   2.076
 4391WAT    HW221953   4.118   4.073   2.005
 4391WAT    LP121954   4.079   3.957   2.065
 4391WAT    LP221955   4.107   4.041   2.137
 4392WAT     OW21956   6.226   6.364   0.469
 4392WAT    HW121957   6.245   6.457   0.462
 4392WAT    HW221958   6.137   6.360   0.505
 4392WAT    LP121959   6.228   6.333   0.406
 4392WAT    LP221960   6.271   6.333   0.512
 4393WAT     OW21961   1.395   0.879   0.042
 4393WAT    HW121962   1.328   0.945   0.023
 4393WAT    HW221963   1.423   0.898   0.131
 4393WAT    LP121964   1.368   0.814   0.038
 4393WAT    LP221965   1.449   0.884  -0.002
 4394WAT     OW21966   3.447   4.928   6.314
 4394WAT    HW121967   3.389   4.907   6.387
 4394WAT    HW221968   3.423   5.017   6.288
 4394WAT    LP121969   3.514   4.926   6.335
 4394WAT    LP221970   3.438   4.884   6.261
 4395WAT     OW21971   4.773   1.730   4.429
 4395WAT    HW121972   4.760   1.690   4.343
 4395WAT    HW221973   4.707   1.799   4.434
 4395WAT    LP121974   4.763   1.683   4.480
 4395WAT    LP221975   4.838   1.756   4.435
 4396WAT     OW21976   1.764   1.839   5.713
 4396WAT    HW121977   1.758   1.775   5.641
 4396WAT    HW221978   1.814   1.794   5.781
 4396WAT    LP121979   1.796   1.897   5.692
 4396WAT    LP221980   1.700   1.855   5.736
 4397WAT     OW21981   4.951   0.925   5.102
 4397WAT    HW121982   5.035   0.882   5.087
 4397WAT    HW221983   4.957   1.007   5.053
 4397WAT    LP121984   4.899   0.885   5.079
 4397WAT    LP221985   4.942   0.937   5.171
 4398WAT     OW21986   6.110   0.237   0.054
 4398WAT    HW121987   6.198   0.251   0.018
 4398WAT    HW221988   6.116   0.269   0.144
 4398WAT    LP121989   6.063   0.273   0.018
 4398WAT    LP221990   6.094   0.168   0.053
 4399WAT     OW21991   0.639   4.767   0.558
 4399WAT    HW121992   0.586   4.690   0.578
 4399WAT    HW221993   0.660   4.758   0.465
 4399WAT    LP121994   0.603   4.826   0.569
 4399WAT    LP221995   0.697   4.768   0.596
 4400WAT     OW21996   5.800   5.179   5.728
 4400WAT    HW121997   5.793   5.236   5.805
 4400WAT    HW221998   5.721   5.126   5.731
 4400WAT    LP121999   5.802   5.217   5.669
 4400WAT    LP222000   5.857   5.139   5.732
 4401WAT     OW22001   2.715   2.765   3.118
 4401WAT    HW122002   2.659   2.830   3.074
 4401WAT    HW222003   2.671   2.749   3.202
 4401WAT    LP122004   2.719   2.707   3.081
 4401WAT    LP222005   2.779   2.791   3.129
 4402WAT     OW22006   5.210   0.607   1.420
 4402WAT    HW122007   5.281   0.566   1.371
 4402WAT    HW222008   5.223   0.701   1.407
 4402WAT    LP122009   5.147   0.587   1.395
 4402WAT    LP222010   5.214   0.591   1.488
 4403WAT     OW22011   3.611   2.244   2.450
 4403WAT    HW122012   3.540   2.212   2.505
 4403WAT    HW222013   3.573   2.320   2.405
 4403WAT    LP122014   3.665   2.264   2.489
 4403WAT    LP222015   3.631   2.196   2.404
 4404WAT     OW22016   5.837   4.830   2.909
 4404WAT    HW122017   5.765   4.768   2.916
 4404WAT    HW222018   5.875   4.832   2.997
 4404WAT    LP122019   5.885   4.808   2.863
 4404WAT    LP222020   5.814   4.894   2.890
 4405WAT     OW22021   4.966   3.234   0.482
 4405WAT    HW122022   5.026   3.160   0.494
 4405WAT    HW222023   4.883   3.204   0.520
 4405WAT    LP122024   4.990   3.291   0.515
 4405WAT    LP222025   4.958   3.248   0.414
 4406WAT     OW22026   2.587   6.367   1.911
 4406WAT    HW122027   2.651   6.432   1.941
 4406WAT    HW222028   2.514   6.374   1.972
 4406WAT    LP122029   2.566   6.381   1.845
 4406WAT    LP222030   2.615   6.303   1.913
 4407WAT     OW22031   3.651   3.699   3.473
 4407WAT    HW122032   3.740   3.668   3.454
 4407WAT    HW222033   3.594   3.636   3.429
 4407WAT    LP122034   3.639   3.699   3.542
 4407WAT    LP222035   3.641   3.763   3.447
 4408WAT     OW22036   3.110   0.554   0.671
 4408WAT    HW122037   3.178   0.542   0.738
 4408WAT    HW222038   3.049   0.482   0.686
 4408WAT    LP122039   3.078   0.616   0.680
 4408WAT    LP222040   3.138   0.551   0.607
 4409WAT     OW22041   4.208   1.515   4.619
 4409WAT    HW122042   4.130   1.569   4.629
 4409WAT    HW222043   4.264   1.564   4.560
 4409WAT    LP122044   4.239   1.505   4.681
 4409WAT    LP222045   4.192   1.452   4.591
 4410WAT     OW22046   4.288   0.718   3.602
 4410WAT    HW122047   4.267   0.714   3.508
 4410WAT    HW222048   4.345   0.643   3.617
 4410WAT    LP122049   4.320   0.778   3.618
 4410WAT    LP222050   4.229   0.712   3.640
 4411WAT     OW22051   6.370   1.976   6.292
 4411WAT    HW122052   6.294   1.944   6.243
 4411WAT    HW222053   6.348   2.066   6.313
 4411WAT    LP122054   6.380   1.938   6.350
 4411WAT    LP222055   6.427   1.973   6.252
 4412WAT     OW22056   5.344   6.316   5.924
 4412WAT    HW122057   5.326   6.313   6.018
 4412WAT    HW222058   5.309   6.400   5.895
 4412WAT    LP122059   5.413   6.312   5.911
 4412WAT    LP222060   5.311   6.263   5.891
 4413WAT     OW22061   0.094   1.916   5.573
 4413WAT    HW122062   0.099   1.870   5.490
 4413WAT    HW222063   0.132   2.002   5.556
 4413WAT    LP122064   0.027   1.922   5.594
 4413WAT    LP222065   0.131   1.882   5.622
 4414WAT     OW22066   1.556   0.995   5.820
 4414WAT    HW122067   1.636   1.035   5.856
 4414WAT    HW222068   1.536   0.924   5.880
 4414WAT    LP122069   1.504   1.042   5.818
 4414WAT    LP222070   1.569   0.970   5.756
 4415WAT     OW22071   6.053   0.777   1.314
 4415WAT    HW122072   6.096   0.809   1.393
 4415WAT    HW222073   5.960   0.798   1.327
 4415WAT    LP122074   6.078   0.809   1.257
 4415WAT    LP222075   6.062   0.708   1.307
 4416WAT     OW22076   5.123   4.915   0.793
 4416WAT    HW122077   5.108   4.970   0.870
 4416WAT    HW222078   5.060   4.843   0.802
 4416WAT    LP122079   5.111   4.951   0.734
 4416WAT    LP222080   5.188   4.890   0.792
 4417WAT     OW22081   6.578   4.981   0.920
 4417WAT    HW122082   6.483   4.977   0.932
 4417WAT    HW222083   6.591   5.055   0.861
 4417WAT    LP122084   6.610   4.991   0.981
 4417WAT    LP222085   6.601   4.921   0.891
 4418WAT     OW22086   5.809   1.340   5.667
 4418WAT    HW122087   5.785   1.304   5.753
 4418WAT    HW222088   5.754   1.292   5.605
 4418WAT    LP122089   5.795   1.408   5.665
 4418WAT    LP222090   5.877   1.329   5.654
 4419WAT     OW22091   0.726   0.222   4.521
 4419WAT    HW122092   0.774   0.262   4.594
 4419WAT    HW222093   0.636   0.253   4.532
 4419WAT    LP122094   0.752   0.243   4.459
 4419WAT    LP222095   0.729   0.152   4.525
 4420WAT     OW22096   2.869   2.531   5.576
 4420WAT    HW122097   2.833   2.617   5.599
 4420WAT    HW222098   2.837   2.514   5.488
 4420WAT    LP122099   2.939   2.533   5.578
 4420WAT    LP222100   2.846   2.482   5.621
 4421WAT     OW22101   3.193   0.666   4.542
 4421WAT    HW122102   3.199   0.642   4.449
 4421WAT    HW222103   3.126   0.734   4.545
 4421WAT    LP122104   3.174   0.610   4.580
 4421WAT    LP222105   3.255   0.690   4.565
 4422WAT     OW22106   0.330   4.068   1.609
 4422WAT    HW122107   0.392   4.004   1.645
 4422WAT    HW222108   0.371   4.152   1.624
 4422WAT    LP122109   0.321   4.057   1.540
 4422WAT    LP222110   0.268   4.064   1.641
 4423WAT     OW22111   3.960   0.436   5.088
 4423WAT    HW122112   3.914   0.510   5.128
 4423WAT    HW222113   4.010   0.474   5.017
 4423WAT    LP122114   4.002   0.405   5.135
 4423WAT    LP222115   3.914   0.388   5.064
 4424WAT     OW22116   1.360   4.513   1.295
 4424WAT    HW122117   1.348   4.573   1.221
 4424WAT    HW222118   1.449   4.481   1.286
 4424WAT    LP122119   1.351   4.547   1.355
 4424WAT    LP222120   1.314   4.460   1.291
 4425WAT     OW22121   2.425   6.657   1.632
 4425WAT    HW122122   2.361   6.665   1.703
 4425WAT    HW222123   2.463   6.570   1.643
 4425WAT    LP122124   2.394   6.663   1.570
 4425WAT    LP222125   2.475   6.706   1.638
 4426WAT     OW22126   2.023   6.543   0.463
 4426WAT    HW122127   2.109   6.503   0.477
 4426WAT    HW222128   2.017   6.556   0.368
 4426WAT    LP122129   1.972   6.501   0.486
 4426WAT    LP222130   2.019   6.605   0.496
 4427WAT     OW22131   5.261   6.061   5.839
 4427WAT    HW122132   5.177   6.060   5.884
 4427WAT    HW222133   5.298   6.147   5.856
 4427WAT    LP122134   5.303   6.011   5.864
 4427WAT    LP222135   5.252   6.051   5.770
 4428WAT     OW22136   6.405   1.688   0.479
 4428WAT    HW122137   6.448   1.625   0.537
 4428WAT    HW222138   6.465   1.698   0.405
 4428WAT    LP122139   6.343   1.663   0.457
 4428WAT    LP222140   6.395   1.749   0.512
 4429WAT     OW22141   5.774   5.514   3.195
 4429WAT    HW122142   5.844   5.522   3.130
 4429WAT    HW222143   5.727   5.434   3.169
 4429WAT    LP122144   5.800   5.507   3.259
 4429WAT    LP222145   5.732   5.569   3.193
 4430WAT     OW22146   1.442   2.099   5.042
 4430WAT    HW122147   1.426   2.009   5.015
 4430WAT    HW222148   1.370   2.148   5.004
 4430WAT    LP122149   1.441   2.104   5.112
 4430WAT    LP222150   1.503   2.122   5.018
 4431WAT     OW22151   5.776   1.050   4.004
 4431WAT    HW122152   5.750   0.991   3.934
 4431WAT    HW222153   5.694   1.072   4.049
 4431WAT    LP122154   5.820   1.019   4.048
 4431WAT    LP222155   5.806   1.108   3.978
 4432WAT     OW22156   3.910   3.103   4.360
 4432WAT    HW122157   3.960   3.071   4.285
 4432WAT    HW222158   3.937   3.046   4.432
 4432WAT    LP122159   3.926   3.170   4.374
 4432WAT    LP222160   3.841   3.098   4.349
 4433WAT     OW22161   5.865   2.264   6.108
 4433WAT    HW122162   5.956   2.233   6.111
 4433WAT    HW222163   5.817   2.202   6.162
 4433WAT    LP122164   5.860   2.329   6.134
 4433WAT    LP222165   5.842   2.264   6.042
 4434WAT     OW22166   5.936   1.653   5.475
 4434WAT    HW122167   5.938   1.707   5.396
 4434WAT    HW222168   5.849   1.615   5.475
 4434WAT    LP122169   5.985   1.603   5.473
 4434WAT    LP222170   5.946   1.693   5.532
 4435WAT     OW22171   0.163   1.462   4.544
 4435WAT    HW122172   0.114   1.537   4.512
 4435WAT    HW222173   0.228   1.444   4.476
 4435WAT    LP122174   0.195   1.477   4.605
 4435WAT    LP222175   0.120   1.407   4.553
 4436WAT     OW22176   6.738   1.515   0.896
 4436WAT    HW122177   6.829   1.541   0.885
 4436WAT    HW222178   6.742   1.424   0.927
 4436WAT    LP122179   6.706   1.555   0.943
 4436WAT    LP222180   6.703   1.518   0.836
 4437WAT     OW22181   4.100   2.458   4.057
 4437WAT    HW122182   4.024   2.503   4.092
 4437WAT    HW222183   4.151   2.433   4.134
 4437WAT    LP122184   4.080   2.401   4.021
 4437WAT    LP222185   4.137   2.500   4.015
 4438WAT     OW22186   1.821   1.159   6.323
 4438WAT    HW122187   1.824   1.219   6.249
 4438WAT    HW222188   1.902   1.107   6.316
 4438WAT    LP122189   1.820   1.194   6.383
 4438WAT    LP222190   1.765   1.117   6.320
 4439WAT     OW22191   3.889   1.505   0.416
 4439WAT    HW122192   3.848   1.471   0.495
 4439WAT    HW222193   3.981   1.516   0.441
 4439WAT    LP122194   3.883   1.460   0.363
 4439WAT    LP222195   3.861   1.567   0.398
 4440WAT     OW22196   1.253   5.965   3.373
 4440WAT    HW122197   1.330   5.916   3.401
 4440WAT    HW222198   1.180   5.926   3.420
 4440WAT    LP122199   1.260   6.033   3.389
 4440WAT    LP222200   1.244   5.959   3.303
 4441WAT     OW22201   4.708   6.593   2.170
 4441WAT    HW122202   4.630   6.558   2.214
 4441WAT    HW222203   4.688   6.583   2.076
 4441WAT    LP122204   4.718   6.660   2.186
 4441WAT    LP222205   4.765   6.556   2.187
 4442WAT     OW22206   3.483   1.059   1.536
 4442WAT    HW122207   3.493   0.980   1.589
 4442WAT    HW222208   3.388   1.068   1.526
 4442WAT    LP122209   3.510   1.114   1.569
 4442WAT    LP222210   3.513   1.051   1.474
 4443WAT     OW22211   6.017   6.431   1.022
 4443WAT    HW122212   6.085   6.474   0.969
 4443WAT    HW222213   6.062   6.405   1.102
 4443WAT    LP122214   5.965   6.476   1.036
 4443WAT    LP222215   5.992   6.375   0.989
 4444WAT     OW22216   0.634   2.260   5.411
 4444WAT    HW122217   0.575   2.197   5.451
 4444WAT    HW222218   0.689   2.208   5.352
 4444WAT    LP122219   0.598   2.309   5.375
 4444WAT    LP222220   0.674   2.292   5.459
 4445WAT     OW22221   5.174   3.701   3.813
 4445WAT    HW122222   5.127   3.679   3.733
 4445WAT    HW222223   5.159   3.626   3.872
 4445WAT    LP122224   5.243   3.708   3.800
 4445WAT    LP222225   5.150   3.760   3.842
 4446WAT     OW22226   0.537   4.454   6.477
 4446WAT    HW122227   0.604   4.435   6.543
 4446WAT    HW222228   0.487   4.526   6.514
 4446WAT    LP122229   0.566   4.472   6.417
 4446WAT    LP222230   0.496   4.398   6.467
 4447WAT     OW22231   3.011   6.543   1.999
 4447WAT    HW122232   3.065   6.576   1.927
 4447WAT    HW222233   3.066   6.553   2.077
 4447WAT    LP122234   2.952   6.580   2.006
 4447WAT    LP222235   2.995   6.476   1.989
 4448WAT     OW22236   5.047   3.081   5.980
 4448WAT    HW122237   4.959   3.049   5.960
 4448WAT    HW222238   5.070   3.038   6.062
 4448WAT    LP122239   5.091   3.063   5.929
 4448WAT    LP222240   5.046   3.151   5.987
 4449WAT     OW22241   2.382   4.681   0.080
 4449WAT    HW122242   2.462   4.656   0.127
 4449WAT    HW222243   2.345   4.598   0.051
 4449WAT    LP122244   2.338   4.714   0.122
 4449WAT    LP222245   2.398   4.721   0.025
 4450WAT     OW22246   2.853   6.134   3.254
 4450WAT    HW122247   2.824   6.085   3.176
 4450WAT    HW222248   2.776   6.135   3.310
 4450WAT    LP122249   2.906   6.101   3.285
 4450WAT    LP222250   2.872   6.199   3.236
 4451WAT     OW22251   0.279   2.425   5.087
 4451WAT    HW122252   0.317   2.470   5.012
 4451WAT    HW222253   0.347   2.428   5.154
 4451WAT    LP122254   0.221   2.457   5.108
 4451WAT    LP222255   0.264   2.358   5.070
 4452WAT     OW22256   4.900   4.767   1.499
 4452WAT    HW122257   4.846   4.767   1.578
 4452WAT    HW222258   4.959   4.842   1.511
 4452WAT    LP122259   4.937   4.708   1.495
 4452WAT    LP222260   4.861   4.775   1.442
 4453WAT     OW22261   0.953   4.121   0.289
 4453WAT    HW122262   1.005   4.137   0.211
 4453WAT    HW222263   1.009   4.149   0.362
 4453WAT    LP122264   0.894   4.159   0.288
 4453WAT    LP222265   0.936   4.053   0.295
 4454WAT     OW22266   2.794   5.304   1.801
 4454WAT    HW122267   2.745   5.229   1.766
 4454WAT    HW222268   2.833   5.345   1.723
 4454WAT    LP122269   2.751   5.348   1.833
 4454WAT    LP222270   2.844   5.282   1.845
 4455WAT     OW22271   3.278   3.990   0.302
 4455WAT    HW122272   3.241   3.970   0.216
 4455WAT    HW222273   3.372   4.001   0.285
 4455WAT    LP122274   3.251   4.049   0.328
 4455WAT    LP222275   3.267   3.937   0.346
 4456WAT     OW22276   3.909   0.939   0.304
 4456WAT    HW122277   3.945   1.028   0.305
 4456WAT    HW222278   3.985   0.883   0.318
 4456WAT    LP122279   3.862   0.931   0.355
 4456WAT    LP222280   3.879   0.925   0.242
 4457WAT     OW22281   5.971   6.568   3.988
 4457WAT    HW122282   5.941   6.646   3.941
 4457WAT    HW222283   6.057   6.592   4.021
 4457WAT    LP122284   5.927   6.553   4.041
 4457WAT    LP222285   5.975   6.513   3.945
 4458WAT     OW22286   4.687   2.688   3.771
 4458WAT    HW122287   4.766   2.638   3.792
 4458WAT    HW222288   4.616   2.640   3.812
 4458WAT    LP122289   4.692   2.753   3.798
 4458WAT    LP222290   4.678   2.693   3.702
 4459WAT     OW22291   2.992   5.929   3.936
 4459WAT    HW122292   3.026   5.839   3.937
 4459WAT    HW222293   3.060   5.979   3.892
 4459WAT    LP122294   2.932   5.932   3.901
 4459WAT    LP222295   2.982   5.952   4.001
 4460WAT     OW22296   0.717   3.584   4.667
 4460WAT    HW122297   0.806   3.614   4.648
 4460WAT    HW222298   0.687   3.546   4.584
 4460WAT    LP122299   0.717   3.536   4.717
 4460WAT    LP222300   0.677   3.638   4.686
 4461WAT     OW22301   2.427   3.603   4.695
 4461WAT    HW122302   2.509   3.556   4.680
 4461WAT    HW222303   2.455   3.692   4.718
 4461WAT    LP122304   2.388   3.604   4.637
 4461WAT    LP222305   2.391   3.574   4.747
 4462WAT     OW22306   0.402   3.636   2.059
 4462WAT    HW122307   0.322   3.584   2.048
 4462WAT    HW222308   0.401   3.698   1.987
 4462WAT    LP122309   0.401   3.669   2.121
 4462WAT    LP222310   0.459   3.595   2.056
 4463WAT     OW22311   3.965   5.961   0.769
 4463WAT    HW122312   4.042   6.017   0.784
 4463WAT    HW222313   3.962   5.903   0.845
 4463WAT    LP122314   3.907   6.000   0.765
 4463WAT    LP222315   3.972   5.925   0.710
 4464WAT     OW22316   3.319   4.650   2.457
 4464WAT    HW122317   3.269   4.696   2.390
 4464WAT    HW222318   3.397   4.704   2.471
 4464WAT    LP122319   3.282   4.644   2.516
 4464WAT    LP222320   3.337   4.586   2.435
 4465WAT     OW22321   6.397   4.533   6.611
 4465WAT    HW122322   6.447   4.608   6.643
 4465WAT    HW222323   6.308   4.549   6.639
 4465WAT    LP122324   6.401   4.529   6.541
 4465WAT    LP222325   6.422   4.473   6.639
 4466WAT     OW22326   5.657   3.981   3.246
 4466WAT    HW122327   5.659   4.058   3.188
 4466WAT    HW222328   5.666   4.017   3.334
 4466WAT    LP122329   5.597   3.947   3.239
 4466WAT    LP222330   5.710   3.938   3.231
 4467WAT     OW22331   5.841   0.332   0.021
 4467WAT    HW122332   5.864   0.417   0.057
 4467WAT    HW222333   5.924   0.285   0.013
 4467WAT    LP122334   5.797   0.298   0.063
 4467WAT    LP222335   5.811   0.339  -0.042
 4468WAT     OW22336   1.654   2.840   1.171
 4468WAT    HW122337   1.615   2.907   1.227
 4468WAT    HW222338   1.714   2.792   1.229
 4468WAT    LP122339   1.605   2.798   1.146
 4468WAT    LP222340   1.690   2.869   1.118
 4469WAT     OW22341   2.431   6.264   2.312
 4469WAT    HW122342   2.422   6.171   2.290
 4469WAT    HW222343   2.420   6.310   2.229
 4469WAT    LP122344   2.382   6.283   2.358
 4469WAT    LP222345   2.494   6.277   2.339
 4470WAT     OW22346   0.848   1.153   2.370
 4470WAT    HW122347   0.914   1.222   2.379
 4470WAT    HW222348   0.866   1.093   2.443
 4470WAT    LP122349   0.784   1.179   2.375
 4470WAT    LP222350   0.855   1.120   2.309
 4471WAT     OW22351   5.002   5.457   2.858
 4471WAT    HW122352   4.971   5.455   2.768
 4471WAT    HW222353   5.071   5.523   2.858
 4471WAT    LP122354   4.950   5.477   2.901
 4471WAT    LP222355   5.026   5.395   2.878
 4472WAT     OW22356   3.279   0.653   1.268
 4472WAT    HW122357   3.220   0.589   1.227
 4472WAT    HW222358   3.326   0.693   1.195
 4472WAT    LP122359   3.243   0.701   1.304
 4472WAT    LP222360   3.324   0.621   1.312
 4473WAT     OW22361   0.018   4.427   5.060
 4473WAT    HW122362   0.069   4.461   4.987
 4473WAT    HW222363   0.062   4.346   5.086
 4473WAT    LP122364   0.018   4.473   5.113
 4473WAT    LP222365  -0.048   4.415   5.041
 4474WAT     OW22366   5.080   5.479   1.611
 4474WAT    HW122367   5.147   5.474   1.679
 4474WAT    HW222368   5.121   5.528   1.540
 4474WAT    LP122369   5.062   5.415   1.590
 4474WAT    LP222370   5.023   5.513   1.635
 4475WAT     OW22371   0.517   0.750   5.043
 4475WAT    HW122372   0.592   0.795   5.082
 4475WAT    HW222373   0.451   0.748   5.112
 4475WAT    LP122374   0.494   0.786   4.987
 4475WAT    LP222375   0.534   0.685   5.023
 4476WAT     OW22376   6.564   4.208   5.319
 4476WAT    HW122377   6.542   4.257   5.240
 4476WAT    HW222378   6.635   4.257   5.359
 4476WAT    LP122379   6.509   4.204   5.361
 4476WAT    LP222380   6.585   4.143   5.302
 4477WAT     OW22381   1.114   5.793   2.547
 4477WAT    HW122382   1.165   5.847   2.607
 4477WAT    HW222383   1.170   5.783   2.470
 4477WAT    LP122384   1.100   5.730   2.576
 4477WAT    LP222385   1.054   5.825   2.530
 4478WAT     OW22386   6.308   5.935   3.210
 4478WAT    HW122387   6.364   5.904   3.281
 4478WAT    HW222388   6.368   5.952   3.138
 4478WAT    LP122389   6.261   5.886   3.192
 4478WAT    LP222390   6.274   5.993   3.229
 4479WAT     OW22391   6.544   0.700   4.535
 4479WAT    HW122392   6.540   0.788   4.498
 4479WAT    HW222393   6.470   0.695   4.595
 4479WAT    LP122394   6.537   0.652   4.484
 4479WAT    LP222395   6.604   0.689   4.569
 4480WAT     OW22396   0.189   4.859   6.573
 4480WAT    HW122397   0.194   4.895   6.484
 4480WAT    HW222398   0.273   4.815   6.585
 4480WAT    LP122399   0.181   4.911   6.620
 4480WAT    LP222400   0.136   4.814   6.578
 4481WAT     OW22401   6.378   3.146   1.950
 4481WAT    HW122402   6.302   3.128   1.895
 4481WAT    HW222403   6.444   3.179   1.890
 4481WAT    LP122404   6.362   3.194   1.998
 4481WAT    LP222405   6.400   3.088   1.982
 4482WAT     OW22406   0.894   4.965   2.789
 4482WAT    HW122407   0.957   4.904   2.828
 4482WAT    HW222408   0.905   4.955   2.695
 4482WAT    LP122409   0.829   4.948   2.808
 4482WAT    LP222410   0.907   5.031   2.809
 4483WAT     OW22411   6.650   3.520   0.531
 4483WAT    HW122412   6.686   3.564   0.454
 4483WAT    HW222413   6.604   3.444   0.496
 4483WAT    LP122414   6.701   3.501   0.574
 4483WAT    LP222415   6.606   3.563   0.565
 4484WAT     OW22416   2.144   2.114   2.227
 4484WAT    HW122417   2.163   2.038   2.282
 4484WAT    HW222418   2.137   2.077   2.139
 4484WAT    LP122419   2.084   2.144   2.246
 4484WAT    LP222420   2.196   2.161   2.230
 4485WAT     OW22421   0.710   5.679   4.941
 4485WAT    HW122422   0.664   5.722   5.014
 4485WAT    HW222423   0.676   5.723   4.863
 4485WAT    LP122424   0.779   5.688   4.946
 4485WAT    LP222425   0.695   5.611   4.939
 4486WAT     OW22426   5.351   2.860   5.041
 4486WAT    HW122427   5.296   2.786   5.068
 4486WAT    HW222428   5.437   2.821   5.024
 4486WAT    LP122429   5.325   2.889   4.983
 4486WAT    LP222430   5.355   2.907   5.092
 4487WAT     OW22431   5.788   5.068   3.226
 4487WAT    HW122432   5.717   5.023   3.273
 4487WAT    HW222433   5.837   4.998   3.183
 4487WAT    LP122434   5.762   5.113   3.179
 4487WAT    LP222435   5.828   5.103   3.271
 4488WAT     OW22436   2.272   4.892   6.266
 4488WAT    HW122437   2.249   4.827   6.333
 4488WAT    HW222438   2.312   4.964   6.315
 4488WAT    LP122439   2.317   4.865   6.220
 4488WAT    LP222440   2.214   4.914   6.233
 4489WAT     OW22441   0.408   1.402   2.227
 4489WAT    HW122442   0.500   1.387   2.251
 4489WAT    HW222443   0.366   1.431   2.307
 4489WAT    LP122444   0.404   1.451   2.177
 4489WAT    LP222445   0.379   1.342   2.204
 4490WAT     OW22446   6.313   0.220   1.771
 4490WAT    HW122447   6.392   0.240   1.721
 4490WAT    HW222448   6.288   0.304   1.810
 4490WAT    LP122449   6.262   0.196   1.729
 4490WAT    LP222450   6.327   0.173   1.821
 4491WAT     OW22451   5.070   6.462   6.125
 4491WAT    HW122452   5.026   6.507   6.197
 4491WAT    HW222453   5.000   6.413   6.081
 4491WAT    LP122454   5.100   6.507   6.081
 4491WAT    LP222455   5.119   6.418   6.150
 4492WAT     OW22456   5.328   1.391   4.144
 4492WAT    HW122457   5.356   1.480   4.166
 4492WAT    HW222458   5.268   1.402   4.070
 4492WAT    LP122459   5.383   1.352   4.126
 4492WAT    LP222460   5.295   1.362   4.199
 4493WAT     OW22461   4.995   0.426   0.046
 4493WAT    HW122462   4.989   0.331   0.038
 4493WAT    HW222463   4.974   0.443   0.138
 4493WAT    LP122464   5.060   0.448   0.030
 4493WAT    LP222465   4.949   0.457   0.003
 4494WAT     OW22466   1.004   1.493   3.869
 4494WAT    HW122467   0.921   1.475   3.825
 4494WAT    HW222468   1.021   1.585   3.851
 4494WAT    LP122469   0.998   1.481   3.938
 4494WAT    LP222470   1.055   1.453   3.843
 4495WAT     OW22471   3.390   6.261   3.402
 4495WAT    HW122472   3.310   6.241   3.451
 4495WAT    HW222473   3.448   6.187   3.418
 4495WAT    LP122474   3.376   6.267   3.334
 4495WAT    LP222475   3.419   6.321   3.425
 4496WAT     OW22476   3.435   3.357   0.288
 4496WAT    HW122477   3.362   3.326   0.343
 4496WAT    HW222478   3.445   3.289   0.222
 4496WAT    LP122479   3.419   3.418   0.259
 4496WAT    LP222480   3.493   3.363   0.326
 4497WAT     OW22481   2.771   4.593   2.898
 4497WAT    HW122482   2.688   4.633   2.921
 4497WAT    HW222483   2.750   4.502   2.880
 4497WAT    LP122484   2.798   4.624   2.841
 4497WAT    LP222485   2.817   4.598   2.951
 4498WAT     OW22486   0.428   3.798   1.070
 4498WAT    HW122487   0.434   3.873   1.130
 4498WAT    HW222488   0.466   3.829   0.988
 4498WAT    LP122489   0.464   3.743   1.096
 4498WAT    LP222490   0.361   3.779   1.061
 4499WAT     OW22491   2.513   6.364   0.776
 4499WAT    HW122492   2.485   6.272   0.773
 4499WAT    HW222493   2.445   6.407   0.829
 4499WAT    LP122494   2.575   6.370   0.807
 4499WAT    LP222495   2.515   6.392   0.712
 4500WAT     OW22496   4.587   6.327   2.010
 4500WAT    HW122497   4.534   6.393   1.964
 4500WAT    HW222498   4.662   6.313   1.953
 4500WAT    LP122499   4.607   6.352   2.072
 4500WAT    LP222500   4.551   6.268   2.019
 4501WAT     OW22501   3.075   4.816   3.137
 4501WAT    HW122502   3.116   4.879   3.078
 4501WAT    HW222503   3.138   4.807   3.209
 4501WAT    LP122504   3.014   4.840   3.161
 4501WAT    LP222505   3.065   4.754   3.105
 4502WAT     OW22506   2.780   3.973   6.312
 4502WAT    HW122507   2.686   3.968   6.296
 4502WAT    HW222508   2.809   3.881   6.311
 4502WAT    LP122509   2.812   4.009   6.261
 4502WAT    LP222510   2.794   4.003   6.373
 4503WAT     OW22511   6.447   5.041   3.249
 4503WAT    HW122512   6.512   5.027   3.180
 4503WAT    HW222513   6.492   5.015   3.330
 4503WAT    LP122514   6.428   5.108   3.252
 4503WAT    LP222515   6.391   5.000   3.238
 4504WAT     OW22516   5.235   0.555   2.173
 4504WAT    HW122517   5.280   0.622   2.225
 4504WAT    HW222518   5.256   0.578   2.082
 4504WAT    LP122519   5.260   0.491   2.188
 4504WAT    LP222520   5.166   0.557   2.184
 4505WAT     OW22521   5.283   5.416   0.022
 4505WAT    HW122522   5.243   5.385   0.103
 4505WAT    HW222523   5.344   5.484   0.050
 4505WAT    LP122524   5.317   5.364  -0.010
 4505WAT    LP222525   5.235   5.442  -0.020
 4506WAT     OW22526   2.060   2.076   6.194
 4506WAT    HW122527   2.123   2.112   6.133
 4506WAT    HW222528   2.000   2.148   6.212
 4506WAT    LP122529   2.026   2.022   6.166
 4506WAT    LP222530   2.091   2.055   6.253
 4507WAT     OW22531   2.371   3.618   5.414
 4507WAT    HW122532   2.351   3.651   5.502
 4507WAT    HW222533   2.460   3.584   5.421
 4507WAT    LP122534   2.327   3.567   5.396
 4507WAT    LP222535   2.368   3.669   5.367
 4508WAT     OW22536   1.877   5.397   1.157
 4508WAT    HW122537   1.853   5.484   1.189
 4508WAT    HW222538   1.808   5.340   1.190
 4508WAT    LP122539   1.880   5.396   1.088
 4508WAT    LP222540   1.939   5.378   1.184
 4509WAT     OW22541   2.423   6.045   4.573
 4509WAT    HW122542   2.519   6.047   4.569
 4509WAT    HW222543   2.399   5.963   4.530
 4509WAT    LP122544   2.401   6.046   4.639
 4509WAT    LP222545   2.397   6.100   4.539
 4510WAT     OW22546   6.473   0.813   5.734
 4510WAT    HW122547   6.532   0.817   5.808
 4510WAT    HW222548   6.441   0.903   5.724
 4510WAT    LP122549   6.506   0.792   5.676
 4510WAT    LP222550   6.420   0.770   5.747
 4511WAT     OW22551   1.416   3.859   2.735
 4511WAT    HW122552   1.489   3.855   2.796
 4511WAT    HW222553   1.395   3.952   2.728
 4511WAT    LP122554   1.434   3.832   2.673
 4511WAT    LP222555   1.361   3.824   2.761
 4512WAT     OW22556   5.468   1.508   0.236
 4512WAT    HW122557   5.382   1.467   0.239
 4512WAT    HW222558   5.462   1.572   0.165
 4512WAT    LP122559   5.482   1.540   0.297
 4512WAT    LP222560   5.518   1.461   0.223
 4513WAT     OW22561   2.823   0.577   1.347
 4513WAT    HW122562   2.734   0.573   1.314
 4513WAT    HW222563   2.853   0.666   1.326
 4513WAT    LP122564   2.824   0.567   1.416
 4513WAT    LP222565   2.863   0.529   1.316
 4514WAT     OW22566   3.983   4.155   5.105
 4514WAT    HW122567   4.078   4.159   5.119
 4514WAT    HW222568   3.965   4.227   5.045
 4514WAT    LP122569   3.965   4.094   5.076
 4514WAT    LP222570   3.949   4.163   5.166
 4515WAT     OW22571   0.954   2.855   2.577
 4515WAT    HW122572   1.008   2.864   2.656
 4515WAT    HW222573   0.867   2.834   2.610
 4515WAT    LP122574   0.953   2.915   2.541
 4515WAT    LP222575   0.978   2.803   2.537
 4516WAT     OW22576   5.769   1.293   3.380
 4516WAT    HW122577   5.804   1.382   3.376
 4516WAT    HW222578   5.754   1.277   3.473
 4516WAT    LP122579   5.709   1.288   3.344
 4516WAT    LP222580   5.815   1.247   3.354
 4517WAT     OW22581   5.392   5.851   2.500
 4517WAT    HW122582   5.387   5.880   2.409
 4517WAT    HW222583   5.450   5.915   2.542
 4517WAT    LP122584   5.329   5.851   2.529
 4517WAT    LP222585   5.420   5.787   2.503
 4518WAT     OW22586   6.661   6.458   5.110
 4518WAT    HW122587   6.606   6.426   5.039
 4518WAT    HW222588   6.657   6.553   5.103
 4518WAT    LP122589   6.637   6.436   5.172
 4518WAT    LP222590   6.727   6.436   5.102
 4519WAT     OW22591   3.068   6.293   2.190
 4519WAT    HW122592   3.131   6.238   2.236
 4519WAT    HW222593   3.101   6.382   2.201
 4519WAT    LP122594   3.065   6.276   2.122
 4519WAT    LP222595   3.004   6.286   2.219
 4520WAT     OW22596   5.491   2.667   5.236
 4520WAT    HW122597   5.484   2.591   5.293
 4520WAT    HW222598   5.447   2.737   5.284
 4520WAT    LP122599   5.558   2.684   5.224
 4520WAT    LP222600   5.459   2.655   5.175
 4521WAT     OW22601   5.726   1.230   5.898
 4521WAT    HW122602   5.640   1.263   5.922
 4521WAT    HW222603   5.716   1.134   5.897
 4521WAT    LP122604   5.745   1.253   5.835
 4521WAT    LP222605   5.774   1.249   5.945
 4522WAT     OW22606   4.264   4.316   3.256
 4522WAT    HW122607   4.238   4.272   3.337
 4522WAT    HW222608   4.358   4.331   3.266
 4522WAT    LP122609   4.251   4.276   3.201
 4522WAT    LP222610   4.230   4.377   3.249
 4523WAT     OW22611   1.778   1.705   4.072
 4523WAT    HW122612   1.869   1.710   4.044
 4523WAT    HW222613   1.778   1.738   4.161
 4523WAT    LP122614   1.738   1.745   4.031
 4523WAT    LP222615   1.755   1.639   4.070
 4524WAT     OW22616   5.006   6.091   5.968
 4524WAT    HW122617   4.979   6.069   6.057
 4524WAT    HW222618   4.972   6.180   5.954
 4524WAT    LP122619   5.075   6.090   5.962
 4524WAT    LP222620   4.978   6.047   5.922
 4525WAT     OW22621   2.147   5.438   2.270
 4525WAT    HW122622   2.223   5.428   2.327
 4525WAT    HW222623   2.074   5.403   2.321
 4525WAT    LP122624   2.136   5.505   2.255
 4525WAT    LP222625   2.155   5.402   2.211
 4526WAT     OW22626   6.423   5.570   4.503
 4526WAT    HW122627   6.378   5.503   4.451
 4526WAT    HW222628   6.364   5.589   4.576
 4526WAT    LP122629   6.484   5.545   4.527
 4526WAT    LP222630   6.435   5.627   4.465
 4527WAT     OW22631   6.072   2.005   0.133
 4527WAT    HW122632   6.074   1.909   0.132
 4527WAT    HW222633   6.164   2.030   0.141
 4527WAT    LP122634   6.045   2.030   0.073
 4527WAT    LP222635   6.035   2.029   0.187
 4528WAT     OW22636   2.654   0.984   0.118
 4528WAT    HW122637   2.734   0.987   0.065
 4528WAT    HW222638   2.637   1.075   0.142
 4528WAT    LP122639   2.601   0.958   0.080
 4528WAT    LP222640   2.664   0.945   0.175
 4529WAT     OW22641   5.336   3.642   2.411
 4529WAT    HW122642   5.303   3.696   2.339
 4529WAT    HW222643   5.394   3.700   2.459
 4529WAT    LP122644   5.283   3.620   2.452
 4529WAT    LP222645   5.371   3.586   2.387
 4530WAT     OW22646   3.068   1.831   4.747
 4530WAT    HW122647   3.115   1.771   4.806
 4530WAT    HW222648   3.019   1.888   4.806
 4530WAT    LP122649   3.113   1.868   4.709
 4530WAT    LP222650   3.025   1.796   4.705
 4531WAT     OW22651   6.384   0.274   0.021
 4531WAT    HW122652   6.465   0.250  -0.024
 4531WAT    HW222653   6.408   0.280   0.113
 4531WAT    LP122654   6.360   0.335  -0.003
 4531WAT    LP222655   6.335   0.225   0.011
 4532WAT     OW22656   0.647   3.911   2.183
 4532WAT    HW122657   0.713   3.974   2.210
 4532WAT    HW222658   0.604   3.951   2.107
 4532WAT    LP122659   0.676   3.850   2.165
 4532WAT    LP222660   0.600   3.900   2.234
 4533WAT     OW22661   1.648   6.273   1.753
 4533WAT    HW122662   1.561   6.275   1.713
 4533WAT    HW222663   1.681   6.185   1.735
 4533WAT    LP122664   1.689   6.322   1.725
 4533WAT    LP222665   1.643   6.284   1.822
 4534WAT     OW22666   2.497   3.115   5.154
 4534WAT    HW122667   2.426   3.133   5.092
 4534WAT    HW222668   2.453   3.110   5.239
 4534WAT    LP122669   2.528   3.054   5.139
 4534WAT    LP222670   2.544   3.167   5.154
 4535WAT     OW22671   0.840   3.883   0.370
 4535WAT    HW122672   0.866   3.808   0.315
 4535WAT    HW222673   0.879   3.959   0.326
 4535WAT    LP122674   0.771   3.889   0.372
 4535WAT    LP222675   0.865   3.876   0.435
 4536WAT     OW22676   6.684   4.160   1.555
 4536WAT    HW122677   6.664   4.127   1.467
 4536WAT    HW222678   6.600   4.190   1.589
 4536WAT    LP122679   6.710   4.110   1.595
 4536WAT    LP222680   6.729   4.214   1.552
 4537WAT     OW22681   2.980   4.720   0.194
 4537WAT    HW122682   3.070   4.702   0.223
 4537WAT    HW222683   2.968   4.814   0.210
 4537WAT    LP122684   2.972   4.705   0.126
 4537WAT    LP222685   2.934   4.683   0.232
 4538WAT     OW22686   0.237   2.869   5.903
 4538WAT    HW122687   0.325   2.885   5.937
 4538WAT    HW222688   0.179   2.914   5.965
 4538WAT    LP122689   0.230   2.895   5.839
 4538WAT    LP222690   0.222   2.800   5.902
 4539WAT     OW22691   3.526   2.038   1.638
 4539WAT    HW122692   3.498   2.091   1.713
 4539WAT    HW222693   3.446   1.996   1.607
 4539WAT    LP122694   3.555   2.078   1.588
 4539WAT    LP222695   3.573   1.990   1.659
 4540WAT     OW22696   3.190   1.938   0.339
 4540WAT    HW122697   3.260   1.958   0.278
 4540WAT    HW222698   3.193   2.009   0.403
 4540WAT    LP122699   3.128   1.937   0.307
 4540WAT    LP222700   3.200   1.876   0.370
 4541WAT     OW22701   2.162   2.305   0.139
 4541WAT    HW122702   2.221   2.253   0.084
 4541WAT    HW222703   2.075   2.288   0.104
 4541WAT    LP122704   2.167   2.285   0.206
 4541WAT    LP222705   2.178   2.374   0.134
 4542WAT     OW22706   6.776   0.290   4.364
 4542WAT    HW122707   6.703   0.351   4.376
 4542WAT    HW222708   6.825   0.294   4.446
 4542WAT    LP122709   6.752   0.225   4.352
 4542WAT    LP222710   6.816   0.310   4.310
 4543WAT     OW22711   5.387   3.075   5.212
 4543WAT    HW122712   5.378   3.000   5.153
 4543WAT    HW222713   5.306   3.074   5.264
 4543WAT    LP122714   5.443   3.066   5.254
 4543WAT    LP222715   5.393   3.134   5.176
 4544WAT     OW22716   6.280   6.585   2.507
 4544WAT    HW122717   6.291   6.534   2.586
 4544WAT    HW222718   6.292   6.523   2.435
 4544WAT    LP122719   6.215   6.613   2.504
 4544WAT    LP222720   6.327   6.637   2.503
 4545WAT     OW22721   4.350   6.086   2.548
 4545WAT    HW122722   4.279   6.126   2.599
 4545WAT    HW222723   4.310   6.008   2.510
 4545WAT    LP122724   4.372   6.129   2.498
 4545WAT    LP222725   4.403   6.069   2.590
 4546WAT     OW22726   0.930   1.920   5.846
 4546WAT    HW122727   0.967   2.009   5.847
 4546WAT    HW222728   1.000   1.866   5.809
 4546WAT    LP122729   0.915   1.899   5.911
 4546WAT    LP222730   0.873   1.917   5.806
 4547WAT     OW22731   5.034   2.896   5.123
 4547WAT    HW122732   5.050   2.932   5.035
 4547WAT    HW222733   5.073   2.808   5.120
 4547WAT    LP122734   5.066   2.935   5.171
 4547WAT    LP222735   4.966   2.892   5.136
 4548WAT     OW22736   5.130   3.911   1.714
 4548WAT    HW122737   5.209   3.955   1.744
 4548WAT    HW222738   5.098   3.864   1.791
 4548WAT    LP122739   5.083   3.957   1.691
 4548WAT    LP222740   5.145   3.866   1.662
 4549WAT     OW22741   5.525   2.440   5.796
 4549WAT    HW122742   5.527   2.523   5.844
 4549WAT    HW222743   5.603   2.394   5.824
 4549WAT    LP122744   5.467   2.404   5.812
 4549WAT    LP222745   5.526   2.451   5.727
 4550WAT     OW22746   0.923   3.024   0.613
 4550WAT    HW122747   0.954   3.024   0.523
 4550WAT    HW222748   0.989   3.073   0.662
 4550WAT    LP122749   0.860   3.055   0.618
 4550WAT    LP222750   0.918   2.958   0.638
 4551WAT     OW22751   6.221   1.025   4.466
 4551WAT    HW122752   6.200   1.037   4.559
 4551WAT    HW222753   6.312   0.995   4.466
 4551WAT    LP122754   6.179   0.977   4.437
 4551WAT    LP222755   6.215   1.085   4.432
 4552WAT     OW22756   4.348   0.961   0.346
 4552WAT    HW122757   4.280   0.897   0.328
 4552WAT    HW222758   4.332   0.988   0.437
 4552WAT    LP122759   4.412   0.932   0.340
 4552WAT    LP222760   4.343   1.016   0.303
 4553WAT     OW22761   4.788   1.504   3.814
 4553WAT    HW122762   4.799   1.459   3.729
 4553WAT    HW222763   4.694   1.497   3.832
 4553WAT    LP122764   4.826   1.472   3.863
 4553WAT    LP222765   4.808   1.571   3.809
 4554WAT     OW22766   6.372   6.558   4.833
 4554WAT    HW122767   6.281   6.569   4.808
 4554WAT    HW222768   6.377   6.592   4.922
 4554WAT    LP122769   6.390   6.490   4.831
 4554WAT    LP222770   6.414   6.594   4.790
 4555WAT     OW22771   3.958   5.776   2.019
 4555WAT    HW122772   3.891   5.755   1.954
 4555WAT    HW222773   3.949   5.708   2.085
 4555WAT    LP122774   4.022   5.774   1.990
 4555WAT    LP222775   3.947   5.839   2.047
 4556WAT     OW22776   2.090   3.418   3.172
 4556WAT    HW122777   2.120   3.416   3.082
 4556WAT    HW222778   2.170   3.407   3.224
 4556WAT    LP122779   2.059   3.479   3.187
 4556WAT    LP222780   2.046   3.365   3.185
 4557WAT     OW22781   0.333   2.820   6.499
 4557WAT    HW122782   0.398   2.845   6.565
 4557WAT    HW222783   0.362   2.734   6.469
 4557WAT    LP122784   0.269   2.817   6.527
 4557WAT    LP222785   0.333   2.866   6.447
 4558WAT     OW22786   0.040   3.561   4.428
 4558WAT    HW122787   0.094   3.521   4.496
 4558WAT    HW222788   0.086   3.542   4.347
 4558WAT    LP122789  -0.024   3.532   4.427
 4558WAT    LP222790   0.034   3.630   4.438
 4559WAT     OW22791   2.137   4.049   2.832
 4559WAT    HW122792   2.109   3.958   2.829
 4559WAT    HW222793   2.084   4.093   2.766
 4559WAT    LP122794   2.125   4.077   2.896
 4559WAT    LP222795   2.205   4.055   2.817
 4560WAT     OW22796   4.319   3.665   3.335
 4560WAT    HW122797   4.376   3.739   3.317
 4560WAT    HW222798   4.240   3.681   3.283
 4560WAT    LP122799   4.350   3.605   3.316
 4560WAT    LP222800   4.303   3.661   3.403
 4561WAT     OW22801   5.100   2.538   5.786
 4561WAT    HW122802   5.011   2.512   5.761
 4561WAT    HW222803   5.090   2.577   5.873
 4561WAT    LP122804   5.142   2.483   5.788
 4561WAT    LP222805   5.125   2.585   5.740
 4562WAT     OW22806   2.634   6.173   3.427
 4562WAT    HW122807   2.581   6.151   3.350
 4562WAT    HW222808   2.572   6.213   3.488
 4562WAT    LP122809   2.662   6.115   3.454
 4562WAT    LP222810   2.685   6.218   3.410
 4563WAT     OW22811   4.070   3.751   1.449
 4563WAT    HW122812   4.048   3.657   1.450
 4563WAT    HW222813   3.989   3.794   1.423
 4563WAT    LP122814   4.090   3.772   1.513
 4563WAT    LP222815   4.121   3.764   1.403
 4564WAT     OW22816   1.706   5.882   2.269
 4564WAT    HW122817   1.655   5.952   2.229
 4564WAT    HW222818   1.795   5.918   2.276
 4564WAT    LP122819   1.682   5.866   2.333
 4564WAT    LP222820   1.706   5.825   2.229
 4565WAT     OW22821   5.887   0.578   2.343
 4565WAT    HW122822   5.811   0.622   2.304
 4565WAT    HW222823   5.934   0.542   2.268
 4565WAT    LP122824   5.927   0.624   2.378
 4565WAT    LP222825   5.866   0.527   2.386
 4566WAT     OW22826   3.667   1.422   2.605
 4566WAT    HW122827   3.692   1.418   2.512
 4566WAT    HW222828   3.631   1.336   2.624
 4566WAT    LP122829   3.723   1.435   2.645
 4566WAT    LP222830   3.619   1.472   2.616
 4567WAT     OW22831   0.143   5.166   6.172
 4567WAT    HW122832   0.072   5.224   6.143
 4567WAT    HW222833   0.208   5.170   6.102
 4567WAT    LP122834   0.170   5.190   6.232
 4567WAT    LP222835   0.119   5.101   6.181
 4568WAT     OW22836   0.453   4.398   3.231
 4568WAT    HW122837   0.533   4.432   3.190
 4568WAT    HW222838   0.456   4.304   3.215
 4568WAT    LP122839   0.453   4.412   3.299
 4568WAT    LP222840   0.396   4.426   3.201
 4569WAT     OW22841   2.481   4.622   6.396
 4569WAT    HW122842   2.397   4.658   6.425
 4569WAT    HW222843   2.520   4.585   6.475
 4569WAT    LP122844   2.472   4.573   6.347
 4569WAT    LP222845   2.522   4.673   6.370
 4570WAT     OW22846   0.435   2.760   1.801
 4570WAT    HW122847   0.354   2.765   1.851
 4570WAT    HW222848   0.446   2.667   1.782
 4570WAT    LP122849   0.430   2.797   1.741
 4570WAT    LP222850   0.489   2.784   1.838
 4571WAT     OW22851   2.677   3.545   4.557
 4571WAT    HW122852   2.739   3.479   4.526
 4571WAT    HW222853   2.611   3.551   4.488
 4571WAT    LP122854   2.648   3.526   4.617
 4571WAT    LP222855   2.709   3.607   4.565
 4572WAT     OW22856   0.134   2.318   2.937
 4572WAT    HW122857   0.198   2.333   3.007
 4572WAT    HW222858   0.099   2.406   2.918
 4572WAT    LP122859   0.165   2.291   2.881
 4572WAT    LP222860   0.083   2.276   2.959
 4573WAT     OW22861   3.173   3.108   1.231
 4573WAT    HW122862   3.241   3.175   1.226
 4573WAT    HW222863   3.109   3.133   1.164
 4573WAT    LP122864   3.200   3.045   1.217
 4573WAT    LP222865   3.144   3.107   1.294
 4574WAT     OW22866   3.412   1.253   5.419
 4574WAT    HW122867   3.348   1.298   5.364
 4574WAT    HW222868   3.360   1.212   5.488
 4574WAT    LP122869   3.447   1.205   5.382
 4574WAT    LP222870   3.457   1.299   5.446
 4575WAT     OW22871   0.497   2.768   5.514
 4575WAT    HW122872   0.523   2.747   5.603
 4575WAT    HW222873   0.564   2.726   5.459
 4575WAT    LP122874   0.434   2.742   5.499
 4575WAT    LP222875   0.497   2.837   5.503
 4576WAT     OW22876   1.014   2.047   6.442
 4576WAT    HW122877   0.941   2.101   6.410
 4576WAT    HW222878   1.064   2.026   6.364
 4576WAT    LP122879   1.053   2.084   6.487
 4576WAT    LP222880   0.990   1.989   6.473
 4577WAT     OW22881   3.062   1.790   5.289
 4577WAT    HW122882   3.131   1.730   5.317
 4577WAT    HW222883   3.013   1.809   5.369
 4577WAT    LP122884   3.089   1.848   5.262
 4577WAT    LP222885   3.020   1.760   5.241
 4578WAT     OW22886   6.577   5.469   6.575
 4578WAT    HW122887   6.526   5.530   6.629
 4578WAT    HW222888   6.539   5.477   6.487
 4578WAT    LP122889   6.644   5.488   6.574
 4578WAT    LP222890   6.570   5.404   6.599
 4579WAT     OW22891   6.342   2.032   0.192
 4579WAT    HW122892   6.402   2.102   0.165
 4579WAT    HW222893   6.335   2.042   0.287
 4579WAT    LP122894   6.279   2.041   0.161
 4579WAT    LP222895   6.368   1.969   0.175
 4580WAT     OW22896   4.212   3.432   3.661
 4580WAT    HW122897   4.145   3.411   3.595
 4580WAT    HW222898   4.215   3.528   3.663
 4580WAT    LP122899   4.193   3.407   3.723
 4580WAT    LP222900   4.274   3.405   3.643
 4581WAT     OW22901   0.778   1.588   2.279
 4581WAT    HW122902   0.742   1.624   2.361
 4581WAT    HW222903   0.739   1.501   2.272
 4581WAT    LP122904   0.758   1.628   2.224
 4581WAT    LP222905   0.847   1.585   2.281
 4582WAT     OW22906   6.623   3.376   6.336
 4582WAT    HW122907   6.557   3.308   6.350
 4582WAT    HW222908   6.654   3.396   6.425
 4582WAT    LP122909   6.675   3.352   6.296
 4582WAT    LP222910   6.594   3.433   6.307
 4583WAT     OW22911   4.128   0.957   0.021
 4583WAT    HW122912   4.072   0.885   0.048
 4583WAT    HW222913   4.068   1.021  -0.019
 4583WAT    LP122914   4.161   0.986   0.076
 4583WAT    LP222915   4.176   0.936  -0.026
 4584WAT     OW22916   6.322   2.524   0.118
 4584WAT    HW122917   6.279   2.606   0.142
 4584WAT    HW222918   6.394   2.551   0.061
 4584WAT    LP122919   6.346   2.491   0.175
 4584WAT    LP222920   6.278   2.482   0.084
 4585WAT     OW22921   0.324   0.699   4.077
 4585WAT    HW122922   0.298   0.687   4.168
 4585WAT    HW222923   0.285   0.782   4.051
 4585WAT    LP122924   0.394   0.701   4.071
 4585WAT    LP222925   0.299   0.647   4.037
 4586WAT     OW22926   5.010   1.702   2.708
 4586WAT    HW122927   5.097   1.721   2.742
 4586WAT    HW222928   5.023   1.631   2.646
 4586WAT    LP122929   4.967   1.683   2.760
 4586WAT    LP222930   4.983   1.759   2.676
 4587WAT     OW22931   4.657   1.715   6.024
 4587WAT    HW122932   4.635   1.807   6.036
 4587WAT    HW222933   4.597   1.668   6.083
 4587WAT    LP122934   4.647   1.695   5.958
 4587WAT    LP222935   4.724   1.703   6.042
 4588WAT     OW22936   1.202   1.961   3.299
 4588WAT    HW122937   1.261   1.941   3.226
 4588WAT    HW222938   1.166   1.877   3.326
 4588WAT    LP122939   1.237   1.991   3.352
 4588WAT    LP222940   1.151   2.004   3.278
 4589WAT     OW22941   2.514   6.562   3.244
 4589WAT    HW122942   2.458   6.490   3.273
 4589WAT    HW222943   2.559   6.591   3.324
 4589WAT    LP122944   2.560   6.541   3.196
 4589WAT    LP222945   2.475   6.614   3.218
 4590WAT     OW22946   0.995   0.481   1.347
 4590WAT    HW122947   1.072   0.516   1.390
 4590WAT    HW222948   0.998   0.387   1.365
 4590WAT    LP122949   0.936   0.509   1.373
 4590WAT    LP222950   0.998   0.492   1.278
 4591WAT     OW22951   0.990   4.312   2.310
 4591WAT    HW122952   1.079   4.342   2.325
 4591WAT    HW222953   0.948   4.318   2.396
 4591WAT    LP122954   0.957   4.352   2.264
 4591WAT    LP222955   0.990   4.245   2.287
 4592WAT     OW22956   3.930   4.291   0.848
 4592WAT    HW122957   3.872   4.299   0.772
 4592WAT    HW222958   3.874   4.311   0.923
 4592WAT    LP122959   3.956   4.226   0.852
 4592WAT    LP222960   3.983   4.337   0.843
 4593WAT     OW22961   2.219   0.189   0.225
 4593WAT    HW122962   2.284   0.250   0.189
 4593WAT    HW222963   2.258   0.103   0.212
 4593WAT    LP122964   2.209   0.201   0.293
 4593WAT    LP222965   2.158   0.194   0.191
 4594WAT     OW22966   2.099   5.016   2.474
 4594WAT    HW122967   2.077   5.035   2.382
 4594WAT    HW222968   2.192   4.994   2.472
 4594WAT    LP122969   2.087   5.071   2.514
 4594WAT    LP222970   2.061   4.961   2.497
 4595WAT     OW22971   1.778   4.584   6.452
 4595WAT    HW122972   1.747   4.572   6.362
 4595WAT    HW222973   1.708   4.550   6.507
 4595WAT    LP122974   1.837   4.548   6.462
 4595WAT    LP222975   1.789   4.652   6.465
 4596WAT     OW22976   3.396   2.917   4.892
 4596WAT    HW122977   3.485   2.890   4.912
 4596WAT    HW222978   3.375   2.872   4.810
 4596WAT    LP122979   3.352   2.898   4.942
 4596WAT    LP222980   3.393   2.987   4.883
 4597WAT     OW22981   6.549   3.729   4.843
 4597WAT    HW122982   6.509   3.665   4.784
 4597WAT    HW222983   6.565   3.805   4.788
 4597WAT    LP122984   6.505   3.744   4.895
 4597WAT    LP222985   6.609   3.704   4.869
 4598WAT     OW22986   3.627   5.065   3.242
 4598WAT    HW122987   3.588   5.078   3.155
 4598WAT    HW222988   3.720   5.049   3.224
 4598WAT    LP122989   3.619   5.122   3.281
 4598WAT    LP222990   3.598   5.010   3.274
 4599WAT     OW22991   5.194   2.042   4.796
 4599WAT    HW122992   5.121   2.041   4.858
 4599WAT    HW222993   5.227   2.132   4.800
 4599WAT    LP122994   5.243   1.996   4.814
 4599WAT    LP222995   5.171   2.028   4.731
 4600WAT     OW22996   6.038   4.752   1.707
 4600WAT    HW122997   5.987   4.784   1.633
 4600WAT    HW222998   6.028   4.657   1.705
 4600WAT    LP122999   6.106   4.770   1.700
 4600WAT    LP223000   6.014   4.778   1.768
 4601WAT     OW23001   2.416   3.160   2.991
 4601WAT    HW123002   2.425   3.201   2.905
 4601WAT    HW223003   2.461   3.220   3.050
 4601WAT    LP123004   2.349   3.154   3.008
 4601WAT    LP223005   2.447   3.097   2.991
 4602WAT     OW23006   4.393   6.287   4.282
 4602WAT    HW123007   4.456   6.335   4.227
 4602WAT    HW223008   4.436   6.279   4.367
 4602WAT    LP123009   4.333   6.324   4.288
 4602WAT    LP223010   4.379   6.224   4.255
 4603WAT     OW23011   5.905   6.149   6.240
 4603WAT    HW123012   5.812   6.170   6.246
 4603WAT    HW223013   5.913   6.066   6.288
 4603WAT    LP123014   5.924   6.141   6.174
 4603WAT    LP223015   5.943   6.199   6.270
 4604WAT     OW23016   0.941   5.486   1.280
 4604WAT    HW123017   1.012   5.423   1.292
 4604WAT    HW223018   0.861   5.435   1.297
 4604WAT    LP123019   0.946   5.539   1.325
 4604WAT    LP223020   0.940   5.511   1.215
 4605WAT     OW23021   6.452   2.966   6.001
 4605WAT    HW123022   6.387   2.900   6.025
 4605WAT    HW223023   6.469   2.951   5.908
 4605WAT    LP123024   6.427   3.031   6.012
 4605WAT    LP223025   6.511   2.958   6.038
 4606WAT     OW23026   2.122   3.293   4.599
 4606WAT    HW123027   2.144   3.383   4.572
 4606WAT    HW223028   2.202   3.259   4.639
 4606WAT    LP123029   2.069   3.294   4.645
 4606WAT    LP223030   2.104   3.255   4.543
 4607WAT     OW23031   1.861   0.278   3.229
 4607WAT    HW123032   1.783   0.227   3.250
 4607WAT    HW223033   1.869   0.340   3.302
 4607WAT    LP123034   1.917   0.237   3.225
 4607WAT    LP223035   1.853   0.312   3.168
 4608WAT     OW23036   0.130   2.314   4.058
 4608WAT    HW123037   0.176   2.265   3.991
 4608WAT    HW223038   0.193   2.322   4.130
 4608WAT    LP123039   0.112   2.377   4.035
 4608WAT    LP223040   0.073   2.280   4.079
 4609WAT     OW23041   6.514   2.351   5.812
 4609WAT    HW123042   6.595   2.379   5.768
 4609WAT    HW223043   6.466   2.432   5.826
 4609WAT    LP123044   6.478   2.307   5.771
 4609WAT    LP223045   6.529   2.320   5.872
 4610WAT     OW23046   5.622   1.500   1.067
 4610WAT    HW123047   5.611   1.408   1.043
 4610WAT    HW223048   5.695   1.500   1.129
 4610WAT    LP123049   5.638   1.538   1.011
 4610WAT    LP223050   5.564   1.525   1.097
 4611WAT     OW23051   1.339   3.295   5.405
 4611WAT    HW123052   1.431   3.298   5.377
 4611WAT    HW223053   1.331   3.212   5.451
 4611WAT    LP123054   1.325   3.349   5.447
 4611WAT    LP223055   1.297   3.298   5.350
 4612WAT     OW23056   5.323   4.273   5.814
 4612WAT    HW123057   5.317   4.351   5.759
 4612WAT    HW223058   5.279   4.205   5.764
 4612WAT    LP123059   5.390   4.255   5.825
 4612WAT    LP223060   5.291   4.283   5.875
 4613WAT     OW23061   3.688   4.542   1.234
 4613WAT    HW123062   3.716   4.634   1.228
 4613WAT    HW223063   3.698   4.520   1.326
 4613WAT    LP123064   3.621   4.536   1.214
 4613WAT    LP223065   3.728   4.502   1.194
 4614WAT     OW23066   6.702   4.271   4.451
 4614WAT    HW123067   6.659   4.214   4.386
 4614WAT    HW223068   6.685   4.360   4.420
 4614WAT    LP123069   6.675   4.261   4.514
 4614WAT    LP223070   6.771   4.258   4.453
 4615WAT     OW23071   1.459   5.295   2.713
 4615WAT    HW123072   1.478   5.264   2.802
 4615WAT    HW223073   1.392   5.362   2.726
 4615WAT    LP123074   1.516   5.323   2.684
 4615WAT    LP223075   1.434   5.243   2.673
 4616WAT     OW23076   5.803   6.622   3.429
 4616WAT    HW123077   5.756   6.602   3.348
 4616WAT    HW223078   5.752   6.579   3.497
 4616WAT    LP123079   5.868   6.597   3.426
 4616WAT    LP223080   5.805   6.691   3.439
 4617WAT     OW23081   3.433   3.669   1.720
 4617WAT    HW123082   3.401   3.587   1.757
 4617WAT    HW223083   3.430   3.731   1.793
 4617WAT    LP123084   3.499   3.662   1.697
 4617WAT    LP223085   3.392   3.691   1.668
 4618WAT     OW23086   1.496   0.768   0.792
 4618WAT    HW123087   1.443   0.819   0.731
 4618WAT    HW223088   1.523   0.831   0.859
 4618WAT    LP123089   1.458   0.716   0.821
 4618WAT    LP223090   1.552   0.741   0.760
 4619WAT     OW23091   4.567   1.871   5.471
 4619WAT    HW123092   4.607   1.886   5.557
 4619WAT    HW223093   4.642   1.859   5.412
 4619WAT    LP123094   4.527   1.814   5.472
 4619WAT    LP223095   4.529   1.927   5.451
 4620WAT     OW23096   0.220   1.860   3.462
 4620WAT    HW123097   0.199   1.952   3.480
 4620WAT    HW223098   0.184   1.812   3.536
 4620WAT    LP123099   0.191   1.840   3.402
 4620WAT    LP223100   0.290   1.852   3.459
 4621WAT     OW23101   2.479   5.319   0.201
 4621WAT    HW123102   2.435   5.298   0.284
 4621WAT    HW223103   2.516   5.236   0.172
 4621WAT    LP123104   2.434   5.344   0.155
 4621WAT    LP223105   2.530   5.366   0.212
 4622WAT     OW23106   2.054   0.089   1.453
 4622WAT    HW123107   2.019   0.147   1.385
 4622WAT    HW223108   2.137   0.058   1.417
 4622WAT    LP123109   2.065   0.124   1.513
 4622WAT    LP223110   2.011   0.036   1.465
 4623WAT     OW23111   2.956   2.213   4.689
 4623WAT    HW123112   3.027   2.162   4.651
 4623WAT    HW223113   2.889   2.148   4.712
 4623WAT    LP123114   2.978   2.247   4.747
 4623WAT    LP223115   2.930   2.259   4.643
 4624WAT     OW23116   0.672   6.615   5.789
 4624WAT    HW123117   0.720   6.574   5.717
 4624WAT    HW223118   0.709   6.703   5.795
 4624WAT    LP123119   0.603   6.619   5.775
 4624WAT    LP223120   0.682   6.580   5.849
 4625WAT     OW23121   5.474   1.379   1.347
 4625WAT    HW123122   5.421   1.456   1.327
 4625WAT    HW223123   5.451   1.316   1.278
 4625WAT    LP123124   5.542   1.394   1.344
 4625WAT    LP223125   5.458   1.354   1.410
 4626WAT     OW23126   5.286   2.297   1.953
 4626WAT    HW123127   5.280   2.326   1.862
 4626WAT    HW223128   5.196   2.290   1.983
 4626WAT    LP123129   5.319   2.235   1.958
 4626WAT    LP223130   5.321   2.344   1.992
 4627WAT     OW23131   6.347   6.606   0.402
 4627WAT    HW123132   6.311   6.658   0.330
 4627WAT    HW223133   6.425   6.565   0.365
 4627WAT    LP123134   6.364   6.646   0.457
 4627WAT    LP223135   6.301   6.557   0.422
 4628WAT     OW23136   1.008   4.555   0.386
 4628WAT    HW123137   0.932   4.511   0.349
 4628WAT    HW223138   0.997   4.647   0.362
 4628WAT    LP123139   1.009   4.548   0.456
 4628WAT    LP223140   1.067   4.530   0.360
 4629WAT     OW23141   5.773   2.841   0.320
 4629WAT    HW123142   5.817   2.923   0.294
 4629WAT    HW223143   5.782   2.784   0.243
 4629WAT    LP123144   5.805   2.813   0.375
 4629WAT    LP223145   5.706   2.853   0.335
 4630WAT     OW23146   5.184   2.256   0.496
 4630WAT    HW123147   5.165   2.261   0.589
 4630WAT    HW223148   5.218   2.343   0.474
 4630WAT    LP123149   5.231   2.206   0.483
 4630WAT    LP223150   5.126   2.243   0.459
 4631WAT     OW23151   4.255   5.913   5.978
 4631WAT    HW123152   4.178   5.912   6.035
 4631WAT    HW223153   4.272   5.820   5.958
 4631WAT    LP123154   4.242   5.949   5.919
 4631WAT    LP223155   4.310   5.941   6.011
 4632WAT     OW23156   6.268   4.825   6.407
 4632WAT    HW123157   6.274   4.853   6.498
 4632WAT    HW223158   6.193   4.765   6.405
 4632WAT    LP123159   6.257   4.880   6.365
 4632WAT    LP223160   6.327   4.792   6.387
 4633WAT     OW23161   4.037   2.754   3.473
 4633WAT    HW123162   4.052   2.671   3.428
 4633WAT    HW223163   4.105   2.757   3.540
 4633WAT    LP123164   4.043   2.808   3.429
 4633WAT    LP223165   3.973   2.755   3.502
 4634WAT     OW23166   2.462   4.508   1.823
 4634WAT    HW123167   2.407   4.579   1.790
 4634WAT    HW223168   2.400   4.440   1.849
 4634WAT    LP123169   2.505   4.485   1.773
 4634WAT    LP223170   2.500   4.530   1.878
 4635WAT     OW23171   2.792   2.866   3.492
 4635WAT    HW123172   2.774   2.950   3.451
 4635WAT    HW223173   2.734   2.804   3.447
 4635WAT    LP123174   2.859   2.848   3.483
 4635WAT    LP223175   2.778   2.868   3.561
 4636WAT     OW23176   3.362   4.482   0.899
 4636WAT    HW123177   3.450   4.466   0.865
 4636WAT    HW223178   3.377   4.523   0.984
 4636WAT    LP123179   3.327   4.525   0.857
 4636WAT    LP223180   3.327   4.422   0.906
 4637WAT     OW23181   1.390   3.625   4.226
 4637WAT    HW123182   1.350   3.708   4.200
 4637WAT    HW223183   1.457   3.609   4.160
 4637WAT    LP123184   1.419   3.631   4.290
 4637WAT    LP223185   1.343   3.574   4.227
 4638WAT     OW23186   6.455   2.658   5.318
 4638WAT    HW123187   6.538   2.703   5.303
 4638WAT    HW223188   6.388   2.723   5.299
 4638WAT    LP123189   6.449   2.603   5.275
 4638WAT    LP223190   6.450   2.636   5.384
 4639WAT     OW23191   0.755   5.623   4.084
 4639WAT    HW123192   0.668   5.588   4.067
 4639WAT    HW223193   0.788   5.569   4.157
 4639WAT    LP123194   0.796   5.616   4.028
 4639WAT    LP223195   0.752   5.690   4.103
 4640WAT     OW23196   1.324   4.701   1.692
 4640WAT    HW123197   1.241   4.736   1.725
 4640WAT    HW223198   1.347   4.759   1.619
 4640WAT    LP123199   1.373   4.703   1.742
 4640WAT    LP223200   1.316   4.636   1.670
 4641WAT     OW23201   2.658   5.517   3.113
 4641WAT    HW123202   2.634   5.523   3.021
 4641WAT    HW223203   2.679   5.607   3.139
 4641WAT    LP123204   2.605   5.491   3.152
 4641WAT    LP223205   2.714   5.475   3.121
 4642WAT     OW23206   6.257   6.392   1.974
 4642WAT    HW123207   6.191   6.442   2.022
 4642WAT    HW223208   6.341   6.419   2.013
 4642WAT    LP123209   6.247   6.323   1.983
 4642WAT    LP223210   6.256   6.407   1.906
 4643WAT     OW23211   0.290   4.330   2.297
 4643WAT    HW123212   0.260   4.411   2.257
 4643WAT    HW223213   0.313   4.274   2.223
 4643WAT    LP123214   0.346   4.342   2.338
 4643WAT    LP223215   0.239   4.301   2.336
 4644WAT     OW23216   5.669   4.671   3.238
 4644WAT    HW123217   5.622   4.750   3.264
 4644WAT    HW223218   5.752   4.676   3.285
 4644WAT    LP123219   5.633   4.613   3.257
 4644WAT    LP223220   5.680   4.670   3.169
 4645WAT     OW23221   2.655   6.170   1.522
 4645WAT    HW123222   2.585   6.218   1.567
 4645WAT    HW223223   2.676   6.224   1.446
 4645WAT    LP123224   2.711   6.163   1.563
 4645WAT    LP223225   2.632   6.107   1.502
 4646WAT     OW23226   5.504   0.810   5.236
 4646WAT    HW123227   5.420   0.832   5.196
 4646WAT    HW223228   5.497   0.844   5.325
 4646WAT    LP123229   5.514   0.741   5.237
 4646WAT    LP223230   5.557   0.841   5.202
 4647WAT     OW23231   0.131   3.834   2.681
 4647WAT    HW123232   0.051   3.781   2.683
 4647WAT    HW223233   0.178   3.805   2.603
 4647WAT    LP123234   0.115   3.902   2.677
 4647WAT    LP223235   0.169   3.823   2.739
 4648WAT     OW23236   5.913   6.379   2.285
 4648WAT    HW123237   5.840   6.440   2.284
 4648WAT    HW223238   5.879   6.299   2.244
 4648WAT    LP123239   5.967   6.404   2.249
 4648WAT    LP223240   5.933   6.366   2.351
 4649WAT     OW23241   6.353   3.576   0.316
 4649WAT    HW123242   6.400   3.646   0.271
 4649WAT    HW223243   6.297   3.622   0.379
 4649WAT    LP123244   6.314   3.540   0.270
 4649WAT    LP223245   6.397   3.533   0.348
 4650WAT     OW23246   4.472   6.674   5.597
 4650WAT    HW123247   4.551   6.640   5.555
 4650WAT    HW223248   4.400   6.623   5.558
 4650WAT    LP123249   4.474   6.665   5.666
 4650WAT    LP223250   4.464   6.742   5.583
 4651WAT     OW23251   5.556   5.461   6.533
 4651WAT    HW123252   5.491   5.532   6.534
 4651WAT    HW223253   5.551   5.423   6.621
 4651WAT    LP123254   5.540   5.414   6.485
 4651WAT    LP223255   5.619   5.487   6.521
 4652WAT     OW23256   4.298   4.515   2.725
 4652WAT    HW123257   4.345   4.474   2.797
 4652WAT    HW223258   4.313   4.609   2.737
 4652WAT    LP123259   4.323   4.494   2.663
 4652WAT    LP223260   4.229   4.501   2.729
 4653WAT     OW23261   5.378   6.027   3.953
 4653WAT    HW123262   5.323   5.994   3.881
 4653WAT    HW223263   5.466   6.028   3.916
 4653WAT    LP123264   5.358   6.091   3.972
 4653WAT    LP223265   5.375   5.984   4.008
 4654WAT     OW23266   1.057   0.639   2.942
 4654WAT    HW123267   1.007   0.559   2.929
 4654WAT    HW223268   1.076   0.670   2.853
 4654WAT    LP123269   1.020   0.686   2.977
 4654WAT    LP223270   1.117   0.626   2.976
 4655WAT     OW23271   6.776   5.765   1.433
 4655WAT    HW123272   6.706   5.727   1.486
 4655WAT    HW223273   6.841   5.795   1.497
 4655WAT    LP123274   6.803   5.718   1.390
 4655WAT    LP223275   6.752   5.819   1.396
 4656WAT     OW23276   4.266   5.425   4.225
 4656WAT    HW123277   4.342   5.481   4.238
 4656WAT    HW223278   4.290   5.369   4.151
 4656WAT    LP123279   4.254   5.386   4.283
 4656WAT    LP223280   4.209   5.463   4.211
 4657WAT     OW23281   2.551   5.673   6.451
 4657WAT    HW123282   2.544   5.703   6.361
 4657WAT    HW223283   2.493   5.730   6.500
 4657WAT    LP123284   2.530   5.606   6.457
 4657WAT    LP223285   2.617   5.678   6.474
 4658WAT     OW23286   1.193   5.481   6.510
 4658WAT    HW123287   1.145   5.401   6.491
 4658WAT    HW223288   1.234   5.506   6.427
 4658WAT    LP123289   1.150   5.532   6.532
 4658WAT    LP223290   1.242   5.470   6.559
 4659WAT     OW23291   3.340   4.641   3.670
 4659WAT    HW123292   3.299   4.595   3.597
 4659WAT    HW223293   3.404   4.579   3.705
 4659WAT    LP123294   3.373   4.699   3.648
 4659WAT    LP223295   3.293   4.658   3.718
 4660WAT     OW23296   1.708   5.352   4.795
 4660WAT    HW123297   1.789   5.316   4.759
 4660WAT    HW223298   1.724   5.447   4.798
 4660WAT    LP123299   1.654   5.338   4.752
 4660WAT    LP223300   1.695   5.327   4.858
 4661WAT     OW23301   0.488   2.063   2.496
 4661WAT    HW123302   0.482   1.967   2.502
 4661WAT    HW223303   0.520   2.091   2.582
 4661WAT    LP123304   0.534   2.081   2.446
 4661WAT    LP223305   0.426   2.091   2.482
 4662WAT     OW23306   3.107   4.847   5.350
 4662WAT    HW123307   3.024   4.896   5.343
 4662WAT    HW223308   3.103   4.784   5.279
 4662WAT    LP123309   3.161   4.890   5.343
 4662WAT    LP223310   3.111   4.815   5.412
 4663WAT     OW23311   5.859   6.139   0.096
 4663WAT    HW123312   5.821   6.161   0.181
 4663WAT    HW223313   5.790   6.159   0.033
 4663WAT    LP123314   5.916   6.178   0.084
 4663WAT    LP223315   5.876   6.071   0.093
 4664WAT     OW23316   3.450   3.998   5.983
 4664WAT    HW123317   3.371   3.984   5.931
 4664WAT    HW223318   3.517   3.946   5.940
 4664WAT    LP123319   3.467   4.066   5.983
 4664WAT    LP223320   3.440   3.977   6.049
 4665WAT     OW23321   2.773   5.084   4.900
 4665WAT    HW123322   2.781   5.062   4.807
 4665WAT    HW223323   2.801   5.005   4.946
 4665WAT    LP123324   2.815   5.138   4.915
 4665WAT    LP223325   2.707   5.101   4.916
 4666WAT     OW23326   2.876   3.957   4.123
 4666WAT    HW123327   2.870   3.997   4.209
 4666WAT    HW223328   2.864   3.863   4.139
 4666WAT    LP123329   2.826   3.981   4.080
 4666WAT    LP223330   2.939   3.969   4.094
 4667WAT     OW23331   3.979   0.041   3.075
 4667WAT    HW123332   4.007   0.050   2.984
 4667WAT    HW223333   3.901  -0.014   3.071
 4667WAT    LP123334   4.029   0.010   3.113
 4667WAT    LP223335   3.964   0.103   3.103
 4668WAT     OW23336   0.184   1.921   3.198
 4668WAT    HW123337   0.254   1.986   3.191
 4668WAT    HW223338   0.191   1.889   3.289
 4668WAT    LP123339   0.122   1.950   3.187
 4668WAT    LP223340   0.195   1.868   3.153
 4669WAT     OW23341   1.430   5.595   2.611
 4669WAT    HW123342   1.419   5.636   2.697
 4669WAT    HW223343   1.475   5.661   2.558
 4669WAT    LP123344   1.468   5.537   2.616
 4669WAT    LP223345   1.368   5.579   2.583
 4670WAT     OW23346   1.566   2.480   0.316
 4670WAT    HW123347   1.574   2.441   0.403
 4670WAT    HW223348   1.594   2.571   0.327
 4670WAT    LP123349   1.607   2.447   0.270
 4670WAT    LP223350   1.500   2.477   0.294
 4671WAT     OW23351   3.311   1.539   4.175
 4671WAT    HW123352   3.218   1.522   4.158
 4671WAT    HW223353   3.316   1.555   4.269
 4671WAT    LP123354   3.349   1.483   4.157
 4671WAT    LP223355   3.332   1.595   4.138
 4672WAT     OW23356   4.061   2.072   6.642
 4672WAT    HW123357   3.985   2.050   6.697
 4672WAT    HW223358   4.035   2.044   6.554
 4672WAT    LP123359   4.074   2.140   6.644
 4672WAT    LP223360   4.117   2.037   6.663
 4673WAT     OW23361   3.656   5.672   0.814
 4673WAT    HW123362   3.621   5.641   0.731
 4673WAT    HW223363   3.665   5.767   0.801
 4673WAT    LP123364   3.612   5.658   0.866
 4673WAT    LP223365   3.718   5.643   0.827
 4674WAT     OW23366   2.907   2.830   2.642
 4674WAT    HW123367   2.858   2.901   2.684
 4674WAT    HW223368   2.972   2.803   2.707
 4674WAT    LP123369   2.864   2.776   2.627
 4674WAT    LP223370   2.938   2.852   2.584
 4675WAT     OW23371   1.843   4.296   3.084
 4675WAT    HW123372   1.867   4.381   3.120
 4675WAT    HW223373   1.771   4.266   3.140
 4675WAT    LP123374   1.822   4.302   3.018
 4675WAT    LP223375   1.897   4.252   3.088
 4676WAT     OW23376   6.653   5.289   3.440
 4676WAT    HW123377   6.637   5.194   3.447
 4676WAT    HW223378   6.652   5.307   3.346
 4676WAT    LP123379   6.603   5.325   3.473
 4676WAT    LP223380   6.716   5.305   3.468
 4677WAT     OW23381   3.157   3.014   0.852
 4677WAT    HW123382   3.208   3.052   0.780
 4677WAT    HW223383   3.131   3.089   0.905
 4677WAT    LP123384   3.101   2.980   0.827
 4677WAT    LP223385   3.197   2.970   0.889
 4678WAT     OW23386   3.556   6.658   5.271
 4678WAT    HW123387   3.553   6.566   5.244
 4678WAT    HW223388   3.639   6.690   5.238
 4678WAT    LP123389   3.502   6.694   5.244
 4678WAT    LP223390   3.554   6.663   5.341
 4679WAT     OW23391   3.132   1.523   6.024
 4679WAT    HW123392   3.099   1.514   5.934
 4679WAT    HW223393   3.200   1.590   6.018
 4679WAT    LP123394   3.080   1.544   6.067
 4679WAT    LP223395   3.158   1.463   6.047
 4680WAT     OW23396   1.668   5.588   1.468
 4680WAT    HW123397   1.711   5.584   1.554
 4680WAT    HW223398   1.588   5.637   1.483
 4680WAT    LP123399   1.709   5.622   1.422
 4680WAT    LP223400   1.654   5.524   1.444
 4681WAT     OW23401   1.846   4.637   0.318
 4681WAT    HW123402   1.851   4.727   0.349
 4681WAT    HW223403   1.759   4.607   0.344
 4681WAT    LP123404   1.853   4.634   0.248
 4681WAT    LP223405   1.896   4.597   0.347
 4682WAT     OW23406   1.071   4.839   1.738
 4682WAT    HW123407   1.035   4.888   1.664
 4682WAT    HW223408   1.071   4.902   1.811
 4682WAT    LP123409   1.030   4.784   1.753
 4682WAT    LP223410   1.136   4.818   1.724
 4683WAT     OW23411   3.708   5.302   5.923
 4683WAT    HW123412   3.753   5.375   5.964
 4683WAT    HW223413   3.615   5.318   5.941
 4683WAT    LP123414   3.719   5.301   5.854
 4683WAT    LP223415   3.728   5.241   5.951
 4684WAT     OW23416   6.501   4.837   2.810
 4684WAT    HW123417   6.565   4.890   2.763
 4684WAT    HW223418   6.552   4.795   2.880
 4684WAT    LP123419   6.451   4.877   2.837
 4684WAT    LP223420   6.473   4.789   2.768
 4685WAT     OW23421   1.745   5.218   3.697
 4685WAT    HW123422   1.797   5.254   3.769
 4685WAT    HW223423   1.757   5.281   3.625
 4685WAT    LP123424   1.770   5.155   3.678
 4685WAT    LP223425   1.678   5.213   3.715
 4686WAT     OW23426   0.541   3.945   0.868
 4686WAT    HW123427   0.484   4.022   0.865
 4686WAT    HW223428   0.629   3.981   0.880
 4686WAT    LP123429   0.524   3.904   0.922
 4686WAT    LP223430   0.537   3.909   0.808
 4687WAT     OW23431   5.231   1.259   2.215
 4687WAT    HW123432   5.148   1.235   2.257
 4687WAT    HW223433   5.262   1.177   2.177
 4687WAT    LP123434   5.221   1.307   2.166
 4687WAT    LP223435   5.277   1.282   2.263
 4688WAT     OW23436   1.716   2.393   6.036
 4688WAT    HW123437   1.626   2.402   6.069
 4688WAT    HW223438   1.706   2.355   5.949
 4688WAT    LP123439   1.747   2.456   6.032
 4688WAT    LP223440   1.753   2.351   6.078
 4689WAT     OW23441   2.646   6.439   2.345
 4689WAT    HW123442   2.670   6.454   2.437
 4689WAT    HW223443   2.576   6.374   2.349
 4689WAT    LP123444   2.623   6.499   2.316
 4689WAT    LP223445   2.700   6.415   2.309
 4690WAT     OW23446   1.491   0.340   4.376
 4690WAT    HW123447   1.586   0.348   4.368
 4690WAT    HW223448   1.468   0.264   4.323
 4690WAT    LP123449   1.472   0.330   4.443
 4690WAT    LP223450   1.459   0.397   4.352
 4691WAT     OW23451   4.894   4.445   4.749
 4691WAT    HW123452   4.934   4.517   4.798
 4691WAT    HW223453   4.953   4.370   4.763
 4691WAT    LP123454   4.830   4.431   4.773
 4691WAT    LP223455   4.890   4.460   4.681
 4692WAT     OW23456   2.441   3.308   4.450
 4692WAT    HW123457   2.429   3.291   4.543
 4692WAT    HW223458   2.439   3.404   4.443
 4692WAT    LP123459   2.503   3.283   4.427
 4692WAT    LP223460   2.389   3.280   4.413
 4693WAT     OW23461   0.378   4.266   2.767
 4693WAT    HW123462   0.351   4.349   2.805
 4693WAT    HW223463   0.400   4.287   2.677
 4693WAT    LP123464   0.433   4.240   2.801
 4693WAT    LP223465   0.325   4.220   2.770
 4694WAT     OW23466   3.107   0.384   3.294
 4694WAT    HW123467   3.053   0.369   3.372
 4694WAT    HW223468   3.194   0.405   3.330
 4694WAT    LP123469   3.110   0.326   3.255
 4694WAT    LP223470   3.082   0.437   3.256
 4695WAT     OW23471   0.118   6.595   4.360
 4695WAT    HW123472   0.095   6.629   4.447
 4695WAT    HW223473   0.055   6.636   4.301
 4695WAT    LP123474   0.183   6.612   4.343
 4695WAT    LP223475   0.111   6.525   4.358
 4696WAT     OW23476   5.273   1.555   1.282
 4696WAT    HW123477   5.222   1.514   1.212
 4696WAT    HW223478   5.208   1.576   1.349
 4696WAT    LP123479   5.321   1.511   1.307
 4696WAT    LP223480   5.304   1.613   1.259
 4697WAT     OW23481   2.394   5.841   3.465
 4697WAT    HW123482   2.425   5.854   3.375
 4697WAT    HW223483   2.300   5.858   3.461
 4697WAT    LP123484   2.406   5.775   3.486
 4697WAT    LP223485   2.426   5.885   3.508
 4698WAT     OW23486   4.250   5.029   2.778
 4698WAT    HW123487   4.292   5.100   2.827
 4698WAT    HW223488   4.251   5.060   2.687
 4698WAT    LP123489   4.286   4.970   2.784
 4698WAT    LP223490   4.185   5.019   2.800
 4699WAT     OW23491   6.365   4.440   6.352
 4699WAT    HW123492   6.457   4.430   6.326
 4699WAT    HW223493   6.368   4.472   6.442
 4699WAT    LP123494   6.332   4.486   6.310
 4699WAT    LP223495   6.332   4.378   6.349
 4700WAT     OW23496   2.346   4.182   1.090
 4700WAT    HW123497   2.316   4.223   1.009
 4700WAT    HW223498   2.433   4.218   1.105
 4700WAT    LP123499   2.303   4.198   1.143
 4700WAT    LP223500   2.349   4.112   1.083
 4701WAT     OW23501   1.649   3.330   5.068
 4701WAT    HW123502   1.596   3.260   5.029
 4701WAT    HW223503   1.626   3.408   5.017
 4701WAT    LP123504   1.632   3.338   5.135
 4701WAT    LP223505   1.717   3.315   5.062
 4702WAT     OW23506   5.670   3.644   3.139
 4702WAT    HW123507   5.585   3.684   3.158
 4702WAT    HW223508   5.651   3.576   3.073
 4702WAT    LP123509   5.714   3.691   3.113
 4702WAT    LP223510   5.697   3.615   3.196
 4703WAT     OW23511   5.927   0.488   4.595
 4703WAT    HW123512   5.878   0.570   4.606
 4703WAT    HW223513   5.866   0.430   4.551
 4703WAT    LP123514   5.984   0.499   4.556
 4703WAT    LP223515   5.946   0.462   4.658
 4704WAT     OW23516   0.426   6.072   3.990
 4704WAT    HW123517   0.468   6.092   4.073
 4704WAT    HW223518   0.439   5.978   3.978
 4704WAT    LP123519   0.357   6.087   3.993
 4704WAT    LP223520   0.455   6.108   3.937
 4705WAT     OW23521   6.755   2.349   1.469
 4705WAT    HW123522   6.696   2.383   1.537
 4705WAT    HW223523   6.792   2.269   1.506
 4705WAT    LP123524   6.719   2.335   1.410
 4705WAT    LP223525   6.805   2.396   1.454
 4706WAT     OW23526   3.847   1.384   0.175
 4706WAT    HW123527   3.803   1.443   0.114
 4706WAT    HW223528   3.845   1.430   0.259
 4706WAT    LP123529   3.814   1.323   0.179
 4706WAT    LP223530   3.914   1.374   0.155
 4707WAT     OW23531   5.520   5.603   2.449
 4707WAT    HW123532   5.472   5.682   2.472
 4707WAT    HW223533   5.458   5.532   2.464
 4707WAT    LP123534   5.540   5.605   2.382
 4707WAT    LP223535   5.577   5.596   2.490
 4708WAT     OW23536   6.470   0.162   6.196
 4708WAT    HW123537   6.390   0.180   6.146
 4708WAT    HW223538   6.500   0.078   6.162
 4708WAT    LP123539   6.517   0.212   6.185
 4708WAT    LP223540   6.456   0.158   6.264
 4709WAT     OW23541   5.871   1.525   0.255
 4709WAT    HW123542   5.831   1.612   0.246
 4709WAT    HW223543   5.901   1.522   0.346
 4709WAT    LP123544   5.823   1.475   0.243
 4709WAT    LP223545   5.924   1.518   0.211
 4710WAT     OW23546   6.368   5.472   3.848
 4710WAT    HW123547   6.401   5.440   3.764
 4710WAT    HW223548   6.377   5.567   3.844
 4710WAT    LP123549   6.301   5.454   3.857
 4710WAT    LP223550   6.406   5.446   3.901
 4711WAT     OW23551   5.253   1.557   3.737
 4711WAT    HW123552   5.217   1.516   3.816
 4711WAT    HW223553   5.340   1.519   3.728
 4711WAT    LP123554   5.213   1.543   3.681
 4711WAT    LP223555   5.257   1.627   3.745
 4712WAT     OW23556   4.008   1.441   2.306
 4712WAT    HW123557   4.033   1.351   2.287
 4712WAT    HW223558   4.023   1.487   2.223
 4712WAT    LP123559   3.941   1.445   2.324
 4712WAT    LP223560   4.048   1.468   2.356
 4713WAT     OW23561   3.464   1.756   5.778
 4713WAT    HW123562   3.536   1.695   5.759
 4713WAT    HW223563   3.503   1.843   5.765
 4713WAT    LP123564   3.411   1.746   5.733
 4713WAT    LP223565   3.442   1.749   5.843
 4714WAT     OW23566   6.246   6.199   3.280
 4714WAT    HW123567   6.236   6.225   3.372
 4714WAT    HW223568   6.253   6.104   3.283
 4714WAT    LP123569   6.189   6.219   3.243
 4714WAT    LP223570   6.303   6.228   3.252
 4715WAT     OW23571   2.405   2.953   5.743
 4715WAT    HW123572   2.484   2.913   5.781
 4715WAT    HW223573   2.438   3.026   5.692
 4715WAT    LP123574   2.372   2.907   5.702
 4715WAT    LP223575   2.362   2.975   5.794
 4716WAT     OW23576   0.447   4.200   4.940
 4716WAT    HW123577   0.536   4.235   4.933
 4716WAT    HW223578   0.422   4.218   5.031
 4716WAT    LP123579   0.404   4.232   4.895
 4716WAT    LP223580   0.447   4.131   4.928
 4717WAT     OW23581   4.346   0.369   0.343
 4717WAT    HW123582   4.302   0.359   0.428
 4717WAT    HW223583   4.351   0.281   0.308
 4717WAT    LP123584   4.308   0.410   0.301
 4717WAT    LP223585   4.409   0.397   0.351
 4718WAT     OW23586   0.602   2.901   4.227
 4718WAT    HW123587   0.680   2.863   4.186
 4718WAT    HW223588   0.592   2.987   4.184
 4718WAT    LP123589   0.546   2.861   4.215
 4718WAT    LP223590   0.612   2.909   4.296
 4719WAT     OW23591   3.736   2.367   0.266
 4719WAT    HW123592   3.681   2.432   0.309
 4719WAT    HW223593   3.791   2.332   0.336
 4719WAT    LP123594   3.697   2.317   0.237
 4719WAT    LP223595   3.775   2.397   0.216
 4720WAT     OW23596   4.279   3.596   4.408
 4720WAT    HW123597   4.373   3.600   4.388
 4720WAT    HW223598   4.248   3.517   4.365
 4720WAT    LP123599   4.268   3.593   4.477
 4720WAT    LP223600   4.246   3.653   4.382
 4721WAT     OW23601   4.847   6.017   0.044
 4721WAT    HW123602   4.851   6.072  -0.034
 4721WAT    HW223603   4.853   5.927   0.011
 4721WAT    LP123604   4.900   6.031   0.087
 4721WAT    LP223605   4.786   6.027   0.078
 4722WAT     OW23606   6.784   1.171   2.542
 4722WAT    HW123607   6.848   1.168   2.471
 4722WAT    HW223608   6.793   1.087   2.587
 4722WAT    LP123609   6.797   1.224   2.585
 4722WAT    LP223610   6.719   1.178   2.516
 4723WAT     OW23611   1.164   1.309   4.566
 4723WAT    HW123612   1.188   1.224   4.529
 4723WAT    HW223613   1.095   1.341   4.509
 4723WAT    LP123614   1.140   1.301   4.632
 4723WAT    LP223615   1.219   1.352   4.567
 4724WAT     OW23616   0.798   6.192   1.694
 4724WAT    HW123617   0.878   6.200   1.745
 4724WAT    HW223618   0.825   6.211   1.604
 4724WAT    LP123619   0.771   6.128   1.699
 4724WAT    LP223620   0.750   6.239   1.716
 4725WAT     OW23621   5.298   3.267   3.881
 4725WAT    HW123622   5.320   3.191   3.827
 4725WAT    HW223623   5.371   3.327   3.869
 4725WAT    LP123624   5.238   3.296   3.859
 4725WAT    LP223625   5.291   3.249   3.948
 4726WAT     OW23626   4.124   3.093   4.697
 4726WAT    HW123627   4.056   3.160   4.700
 4726WAT    HW223628   4.191   3.129   4.638
 4726WAT    LP123629   4.151   3.083   4.761
 4726WAT    LP223630   4.099   3.033   4.673
 4727WAT     OW23631   5.009   4.742   4.604
 4727WAT    HW123632   5.082   4.787   4.562
 4727WAT    HW223633   5.044   4.716   4.689
 4727WAT    LP123634   4.954   4.786   4.613
 4727WAT    LP223635   4.989   4.687   4.567
 4728WAT     OW23636   0.974   1.437   1.558
 4728WAT    HW123637   0.945   1.521   1.521
 4728WAT    HW223638   1.010   1.459   1.643
 4728WAT    LP123639   0.919   1.393   1.564
 4728WAT    LP223640   1.022   1.408   1.517
 4729WAT     OW23641   1.814   6.664   1.526
 4729WAT    HW123642   1.805   6.605   1.451
 4729WAT    HW223643   1.903   6.698   1.519
 4729WAT    LP123644   1.767   6.715   1.522
 4729WAT    LP223645   1.805   6.629   1.586
 4730WAT     OW23646   1.255   0.233   1.965
 4730WAT    HW123647   1.230   0.325   1.972
 4730WAT    HW223648   1.287   0.210   2.052
 4730WAT    LP123649   1.199   0.193   1.948
 4730WAT    LP223650   1.305   0.224   1.917
 4731WAT     OW23651   4.759   2.621   0.687
 4731WAT    HW123652   4.679   2.577   0.657
 4731WAT    HW223653   4.825   2.552   0.688
 4731WAT    LP123654   4.777   2.672   0.643
 4731WAT    LP223655   4.749   2.647   0.751
 4732WAT     OW23656   3.845   1.852   4.137
 4732WAT    HW123657   3.880   1.863   4.226
 4732WAT    HW223658   3.911   1.891   4.080
 4732WAT    LP123659   3.836   1.784   4.122
 4732WAT    LP223660   3.784   1.886   4.130
 4733WAT     OW23661   2.390   1.860   0.165
 4733WAT    HW123662   2.416   1.774   0.199
 4733WAT    HW223663   2.461   1.885   0.107
 4733WAT    LP123664   2.329   1.855   0.130
 4733WAT    LP223665   2.383   1.906   0.218
 4734WAT     OW23666   4.136   2.333   0.034
 4734WAT    HW123667   4.175   2.350  -0.051
 4734WAT    HW223668   4.113   2.240   0.033
 4734WAT    LP123669   4.182   2.346   0.085
 4734WAT    LP223670   4.079   2.372   0.044
 4735WAT     OW23671   1.598   3.548   4.899
 4735WAT    HW123672   1.547   3.629   4.897
 4735WAT    HW223673   1.567   3.498   4.823
 4735WAT    LP123674   1.667   3.562   4.893
 4735WAT    LP223675   1.586   3.513   4.958
 4736WAT     OW23676   3.218   1.268   0.921
 4736WAT    HW123677   3.184   1.180   0.907
 4736WAT    HW223678   3.188   1.318   0.846
 4736WAT    LP123679   3.193   1.295   0.981
 4736WAT    LP223680   3.288   1.267   0.924
 4737WAT     OW23681   0.303   5.096   3.501
 4737WAT    HW123682   0.231   5.158   3.511
 4737WAT    HW223683   0.376   5.137   3.547
 4737WAT    LP123684   0.287   5.034   3.530
 4737WAT    LP223685   0.318   5.086   3.433
 4738WAT     OW23686   1.050   2.135   5.258
 4738WAT    HW123687   1.094   2.085   5.327
 4738WAT    HW223688   1.077   2.226   5.273
 4738WAT    LP123689   1.071   2.114   5.195
 4738WAT    LP223690   0.981   2.129   5.263
 4739WAT     OW23691   4.677   2.678   1.279
 4739WAT    HW123692   4.701   2.639   1.195
 4739WAT    HW223693   4.585   2.701   1.268
 4739WAT    LP123694   4.685   2.632   1.331
 4739WAT    LP223695   4.715   2.735   1.292
 4740WAT     OW23696   0.548   5.835   2.891
 4740WAT    HW123697   0.588   5.919   2.914
 4740WAT    HW223698   0.472   5.828   2.948
 4740WAT    LP123699   0.529   5.834   2.823
 4740WAT    LP223700   0.593   5.782   2.903
 4741WAT     OW23701   3.764   5.697   5.836
 4741WAT    HW123702   3.787   5.635   5.905
 4741WAT    HW223703   3.847   5.733   5.806
 4741WAT    LP123704   3.730   5.665   5.784
 4741WAT    LP223705   3.723   5.748   5.862
 4742WAT     OW23706   6.395   4.682   1.147
 4742WAT    HW123707   6.315   4.734   1.137
 4742WAT    HW223708   6.377   4.624   1.221
 4742WAT    LP123709   6.407   4.645   1.089
 4742WAT    LP223710   6.449   4.724   1.161
 4743WAT     OW23711   6.710   6.173   1.798
 4743WAT    HW123712   6.709   6.213   1.885
 4743WAT    HW223713   6.650   6.226   1.747
 4743WAT    LP123714   6.775   6.175   1.771
 4743WAT    LP223715   6.688   6.107   1.801
 4744WAT     OW23716   0.759   1.354   1.976
 4744WAT    HW123717   0.699   1.353   1.901
 4744WAT    HW223718   0.825   1.288   1.955
 4744WAT    LP123719   0.788   1.417   1.983
 4744WAT    LP223720   0.725   1.337   2.035
 4745WAT     OW23721   2.555   0.880   3.394
 4745WAT    HW123722   2.479   0.850   3.345
 4745WAT    HW223723   2.579   0.805   3.450
 4745WAT    LP123724   2.608   0.896   3.351
 4745WAT    LP223725   2.539   0.935   3.433
 4746WAT     OW23726   5.933   2.543   3.504
 4746WAT    HW123727   5.942   2.551   3.409
 4746WAT    HW223728   5.843   2.514   3.517
 4746WAT    LP123729   5.978   2.496   3.529
 4746WAT    LP223730   5.943   2.605   3.535
 4747WAT     OW23731   2.197   2.978   5.916
 4747WAT    HW123732   2.113   2.963   5.872
 4747WAT    HW223733   2.263   2.965   5.848
 4747WAT    LP123734   2.200   3.044   5.941
 4747WAT    LP223735   2.206   2.933   5.969
 4748WAT     OW23736   5.182   4.229   4.237
 4748WAT    HW123737   5.182   4.170   4.312
 4748WAT    HW223738   5.129   4.184   4.170
 4748WAT    LP123739   5.152   4.291   4.253
 4748WAT    LP223740   5.247   4.240   4.213
 4749WAT     OW23741   1.444   3.677   3.449
 4749WAT    HW123742   1.354   3.646   3.460
 4749WAT    HW223743   1.457   3.680   3.354
 4749WAT    LP123744   1.451   3.741   3.477
 4749WAT    LP223745   1.489   3.634   3.479
 4750WAT     OW23746   3.120   0.136   3.637
 4750WAT    HW123747   3.203   0.090   3.632
 4750WAT    HW223748   3.130   0.197   3.710
 4750WAT    LP123749   3.107   0.171   3.578
 4750WAT    LP223750   3.067   0.092   3.650
 4751WAT     OW23751   4.155   6.556   5.862
 4751WAT    HW123752   4.144   6.548   5.957
 4751WAT    HW223753   4.199   6.640   5.849
 4751WAT    LP123754   4.194   6.503   5.837
 4751WAT    LP223755   4.093   6.555   5.830
 4752WAT     OW23756   0.572   4.036   3.678
 4752WAT    HW123757   0.646   3.992   3.637
 4752WAT    HW223758   0.586   4.025   3.772
 4752WAT    LP123759   0.570   4.104   3.661
 4752WAT    LP223760   0.512   4.005   3.659
 4753WAT     OW23761   1.170   5.699   4.295
 4753WAT    HW123762   1.096   5.758   4.308
 4753WAT    HW223763   1.198   5.676   4.383
 4753WAT    LP123764   1.150   5.642   4.259
 4753WAT    LP223765   1.222   5.732   4.260
 4754WAT     OW23766   2.838   5.497   6.221
 4754WAT    HW123767   2.824   5.502   6.316
 4754WAT    HW223768   2.933   5.493   6.211
 4754WAT    LP123769   2.808   5.439   6.195
 4754WAT    LP223770   2.812   5.553   6.189
 4755WAT     OW23771   1.743   4.764   5.322
 4755WAT    HW123772   1.726   4.680   5.364
 4755WAT    HW223773   1.682   4.767   5.249
 4755WAT    LP123774   1.730   4.816   5.367
 4755WAT    LP223775   1.809   4.768   5.300
 4756WAT     OW23776   3.389   5.527   4.174
 4756WAT    HW123777   3.300   5.537   4.209
 4756WAT    HW223778   3.380   5.461   4.105
 4756WAT    LP123779   3.412   5.588   4.148
 4756WAT    LP223780   3.433   5.505   4.224
 4757WAT     OW23781   0.086   1.538   5.270
 4757WAT    HW123782   0.062   1.460   5.320
 4757WAT    HW223783   0.143   1.504   5.200
 4757WAT    LP123784   0.029   1.568   5.242
 4757WAT    LP223785   0.120   1.584   5.310
 4758WAT     OW23786   4.104   5.125   0.825
 4758WAT    HW123787   4.135   5.199   0.877
 4758WAT    HW223788   4.014   5.149   0.801
 4758WAT    LP123789   4.143   5.117   0.767
 4758WAT    LP223790   4.105   5.066   0.862
 4759WAT     OW23791   6.233   1.045   3.826
 4759WAT    HW123792   6.206   0.954   3.829
 4759WAT    HW223793   6.242   1.071   3.918
 4759WAT    LP123794   6.294   1.052   3.792
 4759WAT    LP223795   6.185   1.084   3.794
 4760WAT     OW23796   6.382   5.454   5.459
 4760WAT    HW123797   6.300   5.426   5.500
 4760WAT    HW223798   6.406   5.380   5.402
 4760WAT    LP123799   6.373   5.512   5.421
 4760WAT    LP223800   6.432   5.464   5.507
 4761WAT     OW23801   0.764   0.785   4.672
 4761WAT    HW123802   0.806   0.704   4.641
 4761WAT    HW223803   0.830   0.825   4.729
 4761WAT    LP123804   0.750   0.827   4.618
 4761WAT    LP223805   0.706   0.771   4.707
 4762WAT     OW23806   1.782   1.991   6.024
 4762WAT    HW123807   1.846   2.043   5.975
 4762WAT    HW223808   1.799   1.901   5.997
 4762WAT    LP123809   1.791   1.999   6.093
 4762WAT    LP223810   1.716   2.010   6.007
 4763WAT     OW23811   5.711   0.789   3.082
 4763WAT    HW123812   5.774   0.773   3.012
 4763WAT    HW223813   5.676   0.876   3.063
 4763WAT    LP123814   5.660   0.741   3.080
 4763WAT    LP223815   5.742   0.787   3.144
 4764WAT     OW23816   5.474   1.774   6.052
 4764WAT    HW123817   5.481   1.709   5.981
 4764WAT    HW223818   5.563   1.809   6.061
 4764WAT    LP123819   5.429   1.824   6.035
 4764WAT    LP223820   5.453   1.743   6.111
 4765WAT     OW23821   5.068   1.161   2.952
 4765WAT    HW123822   5.001   1.211   2.998
 4765WAT    HW223823   5.146   1.218   2.956
 4765WAT    LP123824   5.080   1.100   2.984
 4765WAT    LP223825   5.050   1.150   2.885
 4766WAT     OW23826   1.908   5.187   5.315
 4766WAT    HW123827   1.965   5.185   5.237
 4766WAT    HW223828   1.961   5.232   5.381
 4766WAT    LP123829   1.850   5.223   5.301
 4766WAT    LP223830   1.892   5.123   5.336
 4767WAT     OW23831   1.550   0.440   3.141
 4767WAT    HW123832   1.564   0.472   3.230
 4767WAT    HW223833   1.607   0.494   3.086
 4767WAT    LP123834   1.568   0.372   3.136
 4767WAT    LP223835   1.483   0.448   3.122
 4768WAT     OW23836   6.546   0.332   2.418
 4768WAT    HW123837   6.616   0.292   2.470
 4768WAT    HW223838   6.473   0.271   2.424
 4768WAT    LP123839   6.528   0.395   2.445
 4768WAT    LP223840   6.566   0.341   2.352
 4769WAT     OW23841   2.141   4.510   3.340
 4769WAT    HW123842   2.120   4.543   3.427
 4769WAT    HW223843   2.154   4.416   3.352
 4769WAT    LP123844   2.089   4.523   3.295
 4769WAT    LP223845   2.200   4.540   3.316
 4770WAT     OW23846   0.089   2.156   0.625
 4770WAT    HW123847   0.003   2.181   0.659
 4770WAT    HW223848   0.128   2.104   0.696
 4770WAT    LP123849   0.083   2.117   0.567
 4770WAT    LP223850   0.128   2.213   0.612
 4771WAT     OW23851   4.787   2.820   0.878
 4771WAT    HW123852   4.783   2.742   0.824
 4771WAT    HW223853   4.861   2.870   0.843
 4771WAT    LP123854   4.728   2.857   0.872
 4771WAT    LP223855   4.798   2.804   0.945
 4772WAT     OW23856   0.479   0.677   6.343
 4772WAT    HW123857   0.468   0.658   6.436
 4772WAT    HW223858   0.403   0.637   6.300
 4772WAT    LP123859   0.480   0.746   6.332
 4772WAT    LP223860   0.538   0.649   6.319
 4773WAT     OW23861   3.802   0.049   5.192
 4773WAT    HW123862   3.878  -0.009   5.198
 4773WAT    HW223863   3.816   0.097   5.110
 4773WAT    LP123864   3.743   0.013   5.190
 4773WAT    LP223865   3.801   0.094   5.246
 4774WAT     OW23866   3.910   4.857   6.144
 4774WAT    HW123867   3.892   4.932   6.088
 4774WAT    HW223868   3.842   4.860   6.211
 4774WAT    LP123869   3.906   4.797   6.108
 4774WAT    LP223870   3.973   4.863   6.174
 4775WAT     OW23871   3.023   2.882   5.648
 4775WAT    HW123872   2.938   2.838   5.642
 4775WAT    HW223873   3.041   2.914   5.560
 4775WAT    LP123874   3.020   2.935   5.694
 4775WAT    LP223875   3.072   2.836   5.668
 4776WAT     OW23876   0.048   2.760   2.486
 4776WAT    HW123877   0.083   2.777   2.399
 4776WAT    HW223878   0.017   2.845   2.517
 4776WAT    LP123879  -0.004   2.713   2.483
 4776WAT    LP223880   0.098   2.735   2.528
 4777WAT     OW23881   3.228   3.188   2.580
 4777WAT    HW123882   3.219   3.198   2.675
 4777WAT    HW223883   3.172   3.256   2.544
 4777WAT    LP123884   3.295   3.198   2.560
 4777WAT    LP223885   3.207   3.125   2.559
 4778WAT     OW23886   6.639   0.290   3.752
 4778WAT    HW123887   6.571   0.358   3.755
 4778WAT    HW223888   6.635   0.256   3.663
 4778WAT    LP123889   6.702   0.318   3.765
 4778WAT    LP223890   6.626   0.240   3.799
 4779WAT     OW23891   2.404   0.367   0.129
 4779WAT    HW123892   2.410   0.453   0.170
 4779WAT    HW223893   2.495   0.337   0.125
 4779WAT    LP123894   2.365   0.324   0.168
 4779WAT    LP223895   2.377   0.372   0.065
 4780WAT     OW23896   6.262   3.406   0.742
 4780WAT    HW123897   6.297   3.342   0.805
 4780WAT    HW223898   6.328   3.475   0.739
 4780WAT    LP123899   6.255   3.376   0.679
 4780WAT    LP223900   6.201   3.430   0.764
 4781WAT     OW23901   2.233   4.782   4.003
 4781WAT    HW123902   2.175   4.820   4.070
 4781WAT    HW223903   2.321   4.809   4.029
 4781WAT    LP123904   2.227   4.713   4.003
 4781WAT    LP223905   2.217   4.807   3.940
 4782WAT     OW23906   5.516   4.281   6.644
 4782WAT    HW123907   5.441   4.275   6.703
 4782WAT    HW223908   5.492   4.225   6.570
 4782WAT    LP123909   5.525   4.347   6.623
 4782WAT    LP223910   5.574   4.258   6.675
 4783WAT     OW23911   0.517   3.383   1.742
 4783WAT    HW123912   0.505   3.310   1.803
 4783WAT    HW223913   0.430   3.424   1.737
 4783WAT    LP123914   0.564   3.428   1.766
 4783WAT    LP223915   0.537   3.359   1.679
 4784WAT     OW23916   4.014   2.908   1.722
 4784WAT    HW123917   4.056   2.840   1.669
 4784WAT    HW223918   4.066   2.986   1.706
 4784WAT    LP123919   3.948   2.918   1.701
 4784WAT    LP223920   4.015   2.891   1.789
 4785WAT     OW23921   3.939   5.816   0.999
 4785WAT    HW123922   3.945   5.887   1.062
 4785WAT    HW223923   3.854   5.776   1.016
 4785WAT    LP123924   3.942   5.841   0.933
 4785WAT    LP223925   3.990   5.769   1.008
 4786WAT     OW23926   3.968   4.880   1.650
 4786WAT    HW123927   3.890   4.909   1.602
 4786WAT    HW223928   3.948   4.790   1.677
 4786WAT    LP123929   4.025   4.882   1.608
 4786WAT    LP223930   3.979   4.921   1.706
 4787WAT     OW23931   0.018   3.563   1.577
 4787WAT    HW123932  -0.070   3.532   1.596
 4787WAT    HW223933   0.027   3.553   1.482
 4787WAT    LP123934   0.026   3.630   1.595
 4787WAT    LP223935   0.066   3.524   1.610
 4788WAT     OW23936   1.347   0.998   2.882
 4788WAT    HW123937   1.370   0.908   2.906
 4788WAT    HW223938   1.330   0.993   2.788
 4788WAT    LP123939   1.290   1.019   2.916
 4788WAT    LP223940   1.400   1.041   2.895
 4789WAT     OW23941   1.981   4.466   2.005
 4789WAT    HW123942   1.906   4.493   1.951
 4789WAT    HW223943   2.047   4.534   1.989
 4789WAT    LP123944   1.963   4.464   2.072
 4789WAT    LP223945   2.004   4.404   1.985
 4790WAT     OW23946   0.183   5.001   2.611
 4790WAT    HW123947   0.187   5.047   2.696
 4790WAT    HW223948   0.269   4.960   2.603
 4790WAT    LP123949   0.132   4.953   2.611
 4790WAT    LP223950   0.172   5.047   2.559
 4791WAT     OW23951   2.050   4.539   6.445
 4791WAT    HW123952   2.057   4.511   6.354
 4791WAT    HW223953   1.956   4.549   6.460
 4791WAT    LP123954   2.077   4.490   6.488
 4791WAT    LP223955   2.084   4.599   6.455
 4792WAT     OW23956   1.392   5.917   4.759
 4792WAT    HW123957   1.315   5.861   4.766
 4792WAT    HW223958   1.365   5.999   4.801
 4792WAT    LP123959   1.446   5.889   4.793
 4792WAT    LP223960   1.409   5.928   4.692
 4793WAT     OW23961   6.057   6.148   3.075
 4793WAT    HW123962   6.121   6.103   3.020
 4793WAT    HW223963   6.108   6.184   3.148
 4793WAT    LP123964   6.026   6.200   3.039
 4793WAT    LP223965   6.009   6.103   3.099
 4794WAT     OW23966   6.653   2.903   4.176
 4794WAT    HW123967   6.656   2.967   4.247
 4794WAT    HW223968   6.627   2.953   4.099
 4794WAT    LP123969   6.716   2.873   4.167
 4794WAT    LP223970   6.606   2.853   4.190
 4795WAT     OW23971   6.132   1.072   4.718
 4795WAT    HW123972   6.094   0.986   4.735
 4795WAT    HW223973   6.191   1.088   4.792
 4795WAT    LP123974   6.168   1.073   4.658
 4795WAT    LP223975   6.082   1.121   4.716
 4796WAT     OW23976   1.568   6.611   1.336
 4796WAT    HW123977   1.539   6.655   1.416
 4796WAT    HW223978   1.610   6.680   1.285
 4796WAT    LP123979   1.614   6.560   1.350
 4796WAT    LP223980   1.514   6.585   1.301
 4797WAT     OW23981   2.982   1.162   2.070
 4797WAT    HW123982   2.979   1.070   2.043
 4797WAT    HW223983   2.958   1.160   2.162
 4797WAT    LP123984   3.046   1.188   2.061
 4797WAT    LP223985   2.936   1.201   2.033
 4798WAT     OW23986   2.395   6.225   0.014
 4798WAT    HW123987   2.426   6.294   0.072
 4798WAT    HW223988   2.345   6.166   0.070
 4798WAT    LP123989   2.355   6.252  -0.036
 4798WAT    LP223990   2.449   6.191  -0.015
 4799WAT     OW23991   3.681   4.425   1.989
 4799WAT    HW123992   3.626   4.394   2.062
 4799WAT    HW223993   3.733   4.349   1.964
 4799WAT    LP123994   3.641   4.446   1.935
 4799WAT    LP223995   3.722   4.478   2.010
 4800WAT     OW23996   6.055   3.269   1.239
 4800WAT    HW123997   6.137   3.298   1.278
 4800WAT    HW223998   6.082   3.214   1.165
 4800WAT    LP123999   6.017   3.233   1.284
 4800WAT    LP224000   6.018   3.324   1.216
 4801WAT     OW24001   0.933   2.756   4.637
 4801WAT    HW124002   0.912   2.666   4.659
 4801WAT    HW224003   0.850   2.803   4.646
 4801WAT    LP124004   0.980   2.782   4.682
 4801WAT    LP224005   0.957   2.761   4.572
 4802WAT     OW24006   6.741   0.950   3.970
 4802WAT    HW124007   6.716   1.042   3.967
 4802WAT    HW224008   6.702   0.912   3.891
 4802WAT    LP124009   6.810   0.943   3.969
 4802WAT    LP224010   6.715   0.919   4.028
 4803WAT     OW24011   5.379   5.094   1.990
 4803WAT    HW124012   5.454   5.065   2.042
 4803WAT    HW224013   5.320   5.133   2.055
 4803WAT    LP124014   5.398   5.141   1.942
 4803WAT    LP224015   5.348   5.040   1.958
 4804WAT     OW24016   3.275   2.146   0.511
 4804WAT    HW124017   3.363   2.114   0.495
 4804WAT    HW224018   3.270   2.157   0.606
 4804WAT    LP124019   3.264   2.207   0.479
 4804WAT    LP224020   3.227   2.100   0.489
 4805WAT     OW24021   4.069   3.881   2.765
 4805WAT    HW124022   4.114   3.963   2.787
 4805WAT    HW224023   4.092   3.865   2.674
 4805WAT    LP124024   4.092   3.829   2.806
 4805WAT    LP224025   4.000   3.888   2.773
 4806WAT     OW24026   6.366   1.073   1.510
 4806WAT    HW124027   6.377   1.061   1.604
 4806WAT    HW224028   6.450   1.110   1.481
 4806WAT    LP124029   6.354   1.012   1.478
 4806WAT    LP224030   6.314   1.118   1.496
 4807WAT     OW24031   4.633   6.201   6.042
 4807WAT    HW124032   4.551   6.166   6.077
 4807WAT    HW224033   4.676   6.125   6.001
 4807WAT    LP124034   4.621   6.251   5.995
 4807WAT    LP224035   4.673   6.227   6.093
 4808WAT     OW24036   2.777   6.175   3.672
 4808WAT    HW124037   2.853   6.231   3.659
 4808WAT    HW224038   2.742   6.162   3.584
 4808WAT    LP124039   2.796   6.114   3.700
 4808WAT    LP224040   2.729   6.206   3.713
 4809WAT     OW24041   6.459   5.127   2.428
 4809WAT    HW124042   6.512   5.047   2.417
 4809WAT    HW224043   6.369   5.096   2.429
 4809WAT    LP124044   6.475   5.159   2.488
 4809WAT    LP224045   6.470   5.171   2.374
 4810WAT     OW24046   0.538   3.829   6.573
 4810WAT    HW124047   0.491   3.912   6.566
 4810WAT    HW224048   0.626   3.853   6.602
 4810WAT    LP124049   0.507   3.787   6.620
 4810WAT    LP224050   0.541   3.797   6.511
 4811WAT     OW24051   6.292   1.306   5.327
 4811WAT    HW124052   6.232   1.361   5.377
 4811WAT    HW224053   6.237   1.262   5.262
 4811WAT    LP124054   6.341   1.345   5.295
 4811WAT    LP224055   6.323   1.259   5.368
 4812WAT     OW24056   0.305   5.483   0.987
 4812WAT    HW124057   0.384   5.457   1.033
 4812WAT    HW224058   0.288   5.573   1.015
 4812WAT    LP124059   0.315   5.481   0.918
 4812WAT    LP224060   0.251   5.442   1.004
 4813WAT     OW24061   6.030   2.321   2.297
 4813WAT    HW124062   6.005   2.256   2.363
 4813WAT    HW224063   5.952   2.332   2.243
 4813WAT    LP124064   6.049   2.381   2.327
 4813WAT    LP224065   6.083   2.297   2.258
 4814WAT     OW24066   3.701   3.033   4.099
 4814WAT    HW124067   3.685   3.022   4.193
 4814WAT    HW224068   3.615   3.055   4.063
 4814WAT    LP124069   3.746   3.085   4.087
 4814WAT    LP224070   3.725   2.974   4.071
 4815WAT     OW24071   1.573   4.613   0.958
 4815WAT    HW124072   1.573   4.517   0.961
 4815WAT    HW224073   1.488   4.638   0.993
 4815WAT    LP124074   1.625   4.639   0.996
 4815WAT    LP224075   1.580   4.635   0.891
 4816WAT     OW24076   0.459   5.808   0.177
 4816WAT    HW124077   0.548   5.826   0.147
 4816WAT    HW224078   0.465   5.805   0.272
 4816WAT    LP124079   0.416   5.859   0.156
 4816WAT    LP224080   0.436   5.747   0.151
 4817WAT     OW24081   6.263   2.779   6.076
 4817WAT    HW124082   6.190   2.839   6.095
 4817WAT    HW224083   6.230   2.723   6.006
 4817WAT    LP124084   6.319   2.815   6.055
 4817WAT    LP224085   6.279   2.741   6.133
 4818WAT     OW24086   5.375   3.128   3.317
 4818WAT    HW124087   5.356   3.105   3.226
 4818WAT    HW224088   5.295   3.106   3.365
 4818WAT    LP124089   5.429   3.091   3.340
 4818WAT    LP224090   5.390   3.196   3.323
 4819WAT     OW24091   6.156   5.567   0.157
 4819WAT    HW124092   6.079   5.622   0.170
 4819WAT    HW224093   6.173   5.528   0.243
 4819WAT    LP124094   6.144   5.517   0.109
 4819WAT    LP224095   6.211   5.605   0.137
 4820WAT     OW24096   3.686   2.550   1.246
 4820WAT    HW124097   3.611   2.608   1.259
 4820WAT    HW224098   3.653   2.462   1.263
 4820WAT    LP124099   3.711   2.555   1.180
 4820WAT    LP224100   3.738   2.566   1.291
 4821WAT     OW24101   4.384   1.389   4.311
 4821WAT    HW124102   4.387   1.479   4.344
 4821WAT    HW224103   4.290   1.370   4.302
 4821WAT    LP124104   4.416   1.384   4.249
 4821WAT    LP224105   4.413   1.345   4.357
 4822WAT     OW24106   0.654   1.033   6.558
 4822WAT    HW124107   0.699   1.065   6.637
 4822WAT    HW224108   0.577   0.988   6.592
 4822WAT    LP124109   0.635   1.087   6.517
 4822WAT    LP224110   0.695   0.990   6.522
 4823WAT     OW24111   3.811   0.870   2.604
 4823WAT    HW124112   3.836   0.811   2.533
 4823WAT    HW224113   3.819   0.958   2.567
 4823WAT    LP124114   3.746   0.858   2.625
 4823WAT    LP224115   3.855   0.862   2.658
 4824WAT     OW24116   0.209   2.147   5.470
 4824WAT    HW124117   0.222   2.238   5.497
 4824WAT    HW224118   0.177   2.153   5.380
 4824WAT    LP124119   0.270   2.112   5.472
 4824WAT    LP224120   0.162   2.115   5.511
 4825WAT     OW24121   4.684   2.208   6.179
 4825WAT    HW124122   4.763   2.217   6.232
 4825WAT    HW224123   4.701   2.260   6.101
 4825WAT    LP124124   4.673   2.141   6.163
 4825WAT    LP224125   4.628   2.233   6.214
 4826WAT     OW24126   4.061   4.417   2.113
 4826WAT    HW124127   4.044   4.505   2.078
 4826WAT    HW224128   3.988   4.401   2.173
 4826WAT    LP124129   4.061   4.370   2.062
 4826WAT    LP224130   4.122   4.415   2.147
 4827WAT     OW24131   3.562   5.441   1.674
 4827WAT    HW124132   3.551   5.510   1.739
 4827WAT    HW224133   3.532   5.481   1.592
 4827WAT    LP124134   3.630   5.422   1.669
 4827WAT    LP224135   3.524   5.385   1.690
 4828WAT     OW24136   0.052   0.861   4.386
 4828WAT    HW124137   0.118   0.791   4.380
 4828WAT    HW224138  -0.020   0.830   4.332
 4828WAT    LP124139   0.032   0.870   4.452
 4828WAT    LP224140   0.078   0.921   4.361
 4829WAT     OW24141   5.727   1.229   4.753
 4829WAT    HW124142   5.818   1.245   4.726
 4829WAT    HW224143   5.705   1.305   4.807
 4829WAT    LP124144   5.685   1.225   4.697
 4829WAT    LP224145   5.723   1.170   4.790
 4830WAT     OW24146   1.687   0.366   4.968
 4830WAT    HW124147   1.595   0.392   4.962
 4830WAT    HW224148   1.693   0.323   5.053
 4830WAT    LP124149   1.703   0.321   4.917
 4830WAT    LP224150   1.728   0.422   4.965
 4831WAT     OW24151   5.631   3.018   4.838
 4831WAT    HW124152   5.626   2.926   4.867
 4831WAT    HW224153   5.660   3.065   4.916
 4831WAT    LP124154   5.677   3.025   4.786
 4831WAT    LP224155   5.568   3.040   4.817
 4832WAT     OW24156   1.257   1.760   5.332
 4832WAT    HW124157   1.316   1.787   5.402
 4832WAT    HW224158   1.172   1.750   5.375
 4832WAT    LP124159   1.254   1.809   5.282
 4832WAT    LP224160   1.278   1.699   5.304
 4833WAT     OW24161   4.244   4.692   5.463
 4833WAT    HW124162   4.268   4.720   5.375
 4833WAT    HW224163   4.157   4.731   5.478
 4833WAT    LP124164   4.240   4.622   5.468
 4833WAT    LP224165   4.290   4.716   5.510
 4834WAT     OW24166   1.340   1.356   3.633
 4834WAT    HW124167   1.421   1.358   3.580
 4834WAT    HW224168   1.357   1.417   3.704
 4834WAT    LP124169   1.285   1.377   3.595
 4834WAT    LP224170   1.329   1.292   3.658
 4835WAT     OW24171   1.445   1.457   6.419
 4835WAT    HW124172   1.522   1.497   6.459
 4835WAT    HW224173   1.377   1.525   6.427
 4835WAT    LP124174   1.456   1.442   6.352
 4835WAT    LP224175   1.426   1.399   6.454
 4836WAT     OW24176   0.402   6.049   5.598
 4836WAT    HW124177   0.320   6.093   5.621
 4836WAT    HW224178   0.375   5.966   5.560
 4836WAT    LP124179   0.438   6.087   5.551
 4836WAT    LP224180   0.441   6.039   5.655
 4837WAT     OW24181   6.550   0.432   4.790
 4837WAT    HW124182   6.517   0.460   4.875
 4837WAT    HW224183   6.472   0.427   4.734
 4837WAT    LP124184   6.596   0.478   4.764
 4837WAT    LP224185   6.581   0.369   4.795
 4838WAT     OW24186   5.470   3.747   5.896
 4838WAT    HW124187   5.388   3.789   5.922
 4838WAT    HW224188   5.506   3.804   5.828
 4838WAT    LP124189   5.513   3.741   5.950
 4838WAT    LP224190   5.457   3.683   5.870
 4839WAT     OW24191   1.046   1.793   2.342
 4839WAT    HW124192   1.035   1.840   2.259
 4839WAT    HW224193   1.059   1.702   2.316
 4839WAT    LP124194   1.101   1.817   2.377
 4839WAT    LP224195   0.989   1.799   2.381
 4840WAT     OW24196   4.559   6.420   0.861
 4840WAT    HW124197   4.629   6.467   0.907
 4840WAT    HW224198   4.605   6.350   0.813
 4840WAT    LP124199   4.514   6.392   0.906
 4840WAT    LP224200   4.526   6.462   0.816
 4841WAT     OW24201   4.029   5.759   5.759
 4841WAT    HW124202   4.107   5.723   5.801
 4841WAT    HW224203   4.061   5.793   5.675
 4841WAT    LP124204   3.980   5.710   5.749
 4841WAT    LP224205   4.002   5.811   5.798
 4842WAT     OW24206   1.239   4.814   4.888
 4842WAT    HW124207   1.184   4.880   4.847
 4842WAT    HW224208   1.296   4.863   4.947
 4842WAT    LP124209   1.201   4.767   4.923
 4842WAT    LP224210   1.278   4.780   4.840
 4843WAT     OW24211   4.895   3.890   4.275
 4843WAT    HW124212   4.819   3.898   4.332
 4843WAT    HW224213   4.863   3.840   4.200
 4843WAT    LP124214   4.917   3.953   4.255
 4843WAT    LP224215   4.947   3.856   4.307
 4844WAT     OW24216   2.638   3.024   1.605
 4844WAT    HW124217   2.683   3.083   1.543
 4844WAT    HW224218   2.547   3.025   1.577
 4844WAT    LP124219   2.665   2.960   1.601
 4844WAT    LP224220   2.644   3.049   1.670
 4845WAT     OW24221   0.412   2.992   5.384
 4845WAT    HW124222   0.443   2.921   5.439
 4845WAT    HW224223   0.413   2.956   5.295
 4845WAT    LP124224   0.347   3.011   5.402
 4845WAT    LP224225   0.454   3.048   5.388
 4846WAT     OW24226   3.052   3.458   6.588
 4846WAT    HW124227   3.056   3.365   6.606
 4846WAT    HW224228   2.961   3.482   6.607
 4846WAT    LP124229   3.096   3.494   6.629
 4846WAT    LP224230   3.067   3.471   6.521
 4847WAT     OW24231   3.210   4.420   5.335
 4847WAT    HW124232   3.256   4.477   5.274
 4847WAT    HW224233   3.175   4.480   5.402
 4847WAT    LP124234   3.158   4.386   5.303
 4847WAT    LP224235   3.254   4.374   5.364
 4848WAT     OW24236   1.587   3.423   5.928
 4848WAT    HW124237   1.618   3.513   5.921
 4848WAT    HW224238   1.508   3.420   5.875
 4848WAT    LP124239   1.635   3.378   5.902
 4848WAT    LP224240   1.574   3.406   5.994
 4849WAT     OW24241   5.913   0.370   3.862
 4849WAT    HW124242   5.966   0.449   3.869
 4849WAT    HW224243   5.859   0.383   3.785
 4849WAT    LP124244   5.954   0.313   3.855
 4849WAT    LP224245   5.874   0.362   3.920
 4850WAT     OW24246   4.779   1.660   5.785
 4850WAT    HW124247   4.872   1.642   5.804
 4850WAT    HW224248   4.737   1.659   5.871
 4850WAT    LP124249   4.772   1.723   5.754
 4850WAT    LP224250   4.753   1.610   5.743
 4851WAT     OW24251   5.763   5.462   0.772
 4851WAT    HW124252   5.674   5.496   0.781
 4851WAT    HW224253   5.806   5.485   0.854
 4851WAT    LP124254   5.762   5.393   0.763
 4851WAT    LP224255   5.796   5.492   0.718
 4852WAT     OW24256   2.502   3.169   5.600
 4852WAT    HW124257   2.498   3.254   5.643
 4852WAT    HW224258   2.590   3.166   5.561
 4852WAT    LP124259   2.494   3.117   5.646
 4852WAT    LP224260   2.453   3.164   5.550
 4853WAT     OW24261   1.094   4.777   6.071
 4853WAT    HW124262   1.119   4.869   6.063
 4853WAT    HW224263   1.119   4.753   6.160
 4853WAT    LP124264   1.025   4.769   6.062
 4853WAT    LP224265   1.129   4.738   6.025
 4854WAT     OW24266   0.951   5.864   4.343
 4854WAT    HW124267   0.901   5.892   4.267
 4854WAT    HW224268   0.891   5.805   4.390
 4854WAT    LP124269   1.009   5.830   4.324
 4854WAT    LP224270   0.968   5.919   4.383
 4855WAT     OW24271   1.072   0.156   6.375
 4855WAT    HW124272   1.125   0.080   6.350
 4855WAT    HW224273   1.094   0.170   6.468
 4855WAT    LP124274   1.089   0.212   6.337
 4855WAT    LP224275   1.004   0.142   6.368
 4856WAT     OW24276   5.640   1.574   6.328
 4856WAT    HW124277   5.717   1.579   6.271
 4856WAT    HW224278   5.660   1.634   6.400
 4856WAT    LP124279   5.583   1.593   6.294
 4856WAT    LP224280   5.632   1.508   6.353
 4857WAT     OW24281   2.832   0.665   5.646
 4857WAT    HW124282   2.859   0.647   5.556
 4857WAT    HW224283   2.749   0.619   5.655
 4857WAT    LP124284   2.880   0.640   5.691
 4857WAT    LP224285   2.824   0.734   5.656
 4858WAT     OW24286   6.525   6.347   4.904
 4858WAT    HW124287   6.588   6.325   4.835
 4858WAT    HW224288   6.465   6.409   4.863
 4858WAT    LP124289   6.491   6.290   4.925
 4858WAT    LP224290   6.558   6.376   4.959
 4859WAT     OW24291   0.389   1.195   2.476
 4859WAT    HW124292   0.454   1.140   2.433
 4859WAT    HW224293   0.312   1.191   2.420
 4859WAT    LP124294   0.375   1.171   2.540
 4859WAT    LP224295   0.413   1.261   2.481
 4860WAT     OW24296   0.470   0.310   4.560
 4860WAT    HW124297   0.431   0.286   4.476
 4860WAT    HW224298   0.442   0.401   4.574
 4860WAT    LP124299   0.446   0.269   4.611
 4860WAT    LP224300   0.540   0.306   4.557
 4861WAT     OW24301   3.678   4.499   5.588
 4861WAT    HW124302   3.589   4.524   5.610
 4861WAT    HW224303   3.733   4.566   5.628
 4861WAT    LP124304   3.694   4.436   5.615
 4861WAT    LP224305   3.687   4.497   5.519
 4862WAT     OW24306   1.892   5.365   0.538
 4862WAT    HW124307   1.898   5.432   0.606
 4862WAT    HW224308   1.824   5.397   0.479
 4862WAT    LP124309   1.953   5.357   0.504
 4862WAT    LP224310   1.873   5.303   0.566
 4863WAT     OW24311   6.219   4.742   4.509
 4863WAT    HW124312   6.300   4.766   4.464
 4863WAT    HW224313   6.164   4.704   4.441
 4863WAT    LP124314   6.232   4.695   4.559
 4863WAT    LP224315   6.189   4.799   4.537
 4864WAT     OW24316   4.546   2.411   0.862
 4864WAT    HW124317   4.465   2.463   0.859
 4864WAT    HW224318   4.572   2.403   0.770
 4864WAT    LP124319   4.595   2.444   0.899
 4864WAT    LP224320   4.534   2.348   0.889
 4865WAT     OW24321   0.422   0.914   0.003
 4865WAT    HW124322   0.411   0.962   0.085
 4865WAT    HW224323   0.363   0.957  -0.058
 4865WAT    LP124324   0.488   0.919  -0.019
 4865WAT    LP224325   0.405   0.847   0.011
 4866WAT     OW24326   3.517   4.312   4.451
 4866WAT    HW124327   3.598   4.277   4.487
 4866WAT    HW224328   3.513   4.276   4.362
 4866WAT    LP124329   3.461   4.290   4.488
 4866WAT    LP224330   3.518   4.382   4.449
 4867WAT     OW24331   3.174   5.262   0.078
 4867WAT    HW124332   3.202   5.285   0.166
 4867WAT    HW224333   3.080   5.244   0.086
 4867WAT    LP124334   3.185   5.316   0.034
 4867WAT    LP224335   3.208   5.206   0.055
 4868WAT     OW24336   1.240   4.241   4.849
 4868WAT    HW124337   1.191   4.237   4.767
 4868WAT    HW224338   1.181   4.203   4.914
 4868WAT    LP124339   1.299   4.203   4.844
 4868WAT    LP224340   1.256   4.307   4.865
 4869WAT     OW24341   1.721   1.870   5.262
 4869WAT    HW124342   1.798   1.923   5.242
 4869WAT    HW224343   1.651   1.933   5.280
 4869WAT    LP124344   1.704   1.829   5.207
 4869WAT    LP224345   1.733   1.829   5.318
 4870WAT     OW24346   5.656   0.034   0.030
 4870WAT    HW124347   5.583  -0.007   0.076
 4870WAT    HW224348   5.732   0.018   0.085
 4870WAT    LP124349   5.665   0.005  -0.033
 4870WAT    LP224350   5.644   0.103   0.022
 4871WAT     OW24351   3.912   2.114   5.434
 4871WAT    HW124352   3.950   2.199   5.454
 4871WAT    HW224353   3.970   2.076   5.368
 4871WAT    LP124354   3.909   2.073   5.491
 4871WAT    LP224355   3.847   2.121   5.408
 4872WAT     OW24356   3.804   3.835   2.827
 4872WAT    HW124357   3.894   3.852   2.800
 4872WAT    HW224358   3.787   3.900   2.896
 4872WAT    LP124359   3.760   3.843   2.774
 4872WAT    LP224360   3.798   3.770   2.853
 4873WAT     OW24361   1.601   4.680   4.439
 4873WAT    HW124362   1.617   4.773   4.457
 4873WAT    HW224363   1.526   4.657   4.494
 4873WAT    LP124364   1.585   4.670   4.372
 4873WAT    LP224365   1.656   4.641   4.456
 4874WAT     OW24366   4.852   5.668   4.509
 4874WAT    HW124367   4.916   5.666   4.579
 4874WAT    HW224368   4.780   5.722   4.543
 4874WAT    LP124369   4.879   5.697   4.451
 4874WAT    LP224370   4.829   5.604   4.494
 4875WAT     OW24371   4.556   5.839   1.820
 4875WAT    HW124372   4.515   5.873   1.741
 4875WAT    HW224373   4.629   5.899   1.836
 4875WAT    LP124374   4.511   5.840   1.874
 4875WAT    LP224375   4.579   5.774   1.810
 4876WAT     OW24376   4.897   2.380   0.671
 4876WAT    HW124377   4.851   2.308   0.715
 4876WAT    HW224378   4.988   2.369   0.697
 4876WAT    LP124379   4.890   2.376   0.602
 4876WAT    LP224380   4.872   2.442   0.693
 4877WAT     OW24381   2.414   4.360   2.582
 4877WAT    HW124382   2.386   4.381   2.493
 4877WAT    HW224383   2.407   4.443   2.629
 4877WAT    LP124384   2.372   4.312   2.610
 4877WAT    LP224385   2.480   4.337   2.582
 4878WAT     OW24386   5.763   4.893   6.643
 4878WAT    HW124387   5.782   4.866   6.553
 4878WAT    HW224388   5.828   4.961   6.661
 4878WAT    LP124389   5.698   4.918   6.648
 4878WAT    LP224390   5.771   4.839   6.686
 4879WAT     OW24391   1.531   3.477   1.117
 4879WAT    HW124392   1.549   3.511   1.029
 4879WAT    HW224393   1.439   3.451   1.114
 4879WAT    LP124394   1.572   3.422   1.131
 4879WAT    LP224395   1.541   3.527   1.165
 4880WAT     OW24396   4.333   0.921   2.554
 4880WAT    HW124397   4.395   0.895   2.486
 4880WAT    HW224398   4.299   1.005   2.524
 4880WAT    LP124399   4.281   0.874   2.558
 4880WAT    LP224400   4.365   0.927   2.616
 4881WAT     OW24401   1.565   1.080   6.395
 4881WAT    HW124402   1.649   1.107   6.359
 4881WAT    HW224403   1.501   1.106   6.328
 4881WAT    LP124404   1.563   1.011   6.405
 4881WAT    LP224405   1.551   1.114   6.455
 4882WAT     OW24406   6.376   4.808   5.858
 4882WAT    HW124407   6.430   4.827   5.935
 4882WAT    HW224408   6.439   4.796   5.787
 4882WAT    LP124409   6.339   4.750   5.868
 4882WAT    LP224410   6.333   4.862   5.844
 4883WAT     OW24411   6.480   1.403   0.320
 4883WAT    HW124412   6.433   1.368   0.396
 4883WAT    HW224413   6.520   1.327   0.279
 4883WAT    LP124414   6.436   1.435   0.276
 4883WAT    LP224415   6.530   1.448   0.341
 4884WAT     OW24416   5.766   1.139   1.789
 4884WAT    HW124417   5.857   1.168   1.780
 4884WAT    HW224418   5.721   1.212   1.830
 4884WAT    LP124419   5.738   1.125   1.726
 4884WAT    LP224420   5.762   1.081   1.829
 4885WAT     OW24421   0.156   4.543   4.853
 4885WAT    HW124422   0.208   4.476   4.808
 4885WAT    HW224423   0.215   4.618   4.860
 4885WAT    LP124424   0.099   4.559   4.816
 4885WAT    LP224425   0.137   4.521   4.917
 4886WAT     OW24426   2.446   3.550   0.944
 4886WAT    HW124427   2.530   3.525   0.906
 4886WAT    HW224428   2.391   3.472   0.934
 4886WAT    LP124429   2.453   3.567   1.012
 4886WAT    LP224430   2.418   3.605   0.910
 4887WAT     OW24431   1.862   4.388   6.047
 4887WAT    HW124432   1.856   4.437   5.965
 4887WAT    HW224433   1.789   4.420   6.100
 4887WAT    LP124434   1.856   4.319   6.035
 4887WAT    LP224435   1.923   4.400   6.079
 4888WAT     OW24436   1.278   6.333   3.894
 4888WAT    HW124437   1.276   6.238   3.881
 4888WAT    HW224438   1.270   6.344   3.989
 4888WAT    LP124439   1.338   6.360   3.871
 4888WAT    LP224440   1.224   6.364   3.861
 4889WAT     OW24441   5.857   4.502   2.337
 4889WAT    HW124442   5.950   4.510   2.357
 4889WAT    HW224443   5.813   4.536   2.415
 4889WAT    LP124444   5.841   4.541   2.281
 4889WAT    LP224445   5.839   4.436   2.325
 4890WAT     OW24446   0.058   4.053   1.109
 4890WAT    HW124447   0.030   3.964   1.089
 4890WAT    HW224448   0.135   4.043   1.164
 4890WAT    LP124449   0.075   4.087   1.050
 4890WAT    LP224450   0.008   4.089   1.142
 4891WAT     OW24451   3.716   2.851   5.172
 4891WAT    HW124452   3.669   2.806   5.101
 4891WAT    HW224453   3.649   2.863   5.240
 4891WAT    LP124454   3.769   2.812   5.196
 4891WAT    LP224455   3.740   2.913   5.150
 4892WAT     OW24456   0.404   6.022   4.432
 4892WAT    HW124457   0.457   6.037   4.354
 4892WAT    HW224458   0.467   6.018   4.504
 4892WAT    LP124459   0.359   6.074   4.442
 4892WAT    LP224460   0.369   5.961   4.427
 4893WAT     OW24461   3.498   2.866   6.231
 4893WAT    HW124462   3.549   2.785   6.224
 4893WAT    HW224463   3.430   2.858   6.165
 4893WAT    LP124464   3.470   2.872   6.295
 4893WAT    LP224465   3.539   2.922   6.219
 4894WAT     OW24466   3.198   4.914   4.895
 4894WAT    HW124467   3.229   4.873   4.814
 4894WAT    HW224468   3.258   4.881   4.962
 4894WAT    LP124469   3.202   4.984   4.891
 4894WAT    LP224470   3.132   4.895   4.909
 4895WAT     OW24471   3.832   4.592   2.718
 4895WAT    HW124472   3.908   4.575   2.773
 4895WAT    HW224473   3.855   4.555   2.633
 4895WAT    LP124474   3.775   4.560   2.744
 4895WAT    LP224475   3.819   4.660   2.712
 4896WAT     OW24476   3.146   0.572   6.496
 4896WAT    HW124477   3.086   0.523   6.552
 4896WAT    HW224478   3.222   0.515   6.487
 4896WAT    LP124479   3.117   0.585   6.434
 4896WAT    LP224480   3.165   0.632   6.526
 4897WAT     OW24481   5.751   3.304   1.749
 4897WAT    HW124482   5.663   3.332   1.774
 4897WAT    HW224483   5.793   3.384   1.717
 4897WAT    LP124484   5.785   3.279   1.805
 4897WAT    LP224485   5.749   3.256   1.699
 4898WAT     OW24486   1.698   3.129   3.816
 4898WAT    HW124487   1.640   3.151   3.888
 4898WAT    HW224488   1.759   3.202   3.810
 4898WAT    LP124489   1.733   3.069   3.830
 4898WAT    LP224490   1.662   3.122   3.756
 4899WAT     OW24491   3.910   4.781   4.279
 4899WAT    HW124492   3.888   4.825   4.361
 4899WAT    HW224493   3.829   4.783   4.228
 4899WAT    LP124494   3.962   4.814   4.245
 4899WAT    LP224495   3.930   4.715   4.291
 4900WAT     OW24496   0.976   1.786   4.800
 4900WAT    HW124497   0.916   1.721   4.763
 4900WAT    HW224498   1.046   1.734   4.839
 4900WAT    LP124499   1.001   1.828   4.749
 4900WAT    LP224500   0.944   1.825   4.849
 4901WAT     OW24501   1.921   5.520   6.226
 4901WAT    HW124502   1.971   5.535   6.145
 4901WAT    HW224503   1.988   5.508   6.293
 4901WAT    LP124504   1.880   5.575   6.240
 4901WAT    LP224505   1.881   5.463   6.220
 4902WAT     OW24506   5.342   6.133   3.243
 4902WAT    HW124507   5.416   6.119   3.302
 4902WAT    HW224508   5.296   6.049   3.242
 4902WAT    LP124509   5.301   6.184   3.267
 4902WAT    LP224510   5.365   6.149   3.178
 4903WAT     OW24511   3.452   1.542   3.928
 4903WAT    HW124512   3.535   1.571   3.965
 4903WAT    HW224513   3.393   1.537   4.004
 4903WAT    LP124514   3.428   1.588   3.881
 4903WAT    LP224515   3.459   1.479   3.898
 4904WAT     OW24516   1.570   2.289   4.689
 4904WAT    HW124517   1.651   2.314   4.645
 4904WAT    HW224518   1.525   2.233   4.625
 4904WAT    LP124519   1.583   2.253   4.748
 4904WAT    LP224520   1.531   2.345   4.704
 4905WAT     OW24521   2.869   2.920   0.430
 4905WAT    HW124522   2.962   2.904   0.413
 4905WAT    HW224523   2.867   3.000   0.482
 4905WAT    LP124524   2.834   2.929   0.370
 4905WAT    LP224525   2.841   2.867   0.466
 4906WAT     OW24526   1.838   4.541   4.416
 4906WAT    HW124527   1.809   4.450   4.419
 4906WAT    HW224528   1.760   4.592   4.437
 4906WAT    LP124529   1.888   4.552   4.463
 4906WAT    LP224530   1.861   4.557   4.352
 4907WAT     OW24531   0.825   0.599   3.470
 4907WAT    HW124532   0.741   0.645   3.465
 4907WAT    HW224533   0.891   0.667   3.454
 4907WAT    LP124534   0.833   0.570   3.533
 4907WAT    LP224535   0.829   0.549   3.421
 4908WAT     OW24536   0.679   6.468   2.543
 4908WAT    HW124537   0.623   6.433   2.612
 4908WAT    HW224538   0.709   6.391   2.494
 4908WAT    LP124539   0.644   6.512   2.502
 4908WAT    LP224540   0.734   6.502   2.571
 4909WAT     OW24541   1.750   6.182   3.578
 4909WAT    HW124542   1.774   6.157   3.489
 4909WAT    HW224543   1.674   6.127   3.599
 4909WAT    LP124544   1.803   6.168   3.623
 4909WAT    LP224545   1.734   6.250   3.581
 4910WAT     OW24546   4.040   4.954   2.977
 4910WAT    HW124547   4.105   4.968   2.907
 4910WAT    HW224548   4.038   4.859   2.988
 4910WAT    LP124549   4.059   4.986   3.036
 4910WAT    LP224550   3.977   4.978   2.957
 4911WAT     OW24551   4.908   3.130   3.619
 4911WAT    HW124552   4.866   3.064   3.675
 4911WAT    HW224553   4.851   3.135   3.542
 4911WAT    LP124554   4.911   3.191   3.652
 4911WAT    LP224555   4.972   3.109   3.601
 4912WAT     OW24556   4.009   4.958   3.423
 4912WAT    HW124557   4.095   4.916   3.413
 4912WAT    HW224558   3.962   4.901   3.485
 4912WAT    LP124559   4.016   5.022   3.450
 4912WAT    LP224560   3.975   4.961   3.362
 4913WAT     OW24561   1.242   0.218   3.523
 4913WAT    HW124562   1.213   0.258   3.441
 4913WAT    HW224563   1.182   0.144   3.535
 4913WAT    LP124564   1.308   0.196   3.518
 4913WAT    LP224565   1.236   0.263   3.576
 4914WAT     OW24566   0.277   6.318   2.485
 4914WAT    HW124567   0.293   6.246   2.545
 4914WAT    HW224568   0.357   6.323   2.432
 4914WAT    LP124569   0.221   6.305   2.444
 4914WAT    LP224570   0.267   6.378   2.520
 4915WAT     OW24571   1.780   4.657   2.652
 4915WAT    HW124572   1.855   4.712   2.630
 4915WAT    HW224573   1.749   4.691   2.736
 4915WAT    LP124574   1.730   4.662   2.603
 4915WAT    LP224575   1.800   4.590   2.658
 4916WAT     OW24576   1.821   5.964   5.346
 4916WAT    HW124577   1.789   6.038   5.398
 4916WAT    HW224578   1.877   5.915   5.406
 4916WAT    LP124579   1.768   5.925   5.323
 4916WAT    LP224580   1.859   5.987   5.291
 4917WAT     OW24581   5.564   2.870   1.269
 4917WAT    HW124582   5.629   2.932   1.237
 4917WAT    HW224583   5.566   2.798   1.206
 4917WAT    LP124584   5.581   2.847   1.333
 4917WAT    LP224585   5.501   2.900   1.272
 4918WAT     OW24586   5.705   0.639   4.885
 4918WAT    HW124587   5.614   0.616   4.867
 4918WAT    HW224588   5.737   0.674   4.802
 4918WAT    LP124589   5.710   0.686   4.936
 4918WAT    LP224590   5.741   0.582   4.903
 4919WAT     OW24591   1.598   4.289   1.562
 4919WAT    HW124592   1.520   4.341   1.580
 4919WAT    HW224593   1.651   4.296   1.642
 4919WAT    LP124594   1.581   4.222   1.550
 4919WAT    LP224595   1.633   4.315   1.507
 4920WAT     OW24596   5.092   2.972   2.737
 4920WAT    HW124597   5.184   2.953   2.722
 4920WAT    HW224598   5.049   2.886   2.739
 4920WAT    LP124599   5.083   3.005   2.799
 4920WAT    LP224600   5.066   3.012   2.686
 4921WAT     OW24601   5.247   1.950   3.460
 4921WAT    HW124602   5.228   2.039   3.487
 4921WAT    HW224603   5.211   1.895   3.529
 4921WAT    LP124604   5.217   1.936   3.398
 4921WAT    LP224605   5.317   1.940   3.455
 4922WAT     OW24606   2.342   1.869   2.812
 4922WAT    HW124607   2.273   1.804   2.829
 4922WAT    HW224608   2.307   1.951   2.846
 4922WAT    LP124609   2.401   1.852   2.845
 4922WAT    LP224610   2.354   1.874   2.743
 4923WAT     OW24611   2.641   1.588   5.774
 4923WAT    HW124612   2.562   1.623   5.733
 4923WAT    HW224613   2.609   1.519   5.832
 4923WAT    LP124614   2.685   1.562   5.726
 4923WAT    LP224615   2.674   1.638   5.811
 4924WAT     OW24616   3.952   0.482   3.654
 4924WAT    HW124617   3.979   0.527   3.734
 4924WAT    HW224618   3.858   0.501   3.647
 4924WAT    LP124619   3.987   0.507   3.599
 4924WAT    LP224620   3.962   0.413   3.660
 4925WAT     OW24621   4.741   6.301   2.698
 4925WAT    HW124622   4.715   6.359   2.626
 4925WAT    HW224623   4.835   6.316   2.709
 4925WAT    LP124624   4.706   6.318   2.757
 4925WAT    LP224625   4.728   6.234   2.682
 4926WAT     OW24626   0.130   0.842   1.974
 4926WAT    HW124627   0.148   0.886   2.057
 4926WAT    HW224628   0.132   0.749   1.995
 4926WAT    LP124629   0.068   0.861   1.949
 4926WAT    LP224630   0.180   0.857   1.927
 4927WAT     OW24631   5.931   6.463   5.573
 4927WAT    HW124632   5.956   6.541   5.623
 4927WAT    HW224633   5.936   6.392   5.637
 4927WAT    LP124634   5.866   6.470   5.548
 4927WAT    LP224635   5.975   6.452   5.520
 4928WAT     OW24636   4.169   2.718   1.594
 4928WAT    HW124637   4.159   2.636   1.642
 4928WAT    HW224638   4.169   2.692   1.502
 4928WAT    LP124639   4.116   2.762   1.607
 4928WAT    LP224640   4.230   2.750   1.610
 4929WAT     OW24641   4.729   2.526   1.045
 4929WAT    HW124642   4.669   2.497   0.976
 4929WAT    HW224643   4.812   2.539   1.000
 4929WAT    LP124644   4.706   2.585   1.074
 4929WAT    LP224645   4.735   2.477   1.095
 4930WAT     OW24646   2.886   2.125   0.726
 4930WAT    HW124647   2.890   2.175   0.644
 4930WAT    HW224648   2.946   2.171   0.784
 4930WAT    LP124649   2.821   2.125   0.752
 4930WAT    LP224650   2.907   2.059   0.715
 4931WAT     OW24651   6.606   2.394   4.670
 4931WAT    HW124652   6.538   2.338   4.634
 4931WAT    HW224653   6.651   2.339   4.734
 4931WAT    LP124654   6.651   2.413   4.619
 4931WAT    LP224655   6.579   2.450   4.700
 4932WAT     OW24656   5.666   3.311   3.527
 4932WAT    HW124657   5.747   3.336   3.571
 4932WAT    HW224658   5.607   3.385   3.543
 4932WAT    LP124659   5.677   3.302   3.459
 4932WAT    LP224660   5.640   3.252   3.555
 4933WAT     OW24661   3.456   1.905   2.993
 4933WAT    HW124662   3.480   1.985   2.946
 4933WAT    HW224663   3.521   1.841   2.966
 4933WAT    LP124664   3.459   1.916   3.062
 4933WAT    LP224665   3.392   1.884   2.976
 4934WAT     OW24666   5.322   0.681   0.162
 4934WAT    HW124667   5.308   0.775   0.148
 4934WAT    HW224668   5.330   0.672   0.257
 4934WAT    LP124669   5.267   0.645   0.138
 4934WAT    LP224670   5.380   0.659   0.130
 4935WAT     OW24671   0.264   3.459   4.275
 4935WAT    HW124672   0.319   3.452   4.196
 4935WAT    HW224673   0.314   3.517   4.333
 4935WAT    LP124674   0.202   3.487   4.259
 4935WAT    LP224675   0.255   3.396   4.304
 4936WAT     OW24676   6.779   4.571   4.195
 4936WAT    HW124677   6.719   4.558   4.269
 4936WAT    HW224678   6.831   4.648   4.219
 4936WAT    LP124679   6.820   4.515   4.187
 4936WAT    LP224680   6.744   4.582   4.136
 4937WAT     OW24681   3.322   5.541   4.518
 4937WAT    HW124682   3.236   5.536   4.476
 4937WAT    HW224683   3.303   5.548   4.612
 4937WAT    LP124684   3.359   5.483   4.505
 4937WAT    LP224685   3.358   5.596   4.496
 4938WAT     OW24686   6.595   0.223   2.770
 4938WAT    HW124687   6.570   0.132   2.758
 4938WAT    HW224688   6.654   0.242   2.697
 4938WAT    LP124689   6.539   0.265   2.767
 4938WAT    LP224690   6.628   0.232   2.831
 4939WAT     OW24691   3.642   2.099   1.397
 4939WAT    HW124692   3.612   2.093   1.488
 4939WAT    HW224693   3.595   2.175   1.362
 4939WAT    LP124694   3.711   2.109   1.395
 4939WAT    LP224695   3.625   2.041   1.362
 4940WAT     OW24696   0.543   2.999   2.756
 4940WAT    HW124697   0.462   2.953   2.777
 4940WAT    HW224698   0.556   3.060   2.828
 4940WAT    LP124699   0.596   2.954   2.751
 4940WAT    LP224700   0.536   3.034   2.695
 4941WAT     OW24701   3.975   0.959   5.687
 4941WAT    HW124702   4.050   0.958   5.628
 4941WAT    HW224703   4.012   0.940   5.774
 4941WAT    LP124704   3.944   1.022   5.687
 4941WAT    LP224705   3.929   0.910   5.669
 4942WAT     OW24706   2.189   3.654   0.148
 4942WAT    HW124707   2.098   3.649   0.177
 4942WAT    HW224708   2.206   3.569   0.107
 4942WAT    LP124709   2.198   3.705   0.101
 4942WAT    LP224710   2.232   3.664   0.202
 4943WAT     OW24711   2.852   5.014   5.671
 4943WAT    HW124712   2.791   5.081   5.643
 4943WAT    HW224713   2.938   5.047   5.645
 4943WAT    LP124714   2.849   5.004   5.740
 4943WAT    LP224715   2.839   4.953   5.638
 4944WAT     OW24716   2.911   2.640   1.750
 4944WAT    HW124717   2.952   2.637   1.836
 4944WAT    HW224718   2.833   2.586   1.759
 4944WAT    LP124719   2.894   2.705   1.733
 4944WAT    LP224720   2.954   2.613   1.701
 4945WAT     OW24721   6.389   5.567   2.422
 4945WAT    HW124722   6.386   5.502   2.492
 4945WAT    HW224723   6.304   5.612   2.428
 4945WAT    LP124724   6.441   5.612   2.433
 4945WAT    LP224725   6.397   5.536   2.360
 4946WAT     OW24726   6.137   4.042   0.173
 4946WAT    HW124727   6.143   4.042   0.268
 4946WAT    HW224728   6.222   4.009   0.143
 4946WAT    LP124729   6.085   3.999   0.152
 4946WAT    LP224730   6.125   4.106   0.149
 4947WAT     OW24731   6.774   1.925   0.943
 4947WAT    HW124732   6.724   1.896   0.867
 4947WAT    HW224733   6.850   1.971   0.906
 4947WAT    LP124734   6.736   1.968   0.983
 4947WAT    LP224735   6.795   1.870   0.982
 4948WAT     OW24736   1.993   0.837   5.112
 4948WAT    HW124737   2.077   0.792   5.104
 4948WAT    HW224738   1.944   0.810   5.034
 4948WAT    LP124739   1.959   0.817   5.170
 4948WAT    LP224740   2.002   0.906   5.112
 4949WAT     OW24741   2.107   4.051   6.137
 4949WAT    HW124742   2.102   4.107   6.214
 4949WAT    HW224743   2.033   3.991   6.144
 4949WAT    LP124744   2.102   4.089   6.078
 4949WAT    LP224745   2.168   4.015   6.136
 4950WAT     OW24746   5.862   2.680   2.770
 4950WAT    HW124747   5.947   2.678   2.726
 4950WAT    HW224748   5.804   2.725   2.708
 4950WAT    LP124749   5.839   2.615   2.783
 4950WAT    LP224750   5.866   2.716   2.830
 4951WAT     OW24751   3.747   6.114   3.193
 4951WAT    HW124752   3.772   6.102   3.101
 4951WAT    HW224753   3.807   6.059   3.242
 4951WAT    LP124754   3.754   6.182   3.211
 4951WAT    LP224755   3.681   6.094   3.204
 4952WAT     OW24756   3.058   2.209   1.162
 4952WAT    HW124757   2.971   2.170   1.168
 4952WAT    HW224758   3.111   2.160   1.226
 4952WAT    LP124759   3.085   2.201   1.097
 4952WAT    LP224760   3.056   2.277   1.178
 4953WAT     OW24761   4.423   0.844   1.789
 4953WAT    HW124762   4.485   0.836   1.717
 4953WAT    HW224763   4.460   0.790   1.859
 4953WAT    LP124764   4.418   0.911   1.810
 4953WAT    LP224765   4.360   0.821   1.770
 4954WAT     OW24766   1.846   1.059   2.976
 4954WAT    HW124767   1.901   0.983   2.994
 4954WAT    HW224768   1.767   1.022   2.938
 4954WAT    LP124769   1.832   1.094   3.035
 4954WAT    LP224770   1.878   1.102   2.930
 4955WAT     OW24771   1.483   5.314   4.642
 4955WAT    HW124772   1.490   5.235   4.589
 4955WAT    HW224773   1.560   5.313   4.698
 4955WAT    LP124774   1.482   5.371   4.602
 4955WAT    LP224775   1.424   5.312   4.681
 4956WAT     OW24776   0.224   3.708   0.319
 4956WAT    HW124777   0.266   3.730   0.236
 4956WAT    HW224778   0.214   3.792   0.364
 4956WAT    LP124779   0.161   3.679   0.308
 4956WAT    LP224780   0.263   3.664   0.357
 4957WAT     OW24781   2.653   4.599   2.488
 4957WAT    HW124782   2.664   4.531   2.421
 4957WAT    HW224783   2.740   4.607   2.528
 4957WAT    LP124784   2.633   4.659   2.459
 4957WAT    LP224785   2.606   4.579   2.536
 4958WAT     OW24786   3.874   0.199   4.980
 4958WAT    HW124787   3.875   0.289   5.013
 4958WAT    HW224788   3.967   0.178   4.965
 4958WAT    LP124789   3.846   0.156   5.027
 4958WAT    LP224790   3.838   0.195   4.920
 4959WAT     OW24791   2.806   3.243   3.866
 4959WAT    HW124792   2.801   3.156   3.907
 4959WAT    HW224793   2.787   3.304   3.936
 4959WAT    LP124794   2.870   3.254   3.839
 4959WAT    LP224795   2.759   3.248   3.814
 4960WAT     OW24796   2.384   1.474   5.450
 4960WAT    HW124797   2.424   1.394   5.484
 4960WAT    HW224798   2.310   1.443   5.399
 4960WAT    LP124799   2.363   1.515   5.502
 4960WAT    LP224800   2.430   1.508   5.410
 4961WAT     OW24801   6.757   1.105   3.686
 4961WAT    HW124802   6.699   1.028   3.688
 4961WAT    HW224803   6.741   1.149   3.769
 4961WAT    LP124804   6.823   1.085   3.681
 4961WAT    LP224805   6.741   1.147   3.632
 4962WAT     OW24806   3.554   4.065   2.288
 4962WAT    HW124807   3.601   4.056   2.371
 4962WAT    HW224808   3.465   4.036   2.307
 4962WAT    LP124809   3.554   4.131   2.266
 4962WAT    LP224810   3.583   4.024   2.238
 4963WAT     OW24811   1.772   5.378   3.483
 4963WAT    HW124812   1.824   5.454   3.457
 4963WAT    HW224813   1.687   5.392   3.441
 4963WAT    LP124814   1.802   5.319   3.461
 4963WAT    LP224815   1.764   5.376   3.553
 4964WAT     OW24816   1.141   3.810   6.373
 4964WAT    HW124817   1.218   3.755   6.387
 4964WAT    HW224818   1.114   3.792   6.283
 4964WAT    LP124819   1.091   3.793   6.419
 4964WAT    LP224820   1.158   3.878   6.381
 4965WAT     OW24821   4.969   5.202   3.252
 4965WAT    HW124822   5.039   5.164   3.306
 4965WAT    HW224823   5.014   5.230   3.172
 4965WAT    LP124824   4.920   5.154   3.238
 4965WAT    LP224825   4.940   5.256   3.285
 4966WAT     OW24826   0.552   2.451   1.498
 4966WAT    HW124827   0.625   2.390   1.493
 4966WAT    HW224828   0.486   2.415   1.438
 4966WAT    LP124829   0.527   2.454   1.563
 4966WAT    LP224830   0.571   2.515   1.477
 4967WAT     OW24831   5.144   2.906   5.569
 4967WAT    HW124832   5.055   2.880   5.594
 4967WAT    HW224833   5.182   2.941   5.650
 4967WAT    LP124834   5.180   2.850   5.547
 4967WAT    LP224835   5.142   2.954   5.519
 4968WAT     OW24836   2.721   5.719   2.356
 4968WAT    HW124837   2.627   5.702   2.355
 4968WAT    HW224838   2.728   5.813   2.373
 4968WAT    LP124839   2.753   5.682   2.406
 4968WAT    LP224840   2.750   5.703   2.294
 4969WAT     OW24841   0.592   0.095   1.915
 4969WAT    HW124842   0.594   0.131   2.004
 4969WAT    HW224843   0.681   0.109   1.882
 4969WAT    LP124844   0.577   0.026   1.917
 4969WAT    LP224845   0.545   0.128   1.876
 4970WAT     OW24846   3.442   5.201   4.859
 4970WAT    HW124847   3.494   5.254   4.798
 4970WAT    HW224848   3.487   5.117   4.861
 4970WAT    LP124849   3.440   5.230   4.922
 4970WAT    LP224850   3.377   5.193   4.835
 4971WAT     OW24851   1.367   6.243   3.541
 4971WAT    HW124852   1.374   6.257   3.446
 4971WAT    HW224853   1.280   6.205   3.552
 4971WAT    LP124854   1.416   6.200   3.563
 4971WAT    LP224855   1.371   6.304   3.575
 4972WAT     OW24856   6.738   0.560   4.013
 4972WAT    HW124857   6.725   0.638   4.067
 4972WAT    HW224858   6.677   0.496   4.049
 4972WAT    LP124859   6.724   0.573   3.946
 4972WAT    LP224860   6.804   0.537   4.019
 4973WAT     OW24861   0.521   3.737   5.720
 4973WAT    HW124862   0.497   3.712   5.810
 4973WAT    HW224863   0.438   3.733   5.672
 4973WAT    LP124864   0.548   3.801   5.719
 4973WAT    LP224865   0.567   3.691   5.694
 4974WAT     OW24866   6.580   1.476   0.673
 4974WAT    HW124867   6.493   1.482   0.711
 4974WAT    HW224868   6.639   1.500   0.745
 4974WAT    LP124869   6.593   1.411   0.651
 4974WAT    LP224870   6.587   1.521   0.620
 4975WAT     OW24871   6.641   2.032   1.155
 4975WAT    HW124872   6.553   1.998   1.137
 4975WAT    HW224873   6.692   2.007   1.077
 4975WAT    LP124874   6.640   2.102   1.162
 4975WAT    LP224875   6.668   2.003   1.212
 4976WAT     OW24876   4.645   5.626   4.047
 4976WAT    HW124877   4.580   5.640   3.978
 4976WAT    HW224878   4.595   5.629   4.129
 4976WAT    LP124879   4.676   5.564   4.040
 4976WAT    LP224880   4.693   5.677   4.047
 4977WAT     OW24881   3.329   4.290   1.171
 4977WAT    HW124882   3.246   4.285   1.124
 4977WAT    HW224883   3.357   4.381   1.160
 4977WAT    LP124884   3.320   4.275   1.239
 4977WAT    LP224885   3.376   4.247   1.143
 4978WAT     OW24886   3.494   2.512   6.644
 4978WAT    HW124887   3.470   2.453   6.572
 4978WAT    HW224888   3.523   2.454   6.714
 4978WAT    LP124889   3.545   2.555   6.625
 4978WAT    LP224890   3.438   2.550   6.665
 4979WAT     OW24891   3.582   2.146   4.862
 4979WAT    HW124892   3.511   2.141   4.926
 4979WAT    HW224893   3.660   2.165   4.914
 4979WAT    LP124894   3.589   2.085   4.829
 4979WAT    LP224895   3.570   2.197   4.815
 4980WAT     OW24896   1.588   6.573   5.698
 4980WAT    HW124897   1.631   6.543   5.618
 4980WAT    HW224898   1.576   6.493   5.750
 4980WAT    LP124899   1.629   6.618   5.733
 4980WAT    LP224900   1.527   6.603   5.684
 4981WAT     OW24901   1.274   1.816   4.692
 4981WAT    HW124902   1.315   1.861   4.619
 4981WAT    HW224903   1.222   1.747   4.651
 4981WAT    LP124904   1.322   1.788   4.735
 4981WAT    LP224905   1.233   1.860   4.728
 4982WAT     OW24906   0.052   2.470   6.058
 4982WAT    HW124907  -0.041   2.485   6.045
 4982WAT    HW224908   0.094   2.511   5.983
 4982WAT    LP124909   0.074   2.499   6.118
 4982WAT    LP224910   0.066   2.401   6.059
 4983WAT     OW24911   4.744   3.680   3.620
 4983WAT    HW124912   4.717   3.676   3.529
 4983WAT    HW224913   4.704   3.604   3.661
 4983WAT    LP124914   4.814   3.677   3.626
 4983WAT    LP224915   4.721   3.739   3.650
 4984WAT     OW24916   3.155   4.367   1.789
 4984WAT    HW124917   3.219   4.328   1.848
 4984WAT    HW224918   3.189   4.454   1.770
 4984WAT    LP124919   3.149   4.329   1.730
 4984WAT    LP224920   3.092   4.371   1.820
 4985WAT     OW24921   6.776   2.831   3.406
 4985WAT    HW124922   6.824   2.867   3.481
 4985WAT    HW224923   6.843   2.804   3.344
 4985WAT    LP124924   6.737   2.775   3.426
 4985WAT    LP224925   6.734   2.879   3.378
 4986WAT     OW24926   3.218   6.646   1.007
 4986WAT    HW124927   3.154   6.704   1.047
 4986WAT    HW224928   3.293   6.702   0.986
 4986WAT    LP124929   3.237   6.595   1.051
 4986WAT    LP224930   3.192   6.617   0.948
 4987WAT     OW24931   3.073   5.299   2.422
 4987WAT    HW124932   2.996   5.242   2.417
 4987WAT    HW224933   3.073   5.348   2.340
 4987WAT    LP124934   3.068   5.342   2.477
 4987WAT    LP224935   3.131   5.260   2.428
 4988WAT     OW24936   6.472   3.989   2.205
 4988WAT    HW124937   6.418   3.980   2.126
 4988WAT    HW224938   6.544   4.046   2.178
 4988WAT    LP124939   6.435   4.018   2.256
 4988WAT    LP224940   6.496   3.926   2.225
 4989WAT     OW24941   5.475   3.689   4.666
 4989WAT    HW124942   5.448   3.618   4.606
 4989WAT    HW224943   5.535   3.646   4.727
 4989WAT    LP124944   5.508   3.740   4.630
 4989WAT    LP224945   5.420   3.715   4.699
 4990WAT     OW24946   4.263   3.676   0.576
 4990WAT    HW124947   4.340   3.635   0.617
 4990WAT    HW224948   4.258   3.763   0.615
 4990WAT    LP124949   4.271   3.680   0.507
 4990WAT    LP224950   4.205   3.639   0.591
 4991WAT     OW24951   5.980   2.337   6.400
 4991WAT    HW124952   6.046   2.405   6.411
 4991WAT    HW224953   5.901   2.385   6.375
 4991WAT    LP124954   5.999   2.292   6.350
 4991WAT    LP224955   5.970   2.302   6.460
 4992WAT     OW24956   6.554   5.197   2.936
 4992WAT    HW124957   6.589   5.111   2.958
 4992WAT    HW224958   6.598   5.221   2.855
 4992WAT    LP124959   6.485   5.194   2.926
 4992WAT    LP224960   6.569   5.243   2.987
 4993WAT     OW24961   1.492   3.932   3.528
 4993WAT    HW124962   1.586   3.947   3.519
 4993WAT    HW224963   1.479   3.841   3.500
 4993WAT    LP124964   1.472   3.940   3.595
 4993WAT    LP224965   1.456   3.976   3.487
 4994WAT     OW24966   3.919   5.540   4.662
 4994WAT    HW124967   3.894   5.542   4.570
 4994WAT    HW224968   4.001   5.489   4.664
 4994WAT    LP124969   3.930   5.604   4.687
 4994WAT    LP224970   3.870   5.508   4.701
 4995WAT     OW24971   2.921   4.753   6.207
 4995WAT    HW124972   2.929   4.658   6.218
 4995WAT    HW224973   2.827   4.770   6.207
 4995WAT    LP124974   2.952   4.787   6.261
 4995WAT    LP224975   2.950   4.774   6.147
 4996WAT     OW24976   3.741   3.314   5.100
 4996WAT    HW124977   3.687   3.314   5.179
 4996WAT    HW224978   3.821   3.361   5.125
 4996WAT    LP124979   3.756   3.249   5.080
 4996WAT    LP224980   3.709   3.348   5.048
 4997WAT     OW24981   5.241   4.407   6.043
 4997WAT    HW124982   5.156   4.439   6.014
 4997WAT    HW224983   5.270   4.349   5.972
 4997WAT    LP124984   5.286   4.460   6.051
 4997WAT    LP224985   5.236   4.372   6.103
 4998WAT     OW24986   5.998   0.669   3.679
 4998WAT    HW124987   6.027   0.632   3.596
 4998WAT    HW224988   5.955   0.751   3.655
 4998WAT    LP124989   5.953   0.626   3.711
 4998WAT    LP224990   6.053   0.682   3.721
 4999WAT     OW24991   6.436   1.774   2.698
 4999WAT    HW124992   6.417   1.863   2.726
 4999WAT    HW224993   6.395   1.718   2.764
 4999WAT    LP124994   6.408   1.762   2.635
 4999WAT    LP224995   6.505   1.763   2.695
 5000WAT     OW24996   5.151   4.027   1.018
 5000WAT    HW124997   5.175   4.026   1.110
 5000WAT    HW224998   5.163   3.937   0.989
 5000WAT    LP124999   5.085   4.047   1.009
 5000WAT    LP225000   5.193   4.070   0.981
 5001WAT     OW25001   6.076   2.650   2.595
 5001WAT    HW125002   6.147   2.593   2.625
 5001WAT    HW225003   6.064   2.627   2.503
 5001WAT    LP125004   6.018   2.638   2.631
 5001WAT    LP225005   6.094   2.717   2.602
 5002WAT     OW25006   0.052   5.395   6.637
 5002WAT    HW125007   0.080   5.339   6.565
 5002WAT    HW225008  -0.035   5.425   6.611
 5002WAT    LP125009   0.049   5.359   6.697
 5002WAT    LP225010   0.096   5.449   6.645
 5003WAT     OW25011   6.650   2.301   1.212
 5003WAT    HW125012   6.673   2.307   1.305
 5003WAT    HW225013   6.645   2.208   1.194
 5003WAT    LP125014   6.588   2.332   1.200
 5003WAT    LP225015   6.700   2.332   1.173
 5004WAT     OW25016   1.475   3.790   0.825
 5004WAT    HW125017   1.448   3.812   0.914
 5004WAT    HW225018   1.515   3.703   0.833
 5004WAT    LP125019   1.420   3.788   0.782
 5004WAT    LP225020   1.522   3.836   0.801
 5005WAT     OW25021   0.568   0.178   0.823
 5005WAT    HW125022   0.628   0.230   0.876
 5005WAT    HW225023   0.493   0.236   0.809
 5005WAT    LP125024   0.597   0.160   0.762
 5005WAT    LP225025   0.548   0.120   0.858
 5006WAT     OW25026   4.015   2.862   4.948
 5006WAT    HW125027   3.956   2.795   4.915
 5006WAT    HW225028   3.960   2.939   4.960
 5006WAT    LP125029   4.043   2.842   5.009
 5006WAT    LP225030   4.067   2.874   4.902
 5007WAT     OW25031   0.196   2.643   2.684
 5007WAT    HW125032   0.127   2.608   2.741
 5007WAT    HW225033   0.148   2.680   2.610
 5007WAT    LP125034   0.232   2.693   2.717
 5007WAT    LP225035   0.239   2.592   2.663
 5008WAT     OW25036   4.790   4.775   6.487
 5008WAT    HW125037   4.758   4.770   6.397
 5008WAT    HW225038   4.717   4.812   6.537
 5008WAT    LP125039   4.807   4.711   6.511
 5008WAT    LP225040   4.846   4.817   6.491
 5009WAT     OW25041   6.348   6.367   2.689
 5009WAT    HW125042   6.399   6.390   2.766
 5009WAT    HW225043   6.407   6.310   2.638
 5009WAT    LP125044   6.290   6.333   2.706
 5009WAT    LP225045   6.332   6.425   2.652
 5010WAT     OW25046   3.502   1.247   5.961
 5010WAT    HW125047   3.505   1.152   5.955
 5010WAT    HW225048   3.593   1.275   5.962
 5010WAT    LP125049   3.468   1.275   5.907
 5010WAT    LP225050   3.470   1.267   6.021
 5011WAT     OW25051   4.703   0.840   2.152
 5011WAT    HW125052   4.734   0.919   2.108
 5011WAT    HW225053   4.782   0.788   2.166
 5011WAT    LP125054   4.673   0.856   2.213
 5011WAT    LP225055   4.658   0.806   2.111
 5012WAT     OW25056   1.958   3.978   2.024
 5012WAT    HW125057   2.023   4.049   2.020
 5012WAT    HW225058   1.874   4.023   2.025
 5012WAT    LP125059   1.963   3.936   1.969
 5012WAT    LP225060   1.967   3.941   2.083
 5013WAT     OW25061   3.141   5.978   1.867
 5013WAT    HW125062   3.104   6.066   1.868
 5013WAT    HW225063   3.183   5.968   1.953
 5013WAT    LP125064   3.090   5.930   1.859
 5013WAT    LP225065   3.188   5.971   1.816
 5014WAT     OW25066   4.995   1.908   0.345
 5014WAT    HW125067   4.992   1.832   0.286
 5014WAT    HW225068   4.955   1.877   0.426
 5014WAT    LP125069   5.061   1.927   0.356
 5014WAT    LP225070   4.959   1.961   0.318
 5015WAT     OW25071   6.542   4.358   5.084
 5015WAT    HW125072   6.635   4.367   5.064
 5015WAT    HW225073   6.508   4.447   5.078
 5015WAT    LP125074   6.511   4.316   5.037
 5015WAT    LP225075   6.533   4.332   5.148
 5016WAT     OW25076   1.028   1.967   3.965
 5016WAT    HW125077   1.103   1.955   4.024
 5016WAT    HW225078   0.951   1.961   4.021
 5016WAT    LP125079   1.031   2.030   3.934
 5016WAT    LP225080   1.027   1.917   3.916
 5017WAT     OW25081   0.133   5.334   0.246
 5017WAT    HW125082   0.094   5.248   0.266
 5017WAT    HW225083   0.110   5.350   0.154
 5017WAT    LP125084   0.106   5.383   0.287
 5017WAT    LP225085   0.202   5.331   0.254
 5018WAT     OW25086   1.449   1.908   2.259
 5018WAT    HW125087   1.479   1.978   2.317
 5018WAT    HW225088   1.384   1.950   2.203
 5018WAT    LP125089   1.502   1.883   2.221
 5018WAT    LP225090   1.420   1.856   2.296
 5019WAT     OW25091   3.545   1.472   1.037
 5019WAT    HW125092   3.523   1.507   0.950
 5019WAT    HW225093   3.579   1.548   1.085
 5019WAT    LP125094   3.488   1.446   1.068
 5019WAT    LP225095   3.594   1.422   1.032
 5020WAT     OW25096   5.787   5.651   4.910
 5020WAT    HW125097   5.839   5.634   4.832
 5020WAT    HW225098   5.843   5.707   4.964
 5020WAT    LP125099   5.727   5.683   4.894
 5020WAT    LP225100   5.772   5.591   4.944
 5021WAT     OW25101   5.105   3.658   5.305
 5021WAT    HW125102   5.090   3.577   5.352
 5021WAT    HW225103   5.056   3.724   5.354
 5021WAT    LP125104   5.173   3.674   5.303
 5021WAT    LP225105   5.081   3.654   5.239
 5022WAT     OW25106   5.380   5.248   5.861
 5022WAT    HW125107   5.286   5.230   5.871
 5022WAT    HW225108   5.409   5.271   5.949
 5022WAT    LP125109   5.414   5.191   5.838
 5022WAT    LP225110   5.390   5.301   5.816
 5023WAT     OW25111   2.711   3.024   6.374
 5023WAT    HW125112   2.633   2.969   6.373
 5023WAT    HW225113   2.681   3.110   6.345
 5023WAT    LP125114   2.738   3.028   6.438
 5023WAT    LP225115   2.759   2.998   6.330
 5024WAT     OW25116   5.676   1.145   0.455
 5024WAT    HW125117   5.672   1.207   0.382
 5024WAT    HW225118   5.621   1.071   0.427
 5024WAT    LP125119   5.741   1.123   0.466
 5024WAT    LP225120   5.650   1.173   0.513
 5025WAT     OW25121   0.583   6.028   0.961
 5025WAT    HW125122   0.614   5.946   0.922
 5025WAT    HW225123   0.499   6.045   0.918
 5025WAT    LP125124   0.574   6.021   1.030
 5025WAT    LP225125   0.628   6.080   0.948
 5026WAT     OW25126   4.746   0.317   2.114
 5026WAT    HW125127   4.785   0.274   2.190
 5026WAT    HW225128   4.813   0.379   2.085
 5026WAT    LP125129   4.732   0.271   2.064
 5026WAT    LP225130   4.688   0.351   2.132
 5027WAT     OW25131   2.697   0.217   3.465
 5027WAT    HW125132   2.684   0.124   3.444
 5027WAT    HW225133   2.641   0.264   3.403
 5027WAT    LP125134   2.677   0.230   3.531
 5027WAT    LP225135   2.764   0.235   3.456
 5028WAT     OW25136   4.861   1.275   3.087
 5028WAT    HW125137   4.836   1.367   3.093
 5028WAT    HW225138   4.783   1.230   3.056
 5028WAT    LP125139   4.914   1.267   3.041
 5028WAT    LP225140   4.881   1.250   3.149
 5029WAT     OW25141   3.483   6.292   2.011
 5029WAT    HW125142   3.538   6.215   2.005
 5029WAT    HW225143   3.471   6.306   2.105
 5029WAT    LP125144   3.515   6.348   1.982
 5029WAT    LP225145   3.421   6.282   1.980
 5030WAT     OW25146   3.249   6.048   3.041
 5030WAT    HW125147   3.330   6.045   3.092
 5030WAT    HW225148   3.278   6.043   2.950
 5030WAT    LP125149   3.208   5.993   3.057
 5030WAT    LP225150   3.214   6.107   3.053
 5031WAT     OW25151   3.233   0.171   6.278
 5031WAT    HW125152   3.237   0.265   6.291
 5031WAT    HW225153   3.275   0.157   6.193
 5031WAT    LP125154   3.269   0.137   6.329
 5031WAT    LP225155   3.167   0.148   6.277
 5032WAT     OW25156   1.923   4.215   6.578
 5032WAT    HW125157   1.834   4.237   6.603
 5032WAT    HW225158   1.978   4.250   6.648
 5032WAT    LP125159   1.931   4.146   6.572
 5032WAT    LP225160   1.939   4.245   6.517
 5033WAT     OW25161   5.335   1.032   2.102
 5033WAT    HW125162   5.415   0.998   2.141
 5033WAT    HW225163   5.362   1.064   2.016
 5033WAT    LP125164   5.287   0.982   2.095
 5033WAT    LP225165   5.309   1.085   2.140
 5034WAT     OW25166   5.393   5.600   1.248
 5034WAT    HW125167   5.371   5.508   1.263
 5034WAT    HW225168   5.342   5.648   1.313
 5034WAT    LP125169   5.462   5.610   1.257
 5034WAT    LP225170   5.375   5.619   1.183
 5035WAT     OW25171   0.765   2.920   3.346
 5035WAT    HW125172   0.850   2.876   3.342
 5035WAT    HW225173   0.782   3.001   3.393
 5035WAT    LP125174   0.741   2.933   3.281
 5035WAT    LP225175   0.718   2.881   3.380
 5036WAT     OW25176   1.503   3.943   2.315
 5036WAT    HW125177   1.487   3.874   2.380
 5036WAT    HW225178   1.526   3.896   2.235
 5036WAT    LP125179   1.445   3.982   2.306
 5036WAT    LP225180   1.556   3.985   2.336
 5037WAT     OW25181   5.690   0.728   6.296
 5037WAT    HW125182   5.765   0.757   6.243
 5037WAT    HW225183   5.729   0.702   6.380
 5037WAT    LP125184   5.644   0.779   6.304
 5037WAT    LP225185   5.659   0.673   6.266
 5038WAT     OW25186   2.803   1.624   4.239
 5038WAT    HW125187   2.801   1.717   4.215
 5038WAT    HW225188   2.749   1.618   4.317
 5038WAT    LP125189   2.777   1.585   4.187
 5038WAT    LP225190   2.869   1.604   4.253
 5039WAT     OW25191   1.567   2.556   3.056
 5039WAT    HW125192   1.654   2.515   3.068
 5039WAT    HW225193   1.509   2.482   3.035
 5039WAT    LP125194   1.547   2.588   3.115
 5039WAT    LP225195   1.569   2.602   3.003
 5040WAT     OW25196   2.349   0.997   0.064
 5040WAT    HW125197   2.432   0.953   0.044
 5040WAT    HW225198   2.287   0.925   0.077
 5040WAT    LP125199   2.355   1.035   0.123
 5040WAT    LP225200   2.329   1.038   0.012
 5041WAT     OW25201   0.413   3.327   2.149
 5041WAT    HW125202   0.344   3.392   2.132
 5041WAT    HW225203   0.383   3.279   2.226
 5041WAT    LP125204   0.420   3.284   2.094
 5041WAT    LP225205   0.474   3.359   2.161
 5042WAT     OW25206   0.810   1.501   5.184
 5042WAT    HW125207   0.777   1.494   5.095
 5042WAT    HW225208   0.888   1.445   5.185
 5042WAT    LP125209   0.827   1.567   5.199
 5042WAT    LP225210   0.763   1.478   5.230
 5043WAT     OW25211   1.564   0.575   2.731
 5043WAT    HW125212   1.592   0.603   2.644
 5043WAT    HW225213   1.534   0.485   2.720
 5043WAT    LP125214   1.618   0.578   2.776
 5043WAT    LP225215   1.512   0.616   2.755
 5044WAT     OW25216   0.084   1.732   1.099
 5044WAT    HW125217   0.035   1.800   1.053
 5044WAT    HW225218   0.128   1.682   1.030
 5044WAT    LP125219   0.131   1.761   1.143
 5044WAT    LP225220   0.041   1.691   1.136
 5045WAT     OW25221   6.434   2.544   4.394
 5045WAT    HW125222   6.527   2.520   4.397
 5045WAT    HW225223   6.403   2.532   4.484
 5045WAT    LP125224   6.426   2.610   4.374
 5045WAT    LP225225   6.399   2.501   4.350
 5046WAT     OW25226   3.056   4.058   5.436
 5046WAT    HW125227   3.141   4.017   5.417
 5046WAT    HW225228   3.045   4.124   5.367
 5046WAT    LP125229   3.005   4.011   5.433
 5046WAT    LP225230   3.057   4.088   5.499
 5047WAT     OW25231   5.105   0.184   5.339
 5047WAT    HW125232   5.129   0.208   5.250
 5047WAT    HW225233   5.150   0.249   5.394
 5047WAT    LP125234   5.036   0.187   5.348
 5047WAT    LP225235   5.128   0.119   5.355
 5048WAT     OW25236   3.122   3.688   2.281
 5048WAT    HW125237   3.172   3.721   2.355
 5048WAT    HW225238   3.164   3.604   2.260
 5048WAT    LP125239   3.055   3.678   2.298
 5048WAT    LP225240   3.127   3.731   2.226
 5049WAT     OW25241   5.774   1.679   4.109
 5049WAT    HW125242   5.737   1.617   4.047
 5049WAT    HW225243   5.706   1.745   4.120
 5049WAT    LP125244   5.788   1.648   4.170
 5049WAT    LP225245   5.832   1.708   4.084
 5050WAT     OW25246   3.326   2.225   4.511
 5050WAT    HW125247   3.373   2.181   4.441
 5050WAT    HW225248   3.263   2.160   4.543
 5050WAT    LP125249   3.370   2.244   4.563
 5050WAT    LP225250   3.292   2.282   4.487
 5051WAT     OW25251   1.763   1.736   4.351
 5051WAT    HW125252   1.670   1.715   4.347
 5051WAT    HW225253   1.773   1.788   4.431
 5051WAT    LP125254   1.801   1.677   4.356
 5051WAT    LP225255   1.783   1.772   4.295
 5052WAT     OW25256   1.000   3.804   5.580
 5052WAT    HW125257   0.997   3.791   5.486
 5052WAT    HW225258   0.950   3.883   5.596
 5052WAT    LP125259   0.971   3.749   5.613
 5052WAT    LP225260   1.066   3.811   5.602
 5053WAT     OW25261   3.992   3.654   0.503
 5053WAT    HW125262   3.936   3.646   0.581
 5053WAT    HW225263   4.081   3.652   0.537
 5053WAT    LP125264   3.981   3.600   0.460
 5053WAT    LP225265   3.979   3.714   0.470
 5054WAT     OW25266   1.338   3.814   1.948
 5054WAT    HW125267   1.389   3.846   1.874
 5054WAT    HW225268   1.304   3.893   1.990
 5054WAT    LP125269   1.286   3.773   1.926
 5054WAT    LP225270   1.379   3.778   1.993
 5055WAT     OW25271   0.271   3.216   5.170
 5055WAT    HW125272   0.232   3.176   5.248
 5055WAT    HW225273   0.365   3.201   5.180
 5055WAT    LP125274   0.247   3.185   5.112
 5055WAT    LP225275   0.256   3.285   5.168
 5056WAT     OW25276   0.351   3.025   0.785
 5056WAT    HW125277   0.426   3.074   0.818
 5056WAT    HW225278   0.390   2.960   0.726
 5056WAT    LP125279   0.317   2.994   0.838
 5056WAT    LP225280   0.307   3.067   0.750
 5057WAT     OW25281   6.412   2.108   5.066
 5057WAT    HW125282   6.363   2.054   5.128
 5057WAT    HW225283   6.360   2.188   5.057
 5057WAT    LP125284   6.476   2.122   5.092
 5057WAT    LP225285   6.418   2.075   5.005
 5058WAT     OW25286   3.178   6.654   4.408
 5058WAT    HW125287   3.184   6.740   4.449
 5058WAT    HW225288   3.156   6.595   4.480
 5058WAT    LP125289   3.128   6.654   4.359
 5058WAT    LP225290   3.239   6.636   4.379
 5059WAT     OW25291   1.048   5.587   2.708
 5059WAT    HW125292   1.076   5.654   2.646
 5059WAT    HW225293   0.985   5.533   2.658
 5059WAT    LP125294   1.102   5.548   2.729
 5059WAT    LP225295   1.017   5.616   2.764
 5060WAT     OW25296   5.431   2.225   2.865
 5060WAT    HW125297   5.498   2.196   2.927
 5060WAT    HW225298   5.426   2.320   2.877
 5060WAT    LP125299   5.449   2.210   2.799
 5060WAT    LP225300   5.369   2.196   2.880
 5061WAT     OW25301   2.969   6.370   3.622
 5061WAT    HW125302   2.980   6.435   3.691
 5061WAT    HW225303   2.948   6.421   3.544
 5061WAT    LP125304   3.029   6.334   3.612
 5061WAT    LP225305   2.917   6.326   3.637
 5062WAT     OW25306   0.981   5.151   0.036
 5062WAT    HW125307   1.009   5.218   0.098
 5062WAT    HW225308   1.012   5.182  -0.049
 5062WAT    LP125309   1.010   5.089   0.052
 5062WAT    LP225310   0.911   5.145   0.036
 5063WAT     OW25311   5.961   4.656   1.096
 5063WAT    HW125312   5.918   4.667   1.011
 5063WAT    HW225313   5.972   4.561   1.105
 5063WAT    LP125314   6.023   4.688   1.097
 5063WAT    LP225315   5.921   4.681   1.147
 5064WAT     OW25316   2.584   1.886   1.043
 5064WAT    HW125317   2.548   1.808   1.001
 5064WAT    HW225318   2.605   1.945   0.970
 5064WAT    LP125319   2.537   1.916   1.086
 5064WAT    LP225320   2.641   1.870   1.079
 5065WAT     OW25321   5.360   1.506   2.747
 5065WAT    HW125322   5.455   1.505   2.758
 5065WAT    HW225323   5.343   1.576   2.685
 5065WAT    LP125324   5.337   1.444   2.722
 5065WAT    LP225325   5.328   1.519   2.809
 5066WAT     OW25326   5.218   6.243   3.998
 5066WAT    HW125327   5.284   6.175   4.004
 5066WAT    HW225328   5.251   6.303   3.931
 5066WAT    LP125329   5.156   6.217   3.979
 5066WAT    LP225330   5.211   6.276   4.059
 5067WAT     OW25331   4.506   4.821   1.694
 5067WAT    HW125332   4.494   4.907   1.733
 5067WAT    HW225333   4.510   4.837   1.599
 5067WAT    LP125334   4.565   4.791   1.716
 5067WAT    LP225335   4.451   4.779   1.709
 5068WAT     OW25336   4.522   0.163   4.013
 5068WAT    HW125337   4.515   0.136   3.922
 5068WAT    HW225338   4.482   0.091   4.063
 5068WAT    LP125339   4.589   0.172   4.032
 5068WAT    LP225340   4.487   0.223   4.024
 5069WAT     OW25341   1.164   4.435   0.024
 5069WAT    HW125342   1.083   4.464  -0.018
 5069WAT    HW225343   1.233   4.486  -0.018
 5069WAT    LP125344   1.162   4.448   0.092
 5069WAT    LP225345   1.174   4.366   0.013
 5070WAT     OW25346   5.024   1.124   2.687
 5070WAT    HW125347   5.030   1.130   2.783
 5070WAT    HW225348   5.087   1.188   2.655
 5070WAT    LP125349   5.040   1.060   2.665
 5070WAT    LP225350   4.959   1.141   2.665
 5071WAT     OW25351   5.075   5.753   5.449
 5071WAT    HW125352   5.113   5.737   5.363
 5071WAT    HW225353   5.140   5.718   5.510
 5071WAT    LP125354   5.066   5.821   5.460
 5071WAT    LP225355   5.014   5.719   5.456
 5072WAT     OW25356   2.834   2.381   4.517
 5072WAT    HW125357   2.878   2.322   4.579
 5072WAT    HW225358   2.742   2.353   4.519
 5072WAT    LP125359   2.839   2.448   4.538
 5072WAT    LP225360   2.861   2.374   4.453
 5073WAT     OW25361   1.638   0.642   6.132
 5073WAT    HW125362   1.590   0.712   6.087
 5073WAT    HW225363   1.712   0.623   6.075
 5073WAT    LP125364   1.659   0.663   6.195
 5073WAT    LP225365   1.598   0.585   6.140
 5074WAT     OW25366   6.412   2.800   3.630
 5074WAT    HW125367   6.364   2.794   3.547
 5074WAT    HW225368   6.346   2.785   3.697
 5074WAT    LP125369   6.462   2.751   3.633
 5074WAT    LP225370   6.441   2.863   3.637
 5075WAT     OW25371   0.702   4.483   3.093
 5075WAT    HW125372   0.744   4.547   3.036
 5075WAT    HW225373   0.661   4.421   3.033
 5075WAT    LP125374   0.749   4.451   3.134
 5075WAT    LP225375   0.654   4.514   3.134
 5076WAT     OW25376   3.533   6.192   5.399
 5076WAT    HW125377   3.608   6.166   5.347
 5076WAT    HW225378   3.563   6.267   5.450
 5076WAT    LP125379   3.479   6.210   5.357
 5076WAT    LP225380   3.512   6.140   5.441
 5077WAT     OW25381   2.789   0.126   2.963
 5077WAT    HW125382   2.756   0.045   3.003
 5077WAT    HW225383   2.866   0.149   3.015
 5077WAT    LP125384   2.807   0.114   2.896
 5077WAT    LP225385   2.741   0.176   2.966
 5078WAT     OW25386   3.489   3.225   2.527
 5078WAT    HW125387   3.397   3.207   2.546
 5078WAT    HW225388   3.494   3.232   2.432
 5078WAT    LP125389   3.510   3.284   2.558
 5078WAT    LP225390   3.530   3.172   2.550
 5079WAT     OW25391   2.011   0.613   3.568
 5079WAT    HW125392   2.054   0.595   3.651
 5079WAT    HW225393   1.951   0.685   3.588
 5079WAT    LP125394   2.058   0.633   3.520
 5079WAT    LP225395   1.976   0.557   3.545
 5080WAT     OW25396   2.108   1.034   3.479
 5080WAT    HW125397   2.085   1.027   3.572
 5080WAT    HW225398   2.203   1.037   3.478
 5080WAT    LP125399   2.084   0.979   3.443
 5080WAT    LP225400   2.081   1.093   3.451
 5081WAT     OW25401   0.650   4.867   6.559
 5081WAT    HW125402   0.642   4.935   6.493
 5081WAT    HW225403   0.677   4.913   6.639
 5081WAT    LP125404   0.588   4.835   6.570
 5081WAT    LP225405   0.697   4.819   6.540
 5082WAT     OW25406   1.937   2.790   3.621
 5082WAT    HW125407   1.872   2.720   3.625
 5082WAT    HW225408   1.922   2.841   3.701
 5082WAT    LP125409   2.002   2.763   3.621
 5082WAT    LP225410   1.928   2.830   3.565
 5083WAT     OW25411   4.823   6.552   3.989
 5083WAT    HW125412   4.813   6.466   3.949
 5083WAT    HW225413   4.798   6.614   3.921
 5083WAT    LP125414   4.781   6.558   4.045
 5083WAT    LP225415   4.890   6.563   4.009
 5084WAT     OW25416   1.075   4.440   2.822
 5084WAT    HW125417   0.982   4.417   2.823
 5084WAT    HW225418   1.088   4.484   2.738
 5084WAT    LP125419   1.090   4.483   2.875
 5084WAT    LP225420   1.114   4.383   2.826
 5085WAT     OW25421   1.595   0.836   6.511
 5085WAT    HW125422   1.525   0.843   6.576
 5085WAT    HW225423   1.587   0.915   6.458
 5085WAT    LP125424   1.658   0.834   6.543
 5085WAT    LP225425   1.587   0.779   6.472
 5086WAT     OW25426   6.385   0.742   3.714
 5086WAT    HW125427   6.343   0.758   3.629
 5086WAT    HW225428   6.315   0.759   3.778
 5086WAT    LP125429   6.407   0.676   3.719
 5086WAT    LP225430   6.439   0.786   3.724
 5087WAT     OW25431   4.742   3.760   4.495
 5087WAT    HW125432   4.827   3.755   4.538
 5087WAT    HW225433   4.683   3.797   4.561
 5087WAT    LP125434   4.745   3.802   4.439
 5087WAT    LP225435   4.720   3.697   4.476
 5088WAT     OW25436   2.758   6.304   4.095
 5088WAT    HW125437   2.718   6.330   4.178
 5088WAT    HW225438   2.801   6.220   4.114
 5088WAT    LP125439   2.710   6.297   4.045
 5088WAT    LP225440   2.806   6.352   4.075
 5089WAT     OW25441   6.390   3.441   2.865
 5089WAT    HW125442   6.361   3.470   2.951
 5089WAT    HW225443   6.355   3.508   2.805
 5089WAT    LP125444   6.460   3.439   2.861
 5089WAT    LP225445   6.363   3.378   2.849
 5090WAT     OW25446   3.957   1.144   6.566
 5090WAT    HW125447   3.896   1.136   6.493
 5090WAT    HW225448   4.021   1.209   6.536
 5090WAT    LP125449   3.924   1.165   6.623
 5090WAT    LP225450   3.989   1.083   6.578
 5091WAT     OW25451   5.417   5.316   3.310
 5091WAT    HW125452   5.460   5.341   3.392
 5091WAT    HW225453   5.349   5.253   3.336
 5091WAT    LP125454   5.389   5.372   3.279
 5091WAT    LP225455   5.463   5.286   3.266
 5092WAT     OW25456   1.192   6.084   3.125
 5092WAT    HW125457   1.196   6.039   3.210
 5092WAT    HW225458   1.283   6.100   3.102
 5092WAT    LP125459   1.160   6.044   3.077
 5092WAT    LP225460   1.157   6.145   3.132
 5093WAT     OW25461   2.197   3.504   3.703
 5093WAT    HW125462   2.255   3.580   3.706
 5093WAT    HW225463   2.110   3.538   3.726
 5093WAT    LP125464   2.196   3.476   3.639
 5093WAT    LP225465   2.217   3.456   3.750
 5094WAT     OW25466   1.386   3.303   3.190
 5094WAT    HW125467   1.475   3.300   3.226
 5094WAT    HW225468   1.397   3.343   3.104
 5094WAT    LP125469   1.361   3.238   3.183
 5094WAT    LP225470   1.344   3.341   3.230
 5095WAT     OW25471   4.279   2.732   2.567
 5095WAT    HW125472   4.321   2.810   2.530
 5095WAT    HW225473   4.226   2.765   2.640
 5095WAT    LP125474   4.238   2.702   2.519
 5095WAT    LP225475   4.327   2.687   2.590
 5096WAT     OW25476   6.182   0.852   1.085
 5096WAT    HW125477   6.129   0.829   1.161
 5096WAT    HW225478   6.272   0.839   1.114
 5096WAT    LP125479   6.168   0.810   1.031
 5096WAT    LP225480   6.172   0.919   1.066
 5097WAT     OW25481   0.314   3.858   6.290
 5097WAT    HW125482   0.399   3.894   6.266
 5097WAT    HW225483   0.322   3.764   6.271
 5097WAT    LP125484   0.301   3.868   6.358
 5097WAT    LP225485   0.263   3.886   6.252
 5098WAT     OW25486   0.283   4.842   4.605
 5098WAT    HW125487   0.339   4.779   4.559
 5098WAT    HW225488   0.299   4.824   4.698
 5098WAT    LP125489   0.302   4.908   4.590
 5098WAT    LP225490   0.216   4.833   4.589
 5099WAT     OW25491   5.697   3.702   4.379
 5099WAT    HW125492   5.733   3.638   4.441
 5099WAT    HW225493   5.665   3.774   4.435
 5099WAT    LP125494   5.747   3.726   4.335
 5099WAT    LP225495   5.645   3.674   4.342
 5100WAT     OW25496   6.196   3.449   5.459
 5100WAT    HW125497   6.249   3.396   5.400
 5100WAT    HW225498   6.107   3.442   5.424
 5100WAT    LP125499   6.199   3.424   5.525
 5100WAT    LP225500   6.217   3.516   5.458
 5101WAT     OW25501   1.289   6.222   5.958
 5101WAT    HW125502   1.245   6.230   5.873
 5101WAT    HW225503   1.376   6.261   5.944
 5101WAT    LP125504   1.254   6.256   6.008
 5101WAT    LP225505   1.296   6.154   5.976
 5102WAT     OW25506   5.818   4.512   1.543
 5102WAT    HW125507   5.843   4.545   1.457
 5102WAT    HW225508   5.901   4.500   1.589
 5102WAT    LP125509   5.778   4.559   1.577
 5102WAT    LP225510   5.784   4.452   1.537
 5103WAT     OW25511   5.894   3.559   2.921
 5103WAT    HW125512   5.807   3.521   2.924
 5103WAT    HW225513   5.949   3.500   2.973
 5103WAT    LP125514   5.918   3.563   2.855
 5103WAT    LP225515   5.894   3.623   2.950
 5104WAT     OW25516   6.290   4.711   1.812
 5104WAT    HW125517   6.200   4.724   1.784
 5104WAT    HW225518   6.331   4.797   1.802
 5104WAT    LP125519   6.292   4.691   1.879
 5104WAT    LP225520   6.322   4.664   1.772
 5105WAT     OW25521   1.531   4.657   1.882
 5105WAT    HW125522   1.492   4.583   1.928
 5105WAT    HW225523   1.463   4.684   1.820
 5105WAT    LP125524   1.546   4.709   1.926
 5105WAT    LP225525   1.589   4.637   1.848
 5106WAT     OW25526   5.121   5.281   3.033
 5106WAT    HW125527   5.076   5.323   2.960
 5106WAT    HW225528   5.171   5.353   3.073
 5106WAT    LP125529   5.076   5.254   3.079
 5106WAT    LP225530   5.164   5.231   3.010
 5107WAT     OW25531   6.592   6.538   1.162
 5107WAT    HW125532   6.585   6.499   1.249
 5107WAT    HW225533   6.685   6.533   1.140
 5107WAT    LP125534   6.554   6.502   1.115
 5107WAT    LP225535   6.571   6.605   1.163
 5108WAT     OW25536   5.199   4.514   6.546
 5108WAT    HW125537   5.257   4.560   6.607
 5108WAT    HW225538   5.112   4.551   6.563
 5108WAT    LP125539   5.219   4.525   6.480
 5108WAT    LP225540   5.199   4.445   6.559
 5109WAT     OW25541   4.909   4.710   3.625
 5109WAT    HW125542   4.869   4.789   3.589
 5109WAT    HW225543   4.847   4.680   3.692
 5109WAT    LP125544   4.917   4.661   3.576
 5109WAT    LP225545   4.971   4.725   3.654
 5110WAT     OW25546   0.870   0.196   5.540
 5110WAT    HW125547   0.935   0.261   5.565
 5110WAT    HW225548   0.848   0.151   5.621
 5110WAT    LP125549   0.814   0.226   5.512
 5110WAT    LP225550   0.897   0.150   5.493
 5111WAT     OW25551   4.848   0.480   3.282
 5111WAT    HW125552   4.931   0.513   3.248
 5111WAT    HW225553   4.820   0.547   3.344
 5111WAT    LP125554   4.801   0.473   3.231
 5111WAT    LP225555   4.857   0.418   3.314
 5112WAT     OW25556   0.215   5.158   2.232
 5112WAT    HW125557   0.176   5.224   2.289
 5112WAT    HW225558   0.149   5.089   2.225
 5112WAT    LP125559   0.230   5.185   2.169
 5112WAT    LP225560   0.274   5.132   2.261
 5113WAT     OW25561   1.717   4.710   2.924
 5113WAT    HW125562   1.808   4.696   2.950
 5113WAT    HW225563   1.672   4.630   2.950
 5113WAT    LP125564   1.690   4.765   2.958
 5113WAT    LP225565   1.711   4.720   2.855
 5114WAT     OW25566   1.201   0.443   0.349
 5114WAT    HW125567   1.265   0.476   0.286
 5114WAT    HW225568   1.234   0.356   0.374
 5114WAT    LP125569   1.198   0.485   0.405
 5114WAT    LP225570   1.138   0.437   0.320
 5115WAT     OW25571   1.367   0.707   2.878
 5115WAT    HW125572   1.442   0.675   2.829
 5115WAT    HW225573   1.297   0.714   2.812
 5115WAT    LP125574   1.348   0.662   2.928
 5115WAT    LP225575   1.380   0.769   2.907
 5116WAT     OW25576   6.036   6.217   4.879
 5116WAT    HW125577   6.105   6.180   4.934
 5116WAT    HW225578   5.980   6.143   4.857
 5116WAT    LP125579   6.000   6.265   4.914
 5116WAT    LP225580   6.063   6.246   4.821
 5117WAT     OW25581   1.730   4.293   3.465
 5117WAT    HW125582   1.723   4.388   3.452
 5117WAT    HW225583   1.686   4.255   3.390
 5117WAT    LP125584   1.798   4.274   3.467
 5117WAT    LP225585   1.699   4.274   3.525
 5118WAT     OW25586   2.860   3.400   2.916
 5118WAT    HW125587   2.781   3.408   2.862
 5118WAT    HW225588   2.829   3.411   3.006
 5118WAT    LP125589   2.890   3.338   2.907
 5118WAT    LP225590   2.906   3.451   2.899
 5119WAT     OW25591   3.752   6.623   3.778
 5119WAT    HW125592   3.839   6.661   3.791
 5119WAT    HW225593   3.732   6.579   3.860
 5119WAT    LP125594   3.705   6.673   3.764
 5119WAT    LP225595   3.753   6.577   3.725
 5120WAT     OW25596   6.617   1.192   5.281
 5120WAT    HW125597   6.561   1.127   5.324
 5120WAT    HW225598   6.622   1.163   5.190
 5120WAT    LP125599   6.588   1.255   5.285
 5120WAT    LP225600   6.681   1.193   5.310
 5121WAT     OW25601   1.635   1.415   1.495
 5121WAT    HW125602   1.638   1.430   1.401
 5121WAT    HW225603   1.724   1.390   1.519
 5121WAT    LP125604   1.616   1.473   1.529
 5121WAT    LP225605   1.590   1.363   1.511
 5122WAT     OW25606   2.329   4.972   5.695
 5122WAT    HW125607   2.401   4.920   5.657
 5122WAT    HW225608   2.297   5.025   5.622
 5122WAT    LP125609   2.279   4.930   5.719
 5122WAT    LP225610   2.353   5.013   5.746
 5123WAT     OW25611   4.944   0.479   2.018
 5123WAT    HW125612   5.005   0.409   1.995
 5123WAT    HW225613   4.932   0.527   1.936
 5123WAT    LP125614   4.883   0.453   2.040
 5123WAT    LP225615   4.972   0.521   2.067
 5124WAT     OW25616   4.315   0.536   1.874
 5124WAT    HW125617   4.377   0.588   1.925
 5124WAT    HW225618   4.237   0.530   1.929
 5124WAT    LP125619   4.300   0.567   1.813
 5124WAT    LP225620   4.341   0.472   1.862
 5125WAT     OW25621   2.103   5.901   6.631
 5125WAT    HW125622   2.054   5.825   6.661
 5125WAT    HW225623   2.042   5.949   6.574
 5125WAT    LP125624   2.123   5.941   6.684
 5125WAT    LP225625   2.160   5.881   6.594
 5126WAT     OW25626   2.261   3.649   4.053
 5126WAT    HW125627   2.213   3.660   3.971
 5126WAT    HW225628   2.331   3.714   4.049
 5126WAT    LP125629   2.219   3.662   4.108
 5126WAT    LP225630   2.287   3.584   4.058
 5127WAT     OW25631   4.771   0.597   1.542
 5127WAT    HW125632   4.834   0.566   1.476
 5127WAT    HW225633   4.820   0.596   1.624
 5127WAT    LP125634   4.749   0.661   1.527
 5127WAT    LP225635   4.716   0.554   1.545
 5128WAT     OW25636   3.963   2.336   3.673
 5128WAT    HW125637   3.983   2.299   3.759
 5128WAT    HW225638   4.047   2.336   3.627
 5128WAT    LP125639   3.916   2.297   3.639
 5128WAT    LP225640   3.939   2.402   3.679
 5129WAT     OW25641   5.534   0.260   5.195
 5129WAT    HW125642   5.541   0.348   5.231
 5129WAT    HW225643   5.599   0.209   5.245
 5129WAT    LP125644   5.470   0.234   5.204
 5129WAT    LP225645   5.550   0.259   5.127
 5130WAT     OW25646   2.805   2.719   6.053
 5130WAT    HW125647   2.758   2.646   6.093
 5130WAT    HW225648   2.831   2.774   6.127
 5130WAT    LP125649   2.862   2.696   6.019
 5130WAT    LP225650   2.764   2.754   6.010
 5131WAT     OW25651   6.707   1.711   2.943
 5131WAT    HW125652   6.680   1.635   2.893
 5131WAT    HW225653   6.748   1.675   3.021
 5131WAT    LP125654   6.754   1.749   2.906
 5131WAT    LP225655   6.652   1.751   2.959
 5132WAT     OW25656   5.305   0.409   4.451
 5132WAT    HW125657   5.246   0.334   4.460
 5132WAT    HW225658   5.254   0.483   4.486
 5132WAT    LP125659   5.363   0.399   4.488
 5132WAT    LP225660   5.321   0.420   4.384
 5133WAT     OW25661   5.364   1.181   4.524
 5133WAT    HW125662   5.329   1.108   4.576
 5133WAT    HW225663   5.300   1.192   4.453
 5133WAT    LP125664   5.369   1.239   4.563
 5133WAT    LP225665   5.427   1.165   4.498
 5134WAT     OW25666   4.047   0.778   5.041
 5134WAT    HW125667   4.113   0.830   5.087
 5134WAT    HW225668   3.979   0.763   5.107
 5134WAT    LP125669   4.022   0.812   4.986
 5134WAT    LP225670   4.074   0.717   5.020
 5135WAT     OW25671   6.400   4.377   0.348
 5135WAT    HW125672   6.416   4.345   0.259
 5135WAT    HW225673   6.477   4.350   0.398
 5135WAT    LP125674   6.393   4.447   0.348
 5135WAT    LP225675   6.342   4.348   0.374
 5136WAT     OW25676   1.538   2.794   2.908
 5136WAT    HW125677   1.546   2.706   2.946
 5136WAT    HW225678   1.580   2.852   2.971
 5136WAT    LP125679   1.570   2.797   2.846
 5136WAT    LP225680   1.470   2.811   2.900
 5137WAT     OW25681   5.756   5.045   1.642
 5137WAT    HW125682   5.669   5.039   1.602
 5137WAT    HW225683   5.806   4.974   1.603
 5137WAT    LP125684   5.785   5.107   1.627
 5137WAT    LP225685   5.752   5.038   1.711
 5138WAT     OW25686   6.119   2.589   6.404
 5138WAT    HW125687   6.087   2.635   6.481
 5138WAT    HW225688   6.212   2.612   6.398
 5138WAT    LP125689   6.112   2.519   6.412
 5138WAT    LP225690   6.085   2.609   6.346
 5139WAT     OW25691   6.069   5.968   0.237
 5139WAT    HW125692   6.015   6.030   0.188
 5139WAT    HW225693   6.024   5.884   0.227
 5139WAT    LP125694   6.134   5.965   0.211
 5139WAT    LP225695   6.071   5.986   0.305
 5140WAT     OW25696   0.853   3.081   0.019
 5140WAT    HW125697   0.809   3.001   0.049
 5140WAT    HW225698   0.946   3.058   0.014
 5140WAT    LP125699   0.829   3.100  -0.044
 5140WAT    LP225700   0.843   3.133   0.065
 5141WAT     OW25701   3.683   0.530   3.607
 5141WAT    HW125702   3.637   0.456   3.567
 5141WAT    HW225703   3.671   0.602   3.545
 5141WAT    LP125704   3.655   0.546   3.669
 5141WAT    LP225705   3.751   0.515   3.615
 5142WAT     OW25706   0.145   5.716   0.002
 5142WAT    HW125707   0.200   5.642   0.025
 5142WAT    HW225708   0.112   5.696  -0.086
 5142WAT    LP125709   0.092   5.723   0.047
 5142WAT    LP225710   0.182   5.775   0.001
 5143WAT     OW25711   5.793   6.583   0.977
 5143WAT    HW125712   5.802   6.577   0.882
 5143WAT    HW225713   5.866   6.531   1.011
 5143WAT    LP125714   5.797   6.649   0.998
 5143WAT    LP225715   5.732   6.555   0.998
 5144WAT     OW25716   3.985   1.982   6.384
 5144WAT    HW125717   3.892   1.962   6.393
 5144WAT    HW225718   4.022   1.903   6.344
 5144WAT    LP125719   3.995   2.037   6.342
 5144WAT    LP225720   4.014   1.994   6.446
 5145WAT     OW25721   3.511   5.881   2.152
 5145WAT    HW125722   3.552   5.935   2.085
 5145WAT    HW225723   3.556   5.904   2.233
 5145WAT    LP125724   3.443   5.895   2.157
 5145WAT    LP225725   3.519   5.813   2.137
 5146WAT     OW25726   2.644   0.793   4.190
 5146WAT    HW125727   2.673   0.860   4.129
 5146WAT    HW225728   2.595   0.731   4.137
 5146WAT    LP125729   2.699   0.762   4.220
 5146WAT    LP225730   2.603   0.821   4.240
 5147WAT     OW25731   2.817   3.425   3.184
 5147WAT    HW125732   2.897   3.382   3.215
 5147WAT    HW225733   2.820   3.512   3.224
 5147WAT    LP125734   2.818   3.429   3.114
 5147WAT    LP225735   2.761   3.390   3.205
 5148WAT     OW25736   6.717   1.981   0.107
 5148WAT    HW125737   6.655   1.909   0.097
 5148WAT    HW225738   6.765   1.982   0.024
 5148WAT    LP125739   6.684   2.041   0.117
 5148WAT    LP225740   6.761   1.969   0.160
 5149WAT     OW25741   2.669   0.587   0.108
 5149WAT    HW125742   2.579   0.615   0.126
 5149WAT    HW225743   2.707   0.570   0.195
 5149WAT    LP125744   2.669   0.528   0.070
 5149WAT    LP225745   2.704   0.637   0.075
 5150WAT     OW25746   3.654   5.815   6.380
 5150WAT    HW125747   3.627   5.884   6.319
 5150WAT    HW225748   3.573   5.772   6.405
 5150WAT    LP125749   3.697   5.770   6.348
 5150WAT    LP225750   3.686   5.843   6.435
 5151WAT     OW25751   4.489   3.474   1.493
 5151WAT    HW125752   4.499   3.566   1.518
 5151WAT    HW225753   4.454   3.432   1.572
 5151WAT    LP125754   4.445   3.468   1.439
 5151WAT    LP225755   4.551   3.447   1.476
 5152WAT     OW25756   3.431   2.347   6.439
 5152WAT    HW125757   3.354   2.290   6.432
 5152WAT    HW225758   3.427   2.401   6.360
 5152WAT    LP125759   3.427   2.386   6.497
 5152WAT    LP225760   3.490   2.309   6.440
 5153WAT     OW25761   6.007   3.721   1.197
 5153WAT    HW125762   6.063   3.656   1.240
 5153WAT    HW225763   6.069   3.778   1.152
 5153WAT    LP125764   5.964   3.691   1.151
 5153WAT    LP225765   5.970   3.757   1.244
 5154WAT     OW25766   4.497   5.596   4.291
 5154WAT    HW125767   4.567   5.545   4.332
 5154WAT    HW225768   4.449   5.635   4.364
 5154WAT    LP125769   4.524   5.646   4.250
 5154WAT    LP225770   4.456   5.554   4.253
 5155WAT     OW25771   2.952   4.867   1.592
 5155WAT    HW125772   3.003   4.863   1.673
 5155WAT    HW225773   2.876   4.811   1.609
 5155WAT    LP125774   2.932   4.933   1.579
 5155WAT    LP225775   2.989   4.843   1.538
 5156WAT     OW25776   5.068   1.841   1.310
 5156WAT    HW125777   5.068   1.754   1.348
 5156WAT    HW225778   4.976   1.861   1.292
 5156WAT    LP125779   5.095   1.888   1.355
 5156WAT    LP225780   5.106   1.842   1.251
 5157WAT     OW25781   5.693   2.248   3.271
 5157WAT    HW125782   5.757   2.221   3.337
 5157WAT    HW225783   5.614   2.267   3.322
 5157WAT    LP125784   5.716   2.305   3.237
 5157WAT    LP225785   5.681   2.197   3.225
 5158WAT     OW25786   3.409   0.771   4.167
 5158WAT    HW125787   3.455   0.747   4.086
 5158WAT    HW225788   3.478   0.802   4.226
 5158WAT    LP125789   3.362   0.821   4.154
 5158WAT    LP225790   3.377   0.715   4.194
 5159WAT     OW25791   6.605   1.312   5.835
 5159WAT    HW125792   6.692   1.309   5.876
 5159WAT    HW225793   6.611   1.384   5.772
 5159WAT    LP125794   6.591   1.252   5.802
 5159WAT    LP225795   6.556   1.325   5.883
 5160WAT     OW25796   0.098   2.551   6.313
 5160WAT    HW125797   0.083   2.526   6.222
 5160WAT    HW225798   0.027   2.612   6.333
 5160WAT    LP125799   0.095   2.496   6.355
 5160WAT    LP225800   0.160   2.583   6.320
 5161WAT     OW25801   4.547   3.008   4.655
 5161WAT    HW125802   4.638   2.989   4.633
 5161WAT    HW225803   4.497   2.982   4.578
 5161WAT    LP125804   4.527   2.971   4.711
 5161WAT    LP225805   4.539   3.077   4.668
 5162WAT     OW25806   0.390   1.316   0.070
 5162WAT    HW125807   0.400   1.236   0.123
 5162WAT    HW225808   0.296   1.335   0.073
 5162WAT    LP125809   0.427   1.368   0.097
 5162WAT    LP225810   0.411   1.304   0.004
 5163WAT     OW25811   3.827   1.112   2.471
 5163WAT    HW125812   3.885   1.130   2.397
 5163WAT    HW225813   3.739   1.124   2.435
 5163WAT    LP125814   3.836   1.047   2.494
 5163WAT    LP225815   3.839   1.158   2.523
 5164WAT     OW25816   1.002   1.388   4.790
 5164WAT    HW125817   1.042   1.453   4.849
 5164WAT    HW225818   1.071   1.368   4.727
 5164WAT    LP125819   0.983   1.331   4.826
 5164WAT    LP225820   0.946   1.415   4.758
 5165WAT     OW25821   3.026   1.580   5.771
 5165WAT    HW125822   2.980   1.661   5.792
 5165WAT    HW225823   3.102   1.608   5.720
 5165WAT    LP125824   3.046   1.547   5.829
 5165WAT    LP225825   2.986   1.537   5.733
 5166WAT     OW25826   1.663   3.719   5.192
 5166WAT    HW125827   1.655   3.685   5.102
 5166WAT    HW225828   1.707   3.649   5.240
 5166WAT    LP125829   1.701   3.777   5.193
 5166WAT    LP225830   1.600   3.731   5.219
 5167WAT     OW25831   1.003   0.653   3.954
 5167WAT    HW125832   1.020   0.740   3.989
 5167WAT    HW225833   0.911   0.655   3.927
 5167WAT    LP125834   1.044   0.640   3.899
 5167WAT    LP225835   1.013   0.604   4.003
 5168WAT     OW25836   2.788   4.366   3.918
 5168WAT    HW125837   2.751   4.278   3.929
 5168WAT    HW225838   2.862   4.370   3.979
 5168WAT    LP125839   2.810   4.376   3.852
 5168WAT    LP225840   2.740   4.415   3.934
 5169WAT     OW25841   2.738   1.052   5.088
 5169WAT    HW125842   2.790   1.040   5.168
 5169WAT    HW225843   2.700   0.966   5.072
 5169WAT    LP125844   2.688   1.100   5.098
 5169WAT    LP225845   2.779   1.071   5.035
 5170WAT     OW25846   2.880   1.110   6.617
 5170WAT    HW125847   2.899   1.072   6.532
 5170WAT    HW225848   2.847   1.198   6.598
 5170WAT    LP125849   2.831   1.073   6.651
 5170WAT    LP225850   2.938   1.113   6.656
 5171WAT     OW25851   3.743   1.559   4.371
 5171WAT    HW125852   3.680   1.505   4.324
 5171WAT    HW225853   3.825   1.552   4.321
 5171WAT    LP125854   3.722   1.626   4.373
 5171WAT    LP225855   3.752   1.536   4.436
 5172WAT     OW25856   3.520   5.646   1.846
 5172WAT    HW125857   3.447   5.701   1.818
 5172WAT    HW225858   3.503   5.626   1.938
 5172WAT    LP125859   3.523   5.588   1.808
 5172WAT    LP225860   3.581   5.681   1.839
 5173WAT     OW25861   4.080   1.789   5.654
 5173WAT    HW125862   4.084   1.716   5.716
 5173WAT    HW225863   4.102   1.751   5.569
 5173WAT    LP125864   4.015   1.817   5.653
 5173WAT    LP225865   4.126   1.839   5.672
 5174WAT     OW25866   2.205   6.343   2.451
 5174WAT    HW125867   2.286   6.321   2.406
 5174WAT    HW225868   2.221   6.319   2.542
 5174WAT    LP125869   2.192   6.412   2.446
 5174WAT    LP225870   2.151   6.307   2.425
 5175WAT     OW25871   2.909   5.438   1.595
 5175WAT    HW125872   2.893   5.532   1.602
 5175WAT    HW225873   2.921   5.423   1.502
 5175WAT    LP125874   2.967   5.421   1.631
 5175WAT    LP225875   2.855   5.402   1.620
 5176WAT     OW25876   3.006   2.336   6.351
 5176WAT    HW125877   2.939   2.371   6.409
 5176WAT    HW225878   3.053   2.413   6.318
 5176WAT    LP125879   3.050   2.294   6.387
 5176WAT    LP225880   2.978   2.300   6.298
 5177WAT     OW25881   5.768   2.878   2.948
 5177WAT    HW125882   5.733   2.847   3.032
 5177WAT    HW225883   5.799   2.799   2.905
 5177WAT    LP125884   5.718   2.909   2.911
 5177WAT    LP225885   5.821   2.923   2.958
 5178WAT     OW25886   4.931   0.679   6.583
 5178WAT    HW125887   4.955   0.588   6.602
 5178WAT    HW225888   4.907   0.716   6.667
 5178WAT    LP125889   4.986   0.714   6.555
 5178WAT    LP225890   4.877   0.681   6.538
 5179WAT     OW25891   6.258   3.980   4.543
 5179WAT    HW125892   6.290   3.892   4.521
 5179WAT    HW225893   6.165   3.968   4.559
 5179WAT    LP125894   6.290   4.004   4.600
 5179WAT    LP225895   6.269   4.024   4.490
 5180WAT     OW25896   4.087   3.028   3.475
 5180WAT    HW125897   4.176   3.027   3.441
 5180WAT    HW225898   4.052   2.942   3.452
 5180WAT    LP125899   4.087   3.037   3.544
 5180WAT    LP225900   4.049   3.078   3.444
 5181WAT     OW25901   0.469   2.450   5.298
 5181WAT    HW125902   0.524   2.529   5.300
 5181WAT    HW225903   0.527   2.380   5.327
 5181WAT    LP125904   0.414   2.457   5.341
 5181WAT    LP225905   0.446   2.438   5.233
 5182WAT     OW25906   4.705   4.173   0.145
 5182WAT    HW125907   4.681   4.112   0.075
 5182WAT    HW225908   4.760   4.239   0.102
 5182WAT    LP125909   4.648   4.202   0.173
 5182WAT    LP225910   4.741   4.139   0.195
 5183WAT     OW25911   2.361   3.665   3.325
 5183WAT    HW125912   2.293   3.698   3.383
 5183WAT    HW225913   2.354   3.719   3.246
 5183WAT    LP125914   2.424   3.673   3.354
 5183WAT    LP225915   2.350   3.598   3.310
 5184WAT     OW25916   2.699   1.789   3.210
 5184WAT    HW125917   2.764   1.754   3.271
 5184WAT    HW225918   2.654   1.857   3.260
 5184WAT    LP125919   2.730   1.817   3.154
 5184WAT    LP225920   2.654   1.739   3.190
 5185WAT     OW25921   5.591   0.694   5.633
 5185WAT    HW125922   5.593   0.692   5.729
 5185WAT    HW225923   5.670   0.742   5.609
 5185WAT    LP125924   5.592   0.630   5.607
 5185WAT    LP225925   5.534   0.728   5.610
 5186WAT     OW25926   0.166   5.900   0.722
 5186WAT    HW125927   0.074   5.911   0.698
 5186WAT    HW225928   0.199   5.832   0.663
 5186WAT    LP125929   0.201   5.960   0.712
 5186WAT    LP225930   0.172   5.880   0.789
 5187WAT     OW25931   6.595   4.868   1.181
 5187WAT    HW125932   6.523   4.807   1.166
 5187WAT    HW225933   6.599   4.922   1.102
 5187WAT    LP125934   6.582   4.907   1.238
 5187WAT    LP225935   6.656   4.833   1.191
 5188WAT     OW25936   1.265   6.332   4.166
 5188WAT    HW125937   1.258   6.241   4.193
 5188WAT    HW225938   1.346   6.363   4.208
 5188WAT    LP125939   1.270   6.337   4.097
 5188WAT    LP225940   1.210   6.369   4.189
 5189WAT     OW25941   2.922   6.092   5.899
 5189WAT    HW125942   2.932   6.054   5.986
 5189WAT    HW225943   2.951   6.023   5.839
 5189WAT    LP125944   2.855   6.109   5.886
 5189WAT    LP225945   2.962   6.149   5.892
 5190WAT     OW25946   6.311   6.394   2.315
 5190WAT    HW125947   6.373   6.410   2.244
 5190WAT    HW225948   6.311   6.298   2.325
 5190WAT    LP125949   6.332   6.425   2.374
 5190WAT    LP225950   6.247   6.417   2.298
 5191WAT     OW25951   4.300   1.100   4.092
 5191WAT    HW125952   4.284   1.099   4.186
 5191WAT    HW225953   4.288   1.009   4.064
 5191WAT    LP125954   4.255   1.142   4.059
 5191WAT    LP225955   4.365   1.121   4.078
 5192WAT     OW25956   5.933   0.099   3.791
 5192WAT    HW125957   5.938   0.184   3.834
 5192WAT    HW225958   5.934   0.120   3.697
 5192WAT    LP125959   5.989   0.060   3.807
 5192WAT    LP225960   5.874   0.066   3.808
 5193WAT     OW25961   5.024   1.598   1.700
 5193WAT    HW125962   4.970   1.658   1.751
 5193WAT    HW225963   5.114   1.616   1.729
 5193WAT    LP125964   5.007   1.532   1.714
 5193WAT    LP225965   5.018   1.610   1.632
 5194WAT     OW25966   5.266   5.061   4.269
 5194WAT    HW125967   5.304   5.141   4.305
 5194WAT    HW225968   5.337   5.023   4.216
 5194WAT    LP125969   5.247   5.018   4.320
 5194WAT    LP225970   5.211   5.076   4.229
 5195WAT     OW25971   0.356   2.372   6.569
 5195WAT    HW125972   0.269   2.335   6.557
 5195WAT    HW225973   0.365   2.436   6.498
 5195WAT    LP125974   0.362   2.402   6.631
 5195WAT    LP225975   0.405   2.322   6.562
 5196WAT     OW25976   0.230   4.557   0.636
 5196WAT    HW125977   0.324   4.549   0.619
 5196WAT    HW225978   0.202   4.631   0.582
 5196WAT    LP125979   0.196   4.499   0.618
 5196WAT    LP225980   0.218   4.571   0.704
 5197WAT     OW25981   1.064   1.527   5.578
 5197WAT    HW125982   1.017   1.445   5.560
 5197WAT    HW225983   1.156   1.503   5.576
 5197WAT    LP125984   1.049   1.575   5.528
 5197WAT    LP225985   1.046   1.553   5.640
 5198WAT     OW25986   0.300   3.850   3.313
 5198WAT    HW125987   0.228   3.896   3.271
 5198WAT    HW225988   0.310   3.893   3.398
 5198WAT    LP125989   0.284   3.782   3.322
 5198WAT    LP225990   0.358   3.855   3.276
 5199WAT     OW25991   3.726   0.757   1.528
 5199WAT    HW125992   3.792   0.819   1.497
 5199WAT    HW225993   3.685   0.723   1.449
 5199WAT    LP125994   3.756   0.706   1.565
 5199WAT    LP225995   3.679   0.790   1.569
 5200WAT     OW25996   1.124   1.720   5.773
 5200WAT    HW125997   1.160   1.673   5.848
 5200WAT    HW225998   1.083   1.652   5.720
 5200WAT    LP125999   1.077   1.768   5.794
 5200WAT    LP226000   1.175   1.752   5.737
 5201WAT     OW26001   6.687   5.482   0.985
 5201WAT    HW126002   6.703   5.556   0.925
 5201WAT    HW226003   6.697   5.519   1.072
 5201WAT    LP126004   6.623   5.456   0.976
 5201WAT    LP226005   6.735   5.431   0.974
 5202WAT     OW26006   4.252   2.373   4.270
 5202WAT    HW126007   4.230   2.398   4.359
 5202WAT    HW226008   4.345   2.394   4.262
 5202WAT    LP126009   4.241   2.304   4.260
 5202WAT    LP226010   4.214   2.409   4.223
 5203WAT     OW26011   0.849   5.012   1.289
 5203WAT    HW126012   0.757   5.038   1.281
 5203WAT    HW226013   0.873   5.037   1.379
 5203WAT    LP126014   0.857   4.943   1.280
 5203WAT    LP226015   0.889   5.047   1.243
 5204WAT     OW26016   4.180   0.561   4.151
 5204WAT    HW126017   4.155   0.511   4.229
 5204WAT    HW226018   4.257   0.515   4.117
 5204WAT    LP126019   4.129   0.561   4.104
 5204WAT    LP226020   4.196   0.627   4.168
 5205WAT     OW26021   1.345   4.582   6.510
 5205WAT    HW126022   1.332   4.524   6.434
 5205WAT    HW226023   1.430   4.555   6.545
 5205WAT    LP126024   1.347   4.649   6.489
 5205WAT    LP226025   1.294   4.573   6.557
 5206WAT     OW26026   6.439   1.181   3.688
 5206WAT    HW126027   6.436   1.170   3.593
 5206WAT    HW226028   6.374   1.119   3.721
 5206WAT    LP126029   6.503   1.165   3.713
 5206WAT    LP226030   6.423   1.246   3.707
 5207WAT     OW26031   3.718   3.834   6.558
 5207WAT    HW126032   3.806   3.832   6.598
 5207WAT    HW226033   3.660   3.808   6.630
 5207WAT    LP126034   3.703   3.898   6.535
 5207WAT    LP226035   3.715   3.788   6.505
 5208WAT     OW26036   4.496   4.902   0.455
 5208WAT    HW126037   4.444   4.833   0.495
 5208WAT    HW226038   4.575   4.907   0.508
 5208WAT    LP126039   4.511   4.886   0.389
 5208WAT    LP226040   4.462   4.963   0.457
 5209WAT     OW26041   3.315   2.789   0.921
 5209WAT    HW126042   3.263   2.869   0.910
 5209WAT    HW226043   3.395   2.818   0.965
 5209WAT    LP126044   3.280   2.742   0.960
 5209WAT    LP226045   3.329   2.760   0.859
 5210WAT     OW26046   3.021   3.554   4.349
 5210WAT    HW126047   3.096   3.498   4.330
 5210WAT    HW226048   2.956   3.494   4.386
 5210WAT    LP126049   3.039   3.603   4.395
 5210WAT    LP226050   2.997   3.584   4.291
 5211WAT     OW26051   2.646   3.961   5.081
 5211WAT    HW126052   2.710   3.988   5.146
 5211WAT    HW226053   2.696   3.951   5.000
 5211WAT    LP126054   2.616   3.900   5.099
 5211WAT    LP226055   2.596   4.009   5.073
 5212WAT     OW26056   4.339   4.761   1.368
 5212WAT    HW126057   4.267   4.812   1.404
 5212WAT    HW226058   4.417   4.812   1.388
 5212WAT    LP126059   4.342   4.698   1.398
 5212WAT    LP226060   4.331   4.753   1.298
 5213WAT     OW26061   1.112   2.996   6.646
 5213WAT    HW126062   1.169   3.062   6.607
 5213WAT    HW226063   1.157   2.969   6.726
 5213WAT    LP126064   1.049   3.024   6.662
 5213WAT    LP226065   1.103   2.942   6.603
 5214WAT     OW26066   2.239   3.984   1.499
 5214WAT    HW126067   2.238   3.895   1.534
 5214WAT    HW226068   2.270   3.974   1.409
 5214WAT    LP126069   2.175   4.012   1.501
 5214WAT    LP226070   2.283   4.025   1.536
 5215WAT     OW26071   3.706   4.985   4.710
 5215WAT    HW126072   3.748   5.070   4.699
 5215WAT    HW226073   3.729   4.959   4.799
 5215WAT    LP126074   3.637   4.989   4.702
 5215WAT    LP226075   3.732   4.939   4.664
 5216WAT     OW26076   2.019   3.232   1.204
 5216WAT    HW126077   2.053   3.199   1.121
 5216WAT    HW226078   1.926   3.245   1.189
 5216WAT    LP126079   2.029   3.185   1.255
 5216WAT    LP226080   2.051   3.292   1.222
 5217WAT     OW26081   4.506   4.321   0.276
 5217WAT    HW126082   4.575   4.266   0.240
 5217WAT    HW226083   4.455   4.262   0.332
 5217WAT    LP126084   4.534   4.373   0.314
 5217WAT    LP226085   4.467   4.348   0.225
 5218WAT     OW26086   2.560   5.634   4.490
 5218WAT    HW126087   2.565   5.589   4.574
 5218WAT    HW226088   2.651   5.637   4.459
 5218WAT    LP126089   2.521   5.598   4.445
 5218WAT    LP226090   2.534   5.699   4.498
 5219WAT     OW26091   2.655   6.418   4.320
 5219WAT    HW126092   2.699   6.501   4.341
 5219WAT    HW226093   2.562   6.437   4.329
 5219WAT    LP126094   2.670   6.398   4.255
 5219WAT    LP226095   2.675   6.368   4.365
 5220WAT     OW26096   2.720   1.655   4.898
 5220WAT    HW126097   2.729   1.568   4.861
 5220WAT    HW226098   2.797   1.666   4.954
 5220WAT    LP126099   2.720   1.704   4.848
 5220WAT    LP226100   2.661   1.660   4.936
 5221WAT     OW26101   4.259   3.708   3.599
 5221WAT    HW126102   4.296   3.677   3.516
 5221WAT    HW226103   4.202   3.781   3.573
 5221WAT    LP126104   4.221   3.658   3.630
 5221WAT    LP226105   4.309   3.731   3.642
 5222WAT     OW26106   4.604   1.598   1.229
 5222WAT    HW126107   4.602   1.506   1.254
 5222WAT    HW226108   4.660   1.601   1.151
 5222WAT    LP126109   4.540   1.622   1.214
 5222WAT    LP226110   4.631   1.637   1.280
 5223WAT     OW26111   6.515   3.759   6.435
 5223WAT    HW126112   6.485   3.849   6.429
 5223WAT    HW226113   6.498   3.721   6.349
 5223WAT    LP126114   6.583   3.756   6.450
 5223WAT    LP226115   6.479   3.724   6.485
 5224WAT     OW26116   2.260   1.364   0.601
 5224WAT    HW126117   2.286   1.397   0.515
 5224WAT    HW226118   2.173   1.401   0.616
 5224WAT    LP126119   2.257   1.294   0.600
 5224WAT    LP226120   2.305   1.385   0.650
 5225WAT     OW26121   6.586   0.709   2.693
 5225WAT    HW126122   6.530   0.647   2.645
 5225WAT    HW226123   6.544   0.794   2.681
 5225WAT    LP126124   6.590   0.692   2.761
 5225WAT    LP226125   6.651   0.709   2.666
 5226WAT     OW26126   2.994   4.040   6.155
 5226WAT    HW126127   2.917   4.026   6.210
 5226WAT    HW226128   3.035   4.120   6.189
 5226WAT    LP126129   3.038   3.986   6.160
 5226WAT    LP226130   2.976   4.048   6.088
 5227WAT     OW26131   2.233   2.277   0.400
 5227WAT    HW126132   2.204   2.289   0.309
 5227WAT    HW226133   2.266   2.187   0.403
 5227WAT    LP126134   2.283   2.322   0.416
 5227WAT    LP226135   2.179   2.285   0.444
 5228WAT     OW26136   5.935   5.268   2.890
 5228WAT    HW126137   5.892   5.352   2.873
 5228WAT    HW226138   5.996   5.287   2.962
 5228WAT    LP126139   5.888   5.220   2.910
 5228WAT    LP226140   5.969   5.245   2.834
 5229WAT     OW26141   6.243   4.422   4.673
 5229WAT    HW126142   6.246   4.345   4.730
 5229WAT    HW226143   6.265   4.495   4.731
 5229WAT    LP126144   6.290   4.417   4.622
 5229WAT    LP226145   6.179   4.430   4.646
 5230WAT     OW26146   3.095   6.340   6.121
 5230WAT    HW126147   3.062   6.384   6.043
 5230WAT    HW226148   3.019   6.330   6.177
 5230WAT    LP126149   3.122   6.277   6.104
 5230WAT    LP226150   3.145   6.379   6.152
 5231WAT     OW26151   4.228   6.629   4.955
 5231WAT    HW126152   4.199   6.715   4.986
 5231WAT    HW226153   4.310   6.647   4.909
 5231WAT    LP126154   4.239   6.586   5.009
 5231WAT    LP226155   4.181   6.601   4.911
 5232WAT     OW26156   4.721   1.929   3.726
 5232WAT    HW126157   4.707   1.932   3.821
 5232WAT    HW226158   4.749   2.018   3.703
 5232WAT    LP126159   4.771   1.882   3.711
 5232WAT    LP226160   4.662   1.912   3.693
 5233WAT     OW26161   3.582   3.699   5.188
 5233WAT    HW126162   3.620   3.785   5.176
 5233WAT    HW226163   3.650   3.647   5.231
 5233WAT    LP126164   3.524   3.702   5.228
 5233WAT    LP226165   3.565   3.671   5.126
 5234WAT     OW26166   6.251   4.186   6.343
 5234WAT    HW126167   6.280   4.277   6.346
 5234WAT    HW226168   6.190   4.178   6.417
 5234WAT    LP126169   6.219   4.172   6.283
 5234WAT    LP226170   6.305   4.143   6.351
 5235WAT     OW26171   5.473   0.370   1.665
 5235WAT    HW126172   5.522   0.432   1.611
 5235WAT    HW226173   5.384   0.405   1.666
 5235WAT    LP126174   5.475   0.306   1.637
 5235WAT    LP226175   5.499   0.368   1.730
 5236WAT     OW26176   5.920   5.762   2.927
 5236WAT    HW126177   5.983   5.765   2.999
 5236WAT    HW226178   5.965   5.806   2.854
 5236WAT    LP126179   5.904   5.696   2.910
 5236WAT    LP226180   5.862   5.797   2.944
 5237WAT     OW26181   3.553   2.530   3.527
 5237WAT    HW126182   3.639   2.540   3.567
 5237WAT    HW226183   3.491   2.559   3.594
 5237WAT    LP126184   3.548   2.570   3.469
 5237WAT    LP226185   3.541   2.463   3.510
 5238WAT     OW26186   6.741   0.906   3.333
 5238WAT    HW126187   6.817   0.865   3.293
 5238WAT    HW226188   6.726   0.985   3.281
 5238WAT    LP126189   6.685   0.864   3.330
 5238WAT    LP226190   6.754   0.923   3.400
 5239WAT     OW26191   2.987   2.806   3.125
 5239WAT    HW126192   3.012   2.779   3.036
 5239WAT    HW226193   2.892   2.804   3.125
 5239WAT    LP126194   3.012   2.761   3.172
 5239WAT    LP226195   3.011   2.870   3.139
 5240WAT     OW26196   1.241   2.349   3.806
 5240WAT    HW126197   1.192   2.282   3.758
 5240WAT    HW226198   1.181   2.423   3.810
 5240WAT    LP126199   1.258   2.327   3.870
 5240WAT    LP226200   1.300   2.366   3.771
 5241WAT     OW26201   1.417   5.963   5.464
 5241WAT    HW126202   1.347   5.914   5.423
 5241WAT    HW226203   1.438   6.033   5.402
 5241WAT    LP126204   1.396   5.991   5.525
 5241WAT    LP226205   1.473   5.923   5.476
 5242WAT     OW26206   1.376   6.311   3.280
 5242WAT    HW126207   1.400   6.241   3.220
 5242WAT    HW226208   1.431   6.385   3.253
 5242WAT    LP126209   1.309   6.328   3.274
 5242WAT    LP226210   1.390   6.293   3.346
 5243WAT     OW26211   6.552   0.450   4.408
 5243WAT    HW126212   6.558   0.541   4.436
 5243WAT    HW226213   6.491   0.409   4.469
 5243WAT    LP126214   6.528   0.445   4.342
 5243WAT    LP226215   6.615   0.419   4.411
 5244WAT     OW26216   6.771   4.775   0.917
 5244WAT    HW126217   6.715   4.850   0.902
 5244WAT    HW226218   6.711   4.701   0.926
 5244WAT    LP126219   6.814   4.765   0.863
 5244WAT    LP226220   6.809   4.783   0.976
 5245WAT     OW26221   0.104   4.205   5.192
 5245WAT    HW126222   0.059   4.219   5.275
 5245WAT    HW226223   0.074   4.118   5.164
 5245WAT    LP126224   0.085   4.254   5.145
 5245WAT    LP226225   0.173   4.206   5.200
 5246WAT     OW26226   3.271   6.421   0.345
 5246WAT    HW126227   3.268   6.468   0.262
 5246WAT    HW226228   3.355   6.445   0.384
 5246WAT    LP126229   3.218   6.441   0.386
 5246WAT    LP226230   3.268   6.352   0.335
 5247WAT     OW26231   2.913   2.277   3.282
 5247WAT    HW126232   2.927   2.370   3.264
 5247WAT    HW226233   2.981   2.254   3.345
 5247WAT    LP126234   2.850   2.266   3.309
 5247WAT    LP226235   2.921   2.239   3.223
 5248WAT     OW26236   1.363   2.774   2.516
 5248WAT    HW126237   1.429   2.826   2.562
 5248WAT    HW226238   1.413   2.730   2.446
 5248WAT    LP126239   1.334   2.727   2.559
 5248WAT    LP226240   1.314   2.815   2.488
 5249WAT     OW26241   0.766   3.462   1.643
 5249WAT    HW126242   0.682   3.421   1.666
 5249WAT    HW226243   0.832   3.400   1.674
 5249WAT    LP126244   0.771   3.472   1.574
 5249WAT    LP226245   0.772   3.524   1.676
 5250WAT     OW26246   1.364   0.955   3.542
 5250WAT    HW126247   1.454   0.930   3.525
 5250WAT    HW226248   1.313   0.875   3.526
 5250WAT    LP126249   1.356   0.976   3.609
 5250WAT    LP226250   1.343   1.006   3.499
 5251WAT     OW26251   4.000   0.198   1.192
 5251WAT    HW126252   4.004   0.245   1.109
 5251WAT    HW226253   3.942   0.125   1.176
 5251WAT    LP126254   4.064   0.176   1.211
 5251WAT    LP226255   3.974   0.240   1.243
 5252WAT     OW26256   2.634   0.293   2.142
 5252WAT    HW126257   2.637   0.225   2.075
 5252WAT    HW226258   2.578   0.361   2.105
 5252WAT    LP126259   2.607   0.268   2.202
 5252WAT    LP226260   2.699   0.318   2.155
 5253WAT     OW26261   2.424   0.345   2.779
 5253WAT    HW126262   2.400   0.410   2.713
 5253WAT    HW226263   2.442   0.266   2.729
 5253WAT    LP126264   2.481   0.366   2.813
 5253WAT    LP226265   2.372   0.335   2.824
 5254WAT     OW26266   6.618   0.554   1.288
 5254WAT    HW126267   6.545   0.532   1.230
 5254WAT    HW226268   6.583   0.538   1.376
 5254WAT    LP126269   6.673   0.513   1.275
 5254WAT    LP226270   6.636   0.621   1.281
 5255WAT     OW26271   5.559   4.092   0.747
 5255WAT    HW126272   5.475   4.137   0.747
 5255WAT    HW226273   5.555   4.031   0.821
 5255WAT    LP126274   5.568   4.057   0.687
 5255WAT    LP226275   5.612   4.137   0.755
 5256WAT     OW26276   2.158   0.646   3.334
 5256WAT    HW126277   2.192   0.561   3.304
 5256WAT    HW226278   2.120   0.627   3.420
 5256WAT    LP126279   2.209   0.693   3.339
 5256WAT    LP226280   2.109   0.669   3.290
 5257WAT     OW26281   5.053   0.234   1.910
 5257WAT    HW126282   5.141   0.207   1.887
 5257WAT    HW226283   5.012   0.155   1.945
 5257WAT    LP126284   5.054   0.285   1.959
 5257WAT    LP226285   5.018   0.257   1.854
 5258WAT     OW26286   3.107   4.215   3.162
 5258WAT    HW126287   3.183   4.159   3.178
 5258WAT    HW226288   3.131   4.267   3.085
 5258WAT    LP126289   3.050   4.177   3.149
 5258WAT    LP226290   3.095   4.257   3.217
 5259WAT     OW26291   0.532   4.939   4.241
 5259WAT    HW126292   0.503   4.868   4.184
 5259WAT    HW226293   0.552   5.011   4.182
 5259WAT    LP126294   0.481   4.957   4.286
 5259WAT    LP226295   0.589   4.920   4.278
 5260WAT     OW26296   5.153   2.054   1.461
 5260WAT    HW126297   5.083   2.057   1.525
 5260WAT    HW226298   5.137   1.975   1.410
 5260WAT    LP126299   5.152   2.111   1.420
 5260WAT    LP226300   5.216   2.050   1.493
 5261WAT     OW26301   3.743   6.086   2.610
 5261WAT    HW126302   3.702   6.036   2.538
 5261WAT    HW226303   3.829   6.047   2.620
 5261WAT    LP126304   3.748   6.153   2.593
 5261WAT    LP226305   3.705   6.079   2.668
 5262WAT     OW26306   4.912   6.021   6.225
 5262WAT    HW126307   4.826   5.980   6.231
 5262WAT    HW226308   4.918   6.076   6.303
 5262WAT    LP126309   4.963   5.972   6.226
 5262WAT    LP226310   4.918   6.059   6.167
 5263WAT     OW26311   3.325   1.091   3.619
 5263WAT    HW126312   3.239   1.114   3.584
 5263WAT    HW226313   3.354   1.169   3.666
 5263WAT    LP126314   3.320   1.036   3.663
 5263WAT    LP226315   3.369   1.075   3.567
 5264WAT     OW26316   3.689   3.640   5.884
 5264WAT    HW126317   3.621   3.622   5.949
 5264WAT    HW226318   3.704   3.735   5.890
 5264WAT    LP126319   3.747   3.605   5.898
 5264WAT    LP226320   3.666   3.623   5.819
 5265WAT     OW26321   6.254   5.556   3.210
 5265WAT    HW126322   6.337   5.554   3.162
 5265WAT    HW226323   6.280   5.576   3.300
 5265WAT    LP126324   6.212   5.606   3.185
 5265WAT    LP226325   6.222   5.494   3.207
 5266WAT     OW26326   1.327   0.725   2.065
 5266WAT    HW126327   1.374   0.766   1.993
 5266WAT    HW226328   1.273   0.795   2.101
 5266WAT    LP126329   1.286   0.673   2.041
 5266WAT    LP226330   1.371   0.700   2.113
 5267WAT     OW26331   0.422   0.938   1.322
 5267WAT    HW126332   0.378   0.971   1.244
 5267WAT    HW226333   0.404   1.003   1.389
 5267WAT    LP126334   0.397   0.875   1.340
 5267WAT    LP226335   0.491   0.932   1.311
 5268WAT     OW26336   2.211   4.795   0.260
 5268WAT    HW126337   2.284   4.774   0.202
 5268WAT    HW226338   2.133   4.767   0.211
 5268WAT    LP126339   2.216   4.760   0.320
 5268WAT    LP226340   2.208   4.864   0.273
 5269WAT     OW26341   6.629   0.483   0.356
 5269WAT    HW126342   6.680   0.464   0.435
 5269WAT    HW226343   6.694   0.494   0.287
 5269WAT    LP126344   6.586   0.430   0.341
 5269WAT    LP226345   6.591   0.542   0.365
 5270WAT     OW26346   2.413   3.851   4.458
 5270WAT    HW126347   2.438   3.848   4.551
 5270WAT    HW226348   2.463   3.924   4.422
 5270WAT    LP126349   2.430   3.791   4.426
 5270WAT    LP226350   2.344   3.863   4.451
 5271WAT     OW26351   0.352   2.536   4.837
 5271WAT    HW126352   0.350   2.475   4.763
 5271WAT    HW226353   0.294   2.607   4.812
 5271WAT    LP126354   0.329   2.504   4.896
 5271WAT    LP226355   0.417   2.559   4.848
 5272WAT     OW26356   1.995   6.074   5.167
 5272WAT    HW126357   1.931   6.031   5.223
 5272WAT    HW226358   1.943   6.128   5.108
 5272WAT    LP126359   2.039   6.113   5.205
 5272WAT    LP226360   2.032   6.026   5.131
 5273WAT     OW26361   2.384   2.469   0.916
 5273WAT    HW126362   2.406   2.531   0.846
 5273WAT    HW226363   2.377   2.385   0.872
 5273WAT    LP126364   2.435   2.468   0.964
 5273WAT    LP226365   2.323   2.487   0.946
 5274WAT     OW26366   0.925   5.662   3.415
 5274WAT    HW126367   0.973   5.589   3.454
 5274WAT    HW226368   0.834   5.644   3.436
 5274WAT    LP126369   0.946   5.723   3.444
 5274WAT    LP226370   0.935   5.664   3.346
 5275WAT     OW26371   5.752   2.684   5.167
 5275WAT    HW126372   5.657   2.688   5.183
 5275WAT    HW226373   5.782   2.612   5.221
 5275WAT    LP126374   5.765   2.671   5.099
 5275WAT    LP226375   5.783   2.744   5.185
 5276WAT     OW26376   3.911   1.844   2.203
 5276WAT    HW126377   3.955   1.768   2.165
 5276WAT    HW226378   3.831   1.809   2.242
 5276WAT    LP126379   3.951   1.874   2.251
 5276WAT    LP226380   3.895   1.890   2.153
 5277WAT     OW26381   1.059   5.345   3.074
 5277WAT    HW126382   1.046   5.328   3.168
 5277WAT    HW226383   1.122   5.416   3.072
 5277WAT    LP126384   1.083   5.288   3.042
 5277WAT    LP226385   0.998   5.364   3.044
 5278WAT     OW26386   1.208   2.677   5.016
 5278WAT    HW126387   1.184   2.745   4.953
 5278WAT    HW226388   1.163   2.598   4.984
 5278WAT    LP126389   1.277   2.667   5.016
 5278WAT    LP226390   1.187   2.693   5.080
 5279WAT     OW26391   6.257   0.634   2.354
 5279WAT    HW126392   6.318   0.623   2.427
 5279WAT    HW226393   6.231   0.545   2.330
 5279WAT    LP126394   6.201   0.672   2.374
 5279WAT    LP226395   6.288   0.666   2.300
 5280WAT     OW26396   4.931   3.869   1.372
 5280WAT    HW126397   4.926   3.942   1.433
 5280WAT    HW226398   5.024   3.843   1.374
 5280WAT    LP126399   4.890   3.816   1.392
 5280WAT    LP226400   4.913   3.889   1.307
 5281WAT     OW26401   0.278   0.509   0.982
 5281WAT    HW126402   0.279   0.599   0.951
 5281WAT    HW226403   0.341   0.508   1.054
 5281WAT    LP126404   0.214   0.492   1.005
 5281WAT    LP226405   0.297   0.465   0.932
 5282WAT     OW26406   4.280   1.621   5.090
 5282WAT    HW126407   4.236   1.567   5.156
 5282WAT    HW226408   4.270   1.573   5.008
 5282WAT    LP126409   4.250   1.684   5.086
 5282WAT    LP226410   4.348   1.629   5.106
 5283WAT     OW26411   6.715   6.645   3.611
 5283WAT    HW126412   6.686   6.726   3.568
 5283WAT    HW226413   6.638   6.588   3.608
 5283WAT    LP126414   6.768   6.616   3.576
 5283WAT    LP226415   6.734   6.657   3.677
 5284WAT     OW26416   2.134   2.006   1.023
 5284WAT    HW126417   2.105   2.036   0.937
 5284WAT    HW226418   2.167   1.917   1.008
 5284WAT    LP126419   2.185   2.047   1.048
 5284WAT    LP226420   2.081   2.005   1.068
 5285WAT     OW26421   3.554   5.995   3.431
 5285WAT    HW126422   3.523   6.001   3.341
 5285WAT    HW226423   3.576   5.903   3.444
 5285WAT    LP126424   3.610   6.036   3.441
 5285WAT    LP226425   3.503   6.015   3.475
 5286WAT     OW26426   3.135   2.220   5.318
 5286WAT    HW126427   3.102   2.209   5.408
 5286WAT    HW226428   3.065   2.268   5.273
 5286WAT    LP126429   3.194   2.257   5.318
 5286WAT    LP226430   3.146   2.158   5.288
 5287WAT     OW26431   2.214   0.298   4.211
 5287WAT    HW126432   2.211   0.258   4.297
 5287WAT    HW226433   2.154   0.246   4.158
 5287WAT    LP126434   2.193   0.365   4.214
 5287WAT    LP226435   2.279   0.296   4.184
 5288WAT     OW26436   1.523   0.414   3.737
 5288WAT    HW126437   1.552   0.339   3.684
 5288WAT    HW226438   1.429   0.398   3.750
 5288WAT    LP126439   1.556   0.415   3.798
 5288WAT    LP226440   1.533   0.474   3.702
 5289WAT     OW26441   6.349   3.054   4.754
 5289WAT    HW126442   6.311   3.006   4.680
 5289WAT    HW226443   6.429   3.006   4.775
 5289WAT    LP126444   6.363   3.120   4.736
 5289WAT    LP226445   6.305   3.053   4.809
 5290WAT     OW26446   1.700   3.854   4.731
 5290WAT    HW126447   1.621   3.820   4.774
 5290WAT    HW226448   1.680   3.849   4.638
 5290WAT    LP126449   1.711   3.921   4.750
 5290WAT    LP226450   1.755   3.815   4.748
 5291WAT     OW26451   0.479   3.395   6.311
 5291WAT    HW126452   0.405   3.439   6.270
 5291WAT    HW226453   0.534   3.467   6.344
 5291WAT    LP126454   0.458   3.354   6.364
 5291WAT    LP226455   0.514   3.356   6.265
 5292WAT     OW26456   1.437   4.191   2.126
 5292WAT    HW126457   1.475   4.147   2.050
 5292WAT    HW226458   1.495   4.167   2.199
 5292WAT    LP126459   1.436   4.260   2.117
 5292WAT    LP226460   1.372   4.168   2.138
 5293WAT     OW26461   3.676   4.600   3.319
 5293WAT    HW126462   3.683   4.612   3.414
 5293WAT    HW226463   3.686   4.506   3.305
 5293WAT    LP126464   3.614   4.622   3.296
 5293WAT    LP226465   3.727   4.635   3.286
 5294WAT     OW26466   0.360   2.571   6.382
 5294WAT    HW126467   0.414   2.560   6.304
 5294WAT    HW226468   0.270   2.571   6.350
 5294WAT    LP126469   0.370   2.517   6.426
 5294WAT    LP226470   0.375   2.631   6.415
 5295WAT     OW26471   3.750   2.130   0.940
 5295WAT    HW126472   3.800   2.161   1.016
 5295WAT    HW226473   3.694   2.061   0.976
 5295WAT    LP126474   3.711   2.182   0.913
 5295WAT    LP226475   3.792   2.105   0.891
 5296WAT     OW26476   6.093   3.013   6.118
 5296WAT    HW126477   6.001   2.992   6.107
 5296WAT    HW226478   6.094   3.104   6.149
 5296WAT    LP126479   6.123   2.971   6.165
 5296WAT    LP226480   6.127   3.008   6.057
 5297WAT     OW26481   6.489   2.588   6.559
 5297WAT    HW126482   6.446   2.621   6.481
 5297WAT    HW226483   6.516   2.499   6.537
 5297WAT    LP126484   6.545   2.628   6.575
 5297WAT    LP226485   6.445   2.588   6.614
 5298WAT     OW26486   6.278   1.726   5.097
 5298WAT    HW126487   6.355   1.687   5.138
 5298WAT    HW226488   6.262   1.806   5.147
 5298WAT    LP126489   6.291   1.741   5.030
 5298WAT    LP226490   6.223   1.683   5.101
 5299WAT     OW26491   6.548   1.377   6.117
 5299WAT    HW126492   6.457   1.375   6.147
 5299WAT    HW226493   6.545   1.339   6.029
 5299WAT    LP126494   6.572   1.442   6.115
 5299WAT    LP226495   6.589   1.338   6.159
 5300WAT     OW26496   3.982   5.921   3.533
 5300WAT    HW126497   3.914   5.979   3.567
 5300WAT    HW226498   3.960   5.835   3.568
 5300WAT    LP126499   3.981   5.921   3.463
 5300WAT    LP226500   4.045   5.941   3.556
 5301WAT     OW26501   2.839   0.328   1.185
 5301WAT    HW126502   2.774   0.287   1.241
 5301WAT    HW226503   2.862   0.410   1.229
 5301WAT    LP126504   2.896   0.287   1.179
 5301WAT    LP226505   2.813   0.340   1.121
 5302WAT     OW26506   3.528   5.114   2.986
 5302WAT    HW126507   3.518   5.146   2.897
 5302WAT    HW226508   3.514   5.020   2.980
 5302WAT    LP126509   3.592   5.128   3.011
 5302WAT    LP226510   3.480   5.143   3.028
 5303WAT     OW26511   1.272   0.127   2.713
 5303WAT    HW126512   1.303   0.062   2.776
 5303WAT    HW226513   1.208   0.179   2.761
 5303WAT    LP126514   1.324   0.167   2.689
 5303WAT    LP226515   1.241   0.095   2.658
 5304WAT     OW26516   4.046   5.153   1.330
 5304WAT    HW126517   3.969   5.169   1.274
 5304WAT    HW226518   4.120   5.176   1.274
 5304WAT    LP126519   4.044   5.194   1.387
 5304WAT    LP226520   4.049   5.086   1.349
 5305WAT     OW26521   0.073   2.954   3.630
 5305WAT    HW126522   0.131   2.936   3.704
 5305WAT    HW226523  -0.014   2.964   3.669
 5305WAT    LP126524   0.092   3.013   3.598
 5305WAT    LP226525   0.074   2.901   3.585
 5306WAT     OW26526   4.634   2.255   2.191
 5306WAT    HW126527   4.579   2.327   2.219
 5306WAT    HW226528   4.596   2.178   2.232
 5306WAT    LP126529   4.634   2.248   2.121
 5306WAT    LP226530   4.700   2.265   2.212
 5307WAT     OW26531   6.184   3.010   0.276
 5307WAT    HW126532   6.204   3.026   0.368
 5307WAT    HW226533   6.092   3.032   0.267
 5307WAT    LP126534   6.223   3.052   0.235
 5307WAT    LP226535   6.196   2.943   0.259
 5308WAT     OW26536   3.625   4.479   5.319
 5308WAT    HW126537   3.697   4.429   5.279
 5308WAT    HW226538   3.649   4.487   5.411
 5308WAT    LP126539   3.620   4.542   5.289
 5308WAT    LP226540   3.564   4.444   5.312
 5309WAT     OW26541   3.380   3.620   0.244
 5309WAT    HW126542   3.402   3.528   0.263
 5309WAT    HW226543   3.328   3.616   0.164
 5309WAT    LP126544   3.343   3.647   0.297
 5309WAT    LP226545   3.438   3.657   0.234
 5310WAT     OW26546   4.649   5.540   1.347
 5310WAT    HW126547   4.581   5.498   1.400
 5310WAT    HW226548   4.615   5.538   1.258
 5310WAT    LP126549   4.659   5.607   1.368
 5310WAT    LP226550   4.709   5.505   1.352
 5311WAT     OW26551   1.672   1.732   6.338
 5311WAT    HW126552   1.700   1.666   6.401
 5311WAT    HW226553   1.589   1.765   6.372
 5311WAT    LP126554   1.719   1.783   6.333
 5311WAT    LP226555   1.663   1.703   6.275
 5312WAT     OW26556   3.145   0.483   1.093
 5312WAT    HW126557   3.060   0.514   1.064
 5312WAT    HW226558   3.197   0.478   1.013
 5312WAT    LP126559   3.174   0.528   1.139
 5312WAT    LP226560   3.140   0.420   1.123
 5313WAT     OW26561   3.302   2.798   2.815
 5313WAT    HW126562   3.283   2.834   2.729
 5313WAT    HW226563   3.217   2.769   2.848
 5313WAT    LP126564   3.346   2.745   2.811
 5313WAT    LP226565   3.329   2.848   2.857
 5314WAT     OW26566   2.563   0.477   0.568
 5314WAT    HW126567   2.476   0.517   0.572
 5314WAT    HW226568   2.546   0.387   0.538
 5314WAT    LP126569   2.603   0.511   0.522
 5314WAT    LP226570   2.593   0.477   0.631
 5315WAT     OW26571   3.510   3.524   1.245
 5315WAT    HW126572   3.605   3.531   1.245
 5315WAT    HW226573   3.486   3.528   1.338
 5315WAT    LP126574   3.481   3.577   1.210
 5315WAT    LP226575   3.489   3.464   1.217
 5316WAT     OW26576   6.145   5.169   4.574
 5316WAT    HW126577   6.238   5.154   4.554
 5316WAT    HW226578   6.145   5.208   4.661
 5316WAT    LP126579   6.117   5.213   4.527
 5316WAT    LP226580   6.110   5.109   4.574
 5317WAT     OW26581   0.656   3.469   5.119
 5317WAT    HW126582   0.632   3.384   5.157
 5317WAT    HW226583   0.720   3.447   5.052
 5317WAT    LP126584   0.600   3.500   5.091
 5317WAT    LP226585   0.684   3.510   5.168
 5318WAT     OW26586   5.000   1.203   3.315
 5318WAT    HW126587   4.937   1.217   3.244
 5318WAT    HW226588   5.082   1.241   3.283
 5318WAT    LP126589   4.979   1.235   3.373
 5318WAT    LP226590   5.007   1.134   3.327
 5319WAT     OW26591   5.760   2.526   6.361
 5319WAT    HW126592   5.741   2.617   6.382
 5319WAT    HW226593   5.692   2.501   6.298
 5319WAT    LP126594   5.824   2.520   6.332
 5319WAT    LP226595   5.756   2.486   6.418
 5320WAT     OW26596   1.040   5.658   1.915
 5320WAT    HW126597   1.011   5.582   1.863
 5320WAT    HW226598   1.132   5.641   1.932
 5320WAT    LP126599   1.031   5.717   1.878
 5320WAT    LP226600   1.004   5.662   1.974
 5321WAT     OW26601   5.571   6.601   2.971
 5321WAT    HW126602   5.550   6.592   2.878
 5321WAT    HW226603   5.556   6.693   2.990
 5321WAT    LP126604   5.529   6.560   3.010
 5321WAT    LP226605   5.638   6.584   2.984
 5322WAT     OW26606   2.059   3.615   5.716
 5322WAT    HW126607   2.098   3.529   5.730
 5322WAT    HW226608   2.016   3.637   5.799
 5322WAT    LP126609   2.109   3.662   5.701
 5322WAT    LP226610   2.013   3.614   5.663
 5323WAT     OW26611   3.023   1.807   1.399
 5323WAT    HW126612   3.079   1.831   1.325
 5323WAT    HW226613   3.079   1.752   1.454
 5323WAT    LP126614   3.003   1.864   1.434
 5323WAT    LP226615   2.967   1.772   1.378
 5324WAT     OW26616   0.852   5.879   5.859
 5324WAT    HW126617   0.896   5.795   5.864
 5324WAT    HW226618   0.827   5.898   5.949
 5324WAT    LP126619   0.896   5.929   5.834
 5324WAT    LP226620   0.796   5.876   5.818
 5325WAT     OW26621   5.998   1.726   5.758
 5325WAT    HW126622   5.993   1.718   5.662
 5325WAT    HW226623   6.086   1.697   5.780
 5325WAT    LP126624   5.987   1.792   5.777
 5325WAT    LP226625   5.950   1.685   5.788
 5326WAT     OW26626   3.938   1.529   3.654
 5326WAT    HW126627   3.938   1.471   3.577
 5326WAT    HW226628   3.895   1.609   3.623
 5326WAT    LP126629   3.902   1.500   3.706
 5326WAT    LP226630   4.003   1.543   3.675
 5327WAT     OW26631   5.702   2.883   4.158
 5327WAT    HW126632   5.652   2.951   4.112
 5327WAT    HW226633   5.696   2.806   4.101
 5327WAT    LP126634   5.769   2.903   4.165
 5327WAT    LP226635   5.674   2.870   4.220
 5328WAT     OW26636   4.317   1.624   6.606
 5328WAT    HW126637   4.297   1.599   6.516
 5328WAT    HW226638   4.344   1.542   6.648
 5328WAT    LP126639   4.369   1.671   6.608
 5328WAT    LP226640   4.260   1.651   6.637
 5329WAT     OW26641   5.268   2.658   4.533
 5329WAT    HW126642   5.303   2.645   4.445
 5329WAT    HW226643   5.247   2.751   4.538
 5329WAT    LP126644   5.211   2.619   4.543
 5329WAT    LP226645   5.316   2.641   4.581
 5330WAT     OW26646   6.745   0.460   2.273
 5330WAT    HW126647   6.664   0.418   2.304
 5330WAT    HW226648   6.803   0.456   2.349
 5330WAT    LP126649   6.772   0.425   2.219
 5330WAT    LP226650   6.733   0.526   2.255
 5331WAT     OW26651   1.029   5.348   2.147
 5331WAT    HW126652   0.956   5.305   2.104
 5331WAT    HW226653   1.098   5.351   2.081
 5331WAT    LP126654   1.011   5.413   2.167
 5331WAT    LP226655   1.050   5.312   2.203
 5332WAT     OW26656   0.851   2.499   6.106
 5332WAT    HW126657   0.880   2.590   6.098
 5332WAT    HW226658   0.836   2.470   6.016
 5332WAT    LP126659   0.900   2.460   6.137
 5332WAT    LP226660   0.792   2.496   6.143
 5333WAT     OW26661   0.800   1.451   3.676
 5333WAT    HW126662   0.846   1.408   3.604
 5333WAT    HW226663   0.754   1.524   3.634
 5333WAT    LP126664   0.755   1.408   3.706
 5333WAT    LP226665   0.845   1.475   3.724
 5334WAT     OW26666   1.836   3.391   0.355
 5334WAT    HW126667   1.817   3.312   0.305
 5334WAT    HW226668   1.751   3.430   0.373
 5334WAT    LP126669   1.869   3.374   0.415
 5334WAT    LP226670   1.876   3.434   0.318
 5335WAT     OW26671   2.523   0.760   5.337
 5335WAT    HW126672   2.441   0.806   5.354
 5335WAT    HW226673   2.499   0.667   5.334
 5335WAT    LP126674   2.550   0.780   5.275
 5335WAT    LP226675   2.569   0.772   5.388
 5336WAT     OW26676   3.167   6.184   3.556
 5336WAT    HW126677   3.119   6.118   3.505
 5336WAT    HW226678   3.102   6.251   3.577
 5336WAT    LP126679   3.193   6.156   3.614
 5336WAT    LP226680   3.219   6.211   3.518
 5337WAT     OW26681   1.144   2.289   4.219
 5337WAT    HW126682   1.096   2.212   4.248
 5337WAT    HW226683   1.214   2.254   4.163
 5337WAT    LP126684   1.103   2.332   4.183
 5337WAT    LP226685   1.172   2.323   4.274
 5338WAT     OW26686   0.605   3.701   0.757
 5338WAT    HW126687   0.597   3.721   0.663
 5338WAT    HW226688   0.575   3.780   0.801
 5338WAT    LP126689   0.566   3.646   0.774
 5338WAT    LP226690   0.672   3.687   0.773
 5339WAT     OW26691   5.545   5.053   0.052
 5339WAT    HW126692   5.616   4.995   0.027
 5339WAT    HW226693   5.487   5.055  -0.024
 5339WAT    LP126694   5.511   5.029   0.108
 5339WAT    LP226695   5.570   5.117   0.066
 5340WAT     OW26696   4.375   6.266   2.345
 5340WAT    HW126697   4.418   6.212   2.279
 5340WAT    HW226698   4.373   6.212   2.423
 5340WAT    LP126699   4.412   6.325   2.356
 5340WAT    LP226700   4.311   6.283   2.324
 5341WAT     OW26701   3.982   3.107   0.603
 5341WAT    HW126702   4.003   3.141   0.690
 5341WAT    HW226703   3.959   3.016   0.618
 5341WAT    LP126704   3.928   3.142   0.576
 5341WAT    LP226705   4.037   3.113   0.560
 5342WAT     OW26706   6.164   4.832   1.144
 5342WAT    HW126707   6.095   4.769   1.125
 5342WAT    HW226708   6.131   4.883   1.218
 5342WAT    LP126709   6.224   4.799   1.161
 5342WAT    LP226710   6.176   4.874   1.089
 5343WAT     OW26711   6.758   4.932   0.076
 5343WAT    HW126712   6.840   4.895   0.043
 5343WAT    HW226713   6.730   4.993   0.009
 5343WAT    LP126714   6.711   4.881   0.085
 5343WAT    LP226715   6.769   4.965   0.137
 5344WAT     OW26716   2.744   5.232   4.291
 5344WAT    HW126717   2.808   5.168   4.258
 5344WAT    HW226718   2.660   5.201   4.258
 5344WAT    LP126719   2.745   5.232   4.361
 5344WAT    LP226720   2.759   5.296   4.267
 5345WAT     OW26721   1.071   0.411   4.373
 5345WAT    HW126722   1.114   0.327   4.389
 5345WAT    HW226723   1.102   0.437   4.286
 5345WAT    LP126724   1.001   0.403   4.373
 5345WAT    LP226725   1.090   0.458   4.421
 5346WAT     OW26726   5.493   6.302   1.744
 5346WAT    HW126727   5.437   6.243   1.795
 5346WAT    HW226728   5.566   6.321   1.802
 5346WAT    LP126729   5.515   6.271   1.686
 5346WAT    LP226730   5.458   6.361   1.728
 5347WAT     OW26731   2.351   3.940   6.094
 5347WAT    HW126732   2.404   4.000   6.041
 5347WAT    HW226733   2.268   3.986   6.106
 5347WAT    LP126734   2.342   3.879   6.061
 5347WAT    LP226735   2.382   3.928   6.156
 5348WAT     OW26736   0.237   2.252   2.072
 5348WAT    HW126737   0.236   2.167   2.029
 5348WAT    HW226738   0.327   2.264   2.101
 5348WAT    LP126739   0.219   2.303   2.026
 5348WAT    LP226740   0.193   2.253   2.126
 5349WAT     OW26741   4.417   4.517   1.504
 5349WAT    HW126742   4.404   4.590   1.443
 5349WAT    HW226743   4.343   4.523   1.564
 5349WAT    LP126744   4.415   4.456   1.469
 5349WAT    LP226745   4.477   4.523   1.538
 5350WAT     OW26746   5.759   6.188   2.142
 5350WAT    HW126747   5.682   6.176   2.197
 5350WAT    HW226748   5.781   6.099   2.112
 5350WAT    LP126749   5.744   6.229   2.087
 5350WAT    LP226750   5.811   6.216   2.178
 5351WAT     OW26751   0.628   2.046   1.815
 5351WAT    HW126752   0.637   1.951   1.819
 5351WAT    HW226753   0.610   2.073   1.905
 5351WAT    LP126754   0.687   2.075   1.792
 5351WAT    LP226755   0.575   2.064   1.773
 5352WAT     OW26756   0.363   1.620   3.792
 5352WAT    HW126757   0.406   1.686   3.847
 5352WAT    HW226758   0.369   1.539   3.842
 5352WAT    LP126759   0.297   1.637   3.780
 5352WAT    LP226760   0.397   1.614   3.731
 5353WAT     OW26761   2.455   5.333   3.147
 5353WAT    HW126762   2.532   5.390   3.144
 5353WAT    HW226763   2.421   5.343   3.236
 5353WAT    LP126764   2.408   5.353   3.100
 5353WAT    LP226765   2.474   5.266   3.135
 5354WAT     OW26766   0.664   3.980   3.340
 5354WAT    HW126767   0.625   3.893   3.336
 5354WAT    HW226768   0.700   3.987   3.429
 5354WAT    LP126769   0.715   3.986   3.293
 5354WAT    LP226770   0.616   4.030   3.329
 5355WAT     OW26771   0.233   3.704   4.697
 5355WAT    HW126772   0.169   3.731   4.763
 5355WAT    HW226773   0.318   3.724   4.736
 5355WAT    LP126774   0.227   3.636   4.683
 5355WAT    LP226775   0.224   3.740   4.638
 5356WAT     OW26776   0.864   2.138   0.667
 5356WAT    HW126777   0.851   2.174   0.579
 5356WAT    HW226778   0.855   2.213   0.726
 5356WAT    LP126779   0.816   2.089   0.681
 5356WAT    LP226780   0.928   2.110   0.672
 5357WAT     OW26781   0.504   6.346   2.728
 5357WAT    HW126782   0.516   6.333   2.822
 5357WAT    HW226783   0.454   6.270   2.699
 5357WAT    LP126784   0.468   6.405   2.716
 5357WAT    LP226785   0.566   6.349   2.696
 5358WAT     OW26786   2.443   1.566   3.329
 5358WAT    HW126787   2.533   1.533   3.320
 5358WAT    HW226788   2.388   1.489   3.314
 5358WAT    LP126789   2.433   1.592   3.393
 5358WAT    LP226790   2.431   1.615   3.281
 5359WAT     OW26791   0.011   0.490   1.051
 5359WAT    HW126792   0.013   0.522   1.141
 5359WAT    HW226793   0.102   0.487   1.024
 5359WAT    LP126794  -0.018   0.426   1.048
 5359WAT    LP226795  -0.026   0.534   1.011
 5360WAT     OW26796   1.811   0.789   3.653
 5360WAT    HW126797   1.791   0.881   3.635
 5360WAT    HW226798   1.726   0.745   3.654
 5360WAT    LP126799   1.852   0.762   3.604
 5360WAT    LP226800   1.842   0.783   3.716
 5361WAT     OW26801   5.109   6.304   2.487
 5361WAT    HW126802   5.064   6.222   2.467
 5361WAT    HW226803   5.086   6.322   2.578
 5361WAT    LP126804   5.179   6.296   2.480
 5361WAT    LP226805   5.087   6.355   2.445
 5362WAT     OW26806   2.571   0.687   1.935
 5362WAT    HW126807   2.626   0.694   2.013
 5362WAT    HW226808   2.524   0.604   1.945
 5362WAT    LP126809   2.526   0.741   1.931
 5362WAT    LP226810   2.610   0.686   1.877
 5363WAT     OW26811   2.043   5.584   3.651
 5363WAT    HW126812   1.995   5.524   3.709
 5363WAT    HW226813   2.003   5.571   3.565
 5363WAT    LP126814   2.035   5.650   3.672
 5363WAT    LP226815   2.111   5.568   3.649
 5364WAT     OW26816   3.638   3.450   4.330
 5364WAT    HW126817   3.602   3.405   4.254
 5364WAT    HW226818   3.563   3.462   4.389
 5364WAT    LP126819   3.687   3.411   4.361
 5364WAT    LP226820   3.665   3.512   4.312
 5365WAT     OW26821   3.983   4.595   1.466
 5365WAT    HW126822   4.007   4.564   1.379
 5365WAT    HW226823   3.890   4.575   1.474
 5365WAT    LP126824   4.020   4.560   1.515
 5365WAT    LP226825   3.995   4.663   1.473
 5366WAT     OW26826   4.565   2.148   0.952
 5366WAT    HW126827   4.549   2.240   0.932
 5366WAT    HW226828   4.524   2.134   1.037
 5366WAT    LP126829   4.536   2.106   0.903
 5366WAT    LP226830   4.634   2.135   0.954
 5367WAT     OW26831   6.107   0.204   5.594
 5367WAT    HW126832   6.051   0.235   5.523
 5367WAT    HW226833   6.192   0.189   5.552
 5367WAT    LP126834   6.113   0.253   5.644
 5367WAT    LP226835   6.083   0.145   5.621
 5368WAT     OW26836   6.403   0.177   1.411
 5368WAT    HW126837   6.433   0.167   1.320
 5368WAT    HW226838   6.383   0.088   1.440
 5368WAT    LP126839   6.454   0.204   1.451
 5368WAT    LP226840   6.346   0.217   1.415
 5369WAT     OW26841   4.132   3.791   5.028
 5369WAT    HW126842   4.197   3.727   4.998
 5369WAT    HW226843   4.175   3.876   5.019
 5369WAT    LP126844   4.074   3.787   4.989
 5369WAT    LP226845   4.115   3.779   5.095
 5370WAT     OW26846   5.178   4.471   2.572
 5370WAT    HW126847   5.164   4.407   2.502
 5370WAT    HW226848   5.117   4.542   2.551
 5370WAT    LP126849   5.163   4.443   2.634
 5370WAT    LP226850   5.244   4.494   2.572
 5371WAT     OW26851   4.852   3.629   1.731
 5371WAT    HW126852   4.927   3.570   1.724
 5371WAT    HW226853   4.882   3.699   1.788
 5371WAT    LP126854   4.834   3.654   1.668
 5371WAT    LP226855   4.797   3.596   1.759
 5372WAT     OW26856   1.123   2.005   5.487
 5372WAT    HW126857   1.205   1.974   5.526
 5372WAT    HW226858   1.067   1.928   5.483
 5372WAT    LP126859   1.094   2.055   5.527
 5372WAT    LP226860   1.134   2.031   5.423
 5373WAT     OW26861   4.101   5.051   0.382
 5373WAT    HW126862   4.017   5.016   0.413
 5373WAT    HW226863   4.133   4.984   0.321
 5373WAT    LP126864   4.091   5.112   0.349
 5373WAT    LP226865   4.145   5.059   0.435
 5374WAT     OW26866   1.340   5.598   5.189
 5374WAT    HW126867   1.392   5.548   5.252
 5374WAT    HW226868   1.398   5.612   5.114
 5374WAT    LP126869   1.283   5.563   5.170
 5374WAT    LP226870   1.321   5.660   5.216
 5375WAT     OW26871   2.291   2.835   6.134
 5375WAT    HW126872   2.264   2.888   6.059
 5375WAT    HW226873   2.212   2.824   6.186
 5375WAT    LP126874   2.316   2.773   6.113
 5375WAT    LP226875   2.341   2.868   6.171
 5376WAT     OW26876   2.014   4.771   2.562
 5376WAT    HW126877   2.031   4.864   2.546
 5376WAT    HW226878   2.025   4.729   2.477
 5376WAT    LP126879   2.060   4.745   2.608
 5376WAT    LP226880   1.949   4.761   2.586
 5377WAT     OW26881   5.083   1.193   5.393
 5377WAT    HW126882   5.148   1.140   5.347
 5377WAT    HW226883   5.003   1.140   5.390
 5377WAT    LP126884   5.102   1.204   5.459
 5377WAT    LP226885   5.073   1.254   5.361
 5378WAT     OW26886   4.087   5.880   6.514
 5378WAT    HW126887   4.126   5.906   6.598
 5378WAT    HW226888   4.120   5.946   6.452
 5378WAT    LP126889   4.109   5.816   6.495
 5378WAT    LP226890   4.017   5.882   6.517
 5379WAT     OW26891   5.535   4.019   0.235
 5379WAT    HW126892   5.608   4.061   0.189
 5379WAT    HW226893   5.560   4.022   0.328
 5379WAT    LP126894   5.475   4.054   0.225
 5379WAT    LP226895   5.527   3.953   0.214
 5380WAT     OW26896   4.990   4.004   3.631
 5380WAT    HW126897   5.010   4.097   3.621
 5380WAT    HW226898   4.927   3.985   3.561
 5380WAT    LP126899   5.048   3.965   3.623
 5380WAT    LP226900   4.962   3.991   3.693
 5381WAT     OW26901   2.817   6.664   4.682
 5381WAT    HW126902   2.751   6.596   4.691
 5381WAT    HW226903   2.773   6.744   4.711
 5381WAT    LP126904   2.872   6.650   4.722
 5381WAT    LP226905   2.837   6.670   4.615
 5382WAT     OW26906   2.576   5.444   0.644
 5382WAT    HW126907   2.626   5.380   0.594
 5382WAT    HW226908   2.560   5.516   0.583
 5382WAT    LP126909   2.516   5.416   0.666
 5382WAT    LP226910   2.613   5.466   0.699
 5383WAT     OW26911   5.697   1.751   2.872
 5383WAT    HW126912   5.777   1.785   2.833
 5383WAT    HW226913   5.627   1.801   2.831
 5383WAT    LP126914   5.690   1.683   2.858
 5383WAT    LP226915   5.697   1.761   2.942
 5384WAT     OW26916   1.555   4.076   6.037
 5384WAT    HW126917   1.539   3.982   6.042
 5384WAT    HW226918   1.641   4.084   5.997
 5384WAT    LP126919   1.506   4.108   5.998
 5384WAT    LP226920   1.555   4.104   6.102
 5385WAT     OW26921   3.546   2.293   0.845
 5385WAT    HW126922   3.585   2.366   0.796
 5385WAT    HW226923   3.621   2.240   0.872
 5385WAT    LP126924   3.512   2.317   0.901
 5385WAT    LP226925   3.503   2.256   0.805
 5386WAT     OW26926   2.145   5.606   1.019
 5386WAT    HW126927   2.091   5.545   0.969
 5386WAT    HW226928   2.097   5.620   1.100
 5386WAT    LP126929   2.208   5.578   1.032
 5386WAT    LP226930   2.154   5.666   0.984
 5387WAT     OW26931   2.906   3.133   5.708
 5387WAT    HW126932   2.962   3.055   5.708
 5387WAT    HW226933   2.843   3.117   5.778
 5387WAT    LP126934   2.944   3.191   5.722
 5387WAT    LP226935   2.874   3.141   5.647
 5388WAT     OW26936   5.758   5.069   2.805
 5388WAT    HW126937   5.815   5.133   2.848
 5388WAT    HW226938   5.788   4.985   2.839
 5388WAT    LP126939   5.691   5.080   2.821
 5388WAT    LP226940   5.766   5.072   2.736
 5389WAT     OW26941   1.532   4.013   0.666
 5389WAT    HW126942   1.624   4.036   0.674
 5389WAT    HW226943   1.521   3.935   0.721
 5389WAT    LP126944   1.491   4.065   0.688
 5389WAT    LP226945   1.516   3.997   0.599
 5390WAT     OW26946   6.655   1.792   3.489
 5390WAT    HW126947   6.721   1.725   3.473
 5390WAT    HW226948   6.634   1.784   3.582
 5390WAT    LP126949   6.681   1.856   3.476
 5390WAT    LP226950   6.598   1.781   3.450
 5391WAT     OW26951   5.924   4.430   1.950
 5391WAT    HW126952   5.987   4.401   2.017
 5391WAT    HW226953   5.883   4.507   1.988
 5391WAT    LP126954   5.957   4.446   1.891
 5391WAT    LP226955   5.877   4.380   1.938
 5392WAT     OW26956   4.824   2.559   2.976
 5392WAT    HW126957   4.777   2.566   2.893
 5392WAT    HW226958   4.913   2.532   2.952
 5392WAT    LP126959   4.826   2.621   3.009
 5392WAT    LP226960   4.794   2.511   3.018
 5393WAT     OW26961   0.429   5.357   4.231
 5393WAT    HW126962   0.344   5.315   4.221
 5393WAT    HW226963   0.435   5.377   4.324
 5393WAT    LP126964   0.480   5.314   4.211
 5393WAT    LP226965   0.432   5.416   4.193
 5394WAT     OW26966   0.310   0.665   5.833
 5394WAT    HW126967   0.284   0.614   5.756
 5394WAT    HW226968   0.365   0.736   5.798
 5394WAT    LP126969   0.254   0.692   5.865
 5394WAT    LP226970   0.346   0.626   5.878
 5395WAT     OW26971   2.412   1.458   5.021
 5395WAT    HW126972   2.438   1.455   4.929
 5395WAT    HW226973   2.472   1.397   5.064
 5395WAT    LP126974   2.420   1.522   5.047
 5395WAT    LP226975   2.346   1.437   5.029
 5396WAT     OW26976   2.305   3.944   1.231
 5396WAT    HW126977   2.325   4.024   1.182
 5396WAT    HW226978   2.370   3.881   1.203
 5396WAT    LP126979   2.310   3.956   1.300
 5396WAT    LP226980   2.240   3.922   1.216
 5397WAT     OW26981   3.567   5.596   1.070
 5397WAT    HW126982   3.477   5.626   1.071
 5397WAT    HW226983   3.600   5.619   0.983
 5397WAT    LP126984   3.605   5.628   1.120
 5397WAT    LP226985   3.570   5.526   1.080
 5398WAT     OW26986   0.901   1.347   0.427
 5398WAT    HW126987   0.827   1.368   0.370
 5398WAT    HW226988   0.978   1.357   0.370
 5398WAT    LP126989   0.905   1.391   0.481
 5398WAT    LP226990   0.896   1.281   0.450
 5399WAT     OW26991   3.826   0.191   5.420
 5399WAT    HW126992   3.913   0.225   5.401
 5399WAT    HW226993   3.799   0.149   5.338
 5399WAT    LP126994   3.827   0.145   5.472
 5399WAT    LP226995   3.782   0.244   5.436
 5400WAT     OW26996   4.000   6.233   1.914
 5400WAT    HW126997   4.033   6.151   1.877
 5400WAT    HW226998   4.078   6.285   1.932
 5400WAT    LP126999   3.958   6.265   1.869
 5400WAT    LP227000   3.964   6.221   1.974
 5401WAT     OW27001   1.775   3.092   1.872
 5401WAT    HW127002   1.747   3.085   1.781
 5401WAT    HW227003   1.752   3.007   1.910
 5401WAT    LP127004   1.844   3.103   1.876
 5401WAT    LP227005   1.741   3.143   1.905
 5402WAT     OW27006   0.951   0.563   5.471
 5402WAT    HW127007   1.028   0.586   5.418
 5402WAT    HW227008   0.981   0.492   5.527
 5402WAT    LP127009   0.931   0.618   5.509
 5402WAT    LP227010   0.898   0.543   5.430
 5403WAT     OW27011   0.921   5.176   4.548
 5403WAT    HW127012   0.864   5.148   4.620
 5403WAT    HW227013   0.863   5.179   4.472
 5403WAT    LP127014   0.949   5.238   4.561
 5403WAT    LP227015   0.972   5.129   4.538
 5404WAT     OW27016   2.093   3.235   5.469
 5404WAT    HW127017   2.117   3.312   5.419
 5404WAT    HW227018   2.021   3.264   5.526
 5404WAT    LP127019   2.071   3.183   5.427
 5404WAT    LP227020   2.147   3.212   5.507
 5405WAT     OW27021   6.781   4.600   2.196
 5405WAT    HW127022   6.869   4.586   2.160
 5405WAT    HW227023   6.754   4.513   2.226
 5405WAT    LP127024   6.783   4.645   2.249
 5405WAT    LP227025   6.738   4.623   2.147
 5406WAT     OW27026   4.351   5.736   1.974
 5406WAT    HW127027   4.423   5.754   1.914
 5406WAT    HW227028   4.393   5.706   2.054
 5406WAT    LP127029   4.314   5.795   1.986
 5406WAT    LP227030   4.309   5.687   1.948
 5407WAT     OW27031   0.524   1.861   6.070
 5407WAT    HW127032   0.577   1.853   5.991
 5407WAT    HW227033   0.438   1.890   6.040
 5407WAT    LP127034   0.519   1.799   6.103
 5407WAT    LP227035   0.552   1.907   6.114
 5408WAT     OW27036   5.876   5.288   1.597
 5408WAT    HW127037   5.948   5.286   1.660
 5408WAT    HW227038   5.829   5.206   1.611
 5408WAT    LP127039   5.834   5.343   1.609
 5408WAT    LP227040   5.900   5.291   1.531
 5409WAT     OW27041   0.646   2.792   0.422
 5409WAT    HW127042   0.631   2.878   0.384
 5409WAT    HW227043   0.740   2.776   0.409
 5409WAT    LP127044   0.630   2.791   0.490
 5409WAT    LP227045   0.608   2.743   0.388
 5410WAT     OW27046   5.291   0.619   1.904
 5410WAT    HW127047   5.281   0.552   1.836
 5410WAT    HW227048   5.248   0.696   1.868
 5410WAT    LP127049   5.260   0.599   1.963
 5410WAT    LP227050   5.359   0.632   1.916
 5411WAT     OW27051   0.885   6.221   0.195
 5411WAT    HW127052   0.845   6.145   0.238
 5411WAT    HW227053   0.872   6.293   0.256
 5411WAT    LP127054   0.953   6.209   0.184
 5411WAT    LP227055   0.854   6.234   0.134
 5412WAT     OW27056   5.548   6.122   2.298
 5412WAT    HW127057   5.486   6.190   2.325
 5412WAT    HW227058   5.493   6.051   2.265
 5412WAT    LP127059   5.590   6.145   2.248
 5412WAT    LP227060   5.586   6.100   2.353
 5413WAT     OW27061   0.640   0.627   4.417
 5413WAT    HW127062   0.628   0.556   4.353
 5413WAT    HW227063   0.723   0.608   4.460
 5413WAT    LP127064   0.641   0.689   4.386
 5413WAT    LP227065   0.588   0.626   4.464
 5414WAT     OW27066   3.501   1.337   3.023
 5414WAT    HW127067   3.595   1.352   3.019
 5414WAT    HW227068   3.485   1.311   3.114
 5414WAT    LP127069   3.465   1.395   3.008
 5414WAT    LP227070   3.482   1.285   2.980
 5415WAT     OW27071   3.774   6.354   4.943
 5415WAT    HW127072   3.796   6.423   4.882
 5415WAT    HW227073   3.855   6.304   4.954
 5415WAT    LP127074   3.753   6.380   5.004
 5415WAT    LP227075   3.723   6.313   4.917
 5416WAT     OW27076   4.163   3.229   5.202
 5416WAT    HW127077   4.254   3.227   5.232
 5416WAT    HW227078   4.167   3.191   5.114
 5416WAT    LP127079   4.122   3.191   5.244
 5416WAT    LP227080   4.140   3.295   5.199
 5417WAT     OW27081   0.922   0.981   2.167
 5417WAT    HW127082   0.882   1.044   2.227
 5417WAT    HW227083   0.997   0.946   2.216
 5417WAT    LP127084   0.877   0.930   2.151
 5417WAT    LP227085   0.944   1.013   2.108
 5418WAT     OW27086   3.781   3.545   1.224
 5418WAT    HW127087   3.840   3.525   1.296
 5418WAT    HW227088   3.817   3.625   1.185
 5418WAT    LP127089   3.779   3.493   1.177
 5418WAT    LP227090   3.716   3.557   1.247
 5419WAT     OW27091   6.794   3.994   6.245
 5419WAT    HW127092   6.711   3.985   6.196
 5419WAT    HW227093   6.802   3.911   6.292
 5419WAT    LP127094   6.847   4.003   6.201
 5419WAT    LP227095   6.790   4.048   6.289
 5420WAT     OW27096   6.503   2.312   6.542
 5420WAT    HW127097   6.409   2.298   6.547
 5420WAT    HW227098   6.538   2.275   6.623
 5420WAT    LP127099   6.530   2.278   6.486
 5420WAT    LP227100   6.518   2.380   6.537
 5421WAT     OW27101   2.874   3.401   5.427
 5421WAT    HW127102   2.925   3.413   5.507
 5421WAT    HW227103   2.935   3.421   5.356
 5421WAT    LP127104   2.851   3.336   5.422
 5421WAT    LP227105   2.819   3.445   5.426
 5422WAT     OW27106   6.318   3.476   6.108
 5422WAT    HW127107   6.320   3.381   6.114
 5422WAT    HW227108   6.331   3.495   6.015
 5422WAT    LP127109   6.257   3.501   6.130
 5422WAT    LP227110   6.370   3.505   6.146
 5423WAT     OW27111   1.064   6.169   4.738
 5423WAT    HW127112   1.057   6.133   4.650
 5423WAT    HW227113   1.006   6.116   4.791
 5423WAT    LP127114   1.130   6.164   4.761
 5423WAT    LP227115   1.045   6.236   4.738
 5424WAT     OW27116   5.810   3.187   0.009
 5424WAT    HW127117   5.844   3.270   0.042
 5424WAT    HW227118   5.760   3.211  -0.068
 5424WAT    LP127119   5.863   3.143  -0.008
 5424WAT    LP227120   5.769   3.156   0.057
 5425WAT     OW27121   4.294   4.914   4.992
 5425WAT    HW127122   4.313   4.846   4.928
 5425WAT    HW227123   4.355   4.985   4.970
 5425WAT    LP127124   4.228   4.936   4.986
 5425WAT    LP227125   4.306   4.891   5.057
 5426WAT     OW27126   0.815   1.061   0.762
 5426WAT    HW127127   0.817   1.074   0.667
 5426WAT    HW227128   0.899   1.095   0.793
 5426WAT    LP127129   0.762   1.097   0.790
 5426WAT    LP227130   0.808   0.993   0.778
 5427WAT     OW27131   3.529   1.033   5.309
 5427WAT    HW127132   3.610   1.063   5.269
 5427WAT    HW227133   3.490   1.112   5.346
 5427WAT    LP127134   3.487   1.005   5.261
 5427WAT    LP227135   3.542   0.986   5.360
 5428WAT     OW27136   4.911   1.834   3.426
 5428WAT    HW127137   4.847   1.764   3.443
 5428WAT    HW227138   4.946   1.814   3.339
 5428WAT    LP127139   4.881   1.896   3.427
 5428WAT    LP227140   4.962   1.832   3.474
 5429WAT     OW27141   4.264   4.148   4.116
 5429WAT    HW127142   4.205   4.188   4.181
 5429WAT    HW227143   4.230   4.060   4.104
 5429WAT    LP127144   4.262   4.184   4.056
 5429WAT    LP227145   4.330   4.147   4.140
 5430WAT     OW27146   3.112   4.606   5.511
 5430WAT    HW127147   3.143   4.608   5.602
 5430WAT    HW227148   3.125   4.696   5.480
 5430WAT    LP127149   3.150   4.561   5.473
 5430WAT    LP227150   3.044   4.589   5.508
 5431WAT     OW27151   4.936   2.278   4.575
 5431WAT    HW127152   4.853   2.313   4.606
 5431WAT    HW227153   5.001   2.342   4.604
 5431WAT    LP127154   4.948   2.215   4.604
 5431WAT    LP227155   4.937   2.273   4.505
 5432WAT     OW27156   6.088   6.592   3.104
 5432WAT    HW127157   6.017   6.554   3.053
 5432WAT    HW227158   6.077   6.557   3.192
 5432WAT    LP127159   6.150   6.573   3.078
 5432WAT    LP227160   6.084   6.662   3.105
 5433WAT     OW27161   0.061   5.498   2.153
 5433WAT    HW127162  -0.023   5.543   2.160
 5433WAT    HW227163   0.063   5.438   2.228
 5433WAT    LP127164   0.065   5.462   2.093
 5433WAT    LP227165   0.114   5.544   2.156
 5434WAT     OW27166   5.236   2.036   6.356
 5434WAT    HW127167   5.244   2.124   6.320
 5434WAT    HW227168   5.226   1.980   6.279
 5434WAT    LP127169   5.293   2.018   6.393
 5434WAT    LP227170   5.179   2.031   6.397
 5435WAT     OW27171   1.578   2.007   0.650
 5435WAT    HW127172   1.521   1.963   0.713
 5435WAT    HW227173   1.521   2.068   0.604
 5435WAT    LP127174   1.630   2.041   0.683
 5435WAT    LP227175   1.606   1.960   0.606
 5436WAT     OW27176   6.753   1.279   1.262
 5436WAT    HW127177   6.790   1.363   1.287
 5436WAT    HW227178   6.700   1.252   1.337
 5436WAT    LP127179   6.713   1.285   1.205
 5436WAT    LP227180   6.803   1.232   1.249
 5437WAT     OW27181   1.451   5.355   6.150
 5437WAT    HW127182   1.449   5.368   6.055
 5437WAT    HW227183   1.544   5.347   6.171
 5437WAT    LP127184   1.423   5.409   6.183
 5437WAT    LP227185   1.417   5.296   6.167
 5438WAT     OW27186   3.831   3.818   5.564
 5438WAT    HW127187   3.738   3.836   5.581
 5438WAT    HW227188   3.856   3.880   5.497
 5438WAT    LP127189   3.869   3.827   5.622
 5438WAT    LP227190   3.839   3.752   5.541
 5439WAT     OW27191   4.321   5.114   3.185
 5439WAT    HW127192   4.327   5.161   3.268
 5439WAT    HW227193   4.360   5.028   3.203
 5439WAT    LP127194   4.254   5.107   3.165
 5439WAT    LP227195   4.356   5.147   3.134
 5440WAT     OW27196   2.920   1.672   6.134
 5440WAT    HW127197   2.991   1.613   6.110
 5440WAT    HW227198   2.887   1.706   6.051
 5440WAT    LP127199   2.870   1.637   6.169
 5440WAT    LP227200   2.944   1.724   6.175
 5441WAT     OW27201   4.352   5.750   5.360
 5441WAT    HW127202   4.294   5.739   5.285
 5441WAT    HW227203   4.440   5.753   5.323
 5441WAT    LP127204   4.338   5.810   5.394
 5441WAT    LP227205   4.346   5.697   5.405
 5442WAT     OW27206   3.661   2.778   0.769
 5442WAT    HW127207   3.577   2.757   0.728
 5442WAT    HW227208   3.638   2.810   0.856
 5442WAT    LP127209   3.701   2.721   0.774
 5442WAT    LP227210   3.695   2.827   0.733
 5443WAT     OW27211   3.743   1.411   2.341
 5443WAT    HW127212   3.839   1.417   2.337
 5443WAT    HW227213   3.720   1.351   2.271
 5443WAT    LP127214   3.723   1.386   2.403
 5443WAT    LP227215   3.714   1.474   2.331
 5444WAT     OW27216   3.223   5.278   0.352
 5444WAT    HW127217   3.212   5.184   0.366
 5444WAT    HW227218   3.158   5.318   0.411
 5444WAT    LP127219   3.287   5.298   0.370
 5444WAT    LP227220   3.210   5.295   0.286
 5445WAT     OW27221   1.802   5.109   1.236
 5445WAT    HW127222   1.873   5.049   1.213
 5445WAT    HW227223   1.726   5.078   1.187
 5445WAT    LP127224   1.790   5.108   1.305
 5445WAT    LP227225   1.819   5.175   1.217
 5446WAT     OW27226   6.400   0.565   1.106
 5446WAT    HW127227   6.418   0.659   1.112
 5446WAT    HW227228   6.315   0.554   1.148
 5446WAT    LP127229   6.397   0.545   1.039
 5446WAT    LP227230   6.449   0.528   1.139
 5447WAT     OW27231   5.594   0.624   2.497
 5447WAT    HW127232   5.621   0.648   2.409
 5447WAT    HW227233   5.660   0.665   2.555
 5447WAT    LP127234   5.530   0.649   2.512
 5447WAT    LP227235   5.595   0.554   2.505
 5448WAT     OW27236   5.632   5.879   0.944
 5448WAT    HW127237   5.559   5.821   0.964
 5448WAT    HW227238   5.639   5.937   1.019
 5448WAT    LP127239   5.691   5.843   0.935
 5448WAT    LP227240   5.619   5.916   0.885
 5449WAT     OW27241   4.508   1.346   0.467
 5449WAT    HW127242   4.495   1.302   0.551
 5449WAT    HW227243   4.425   1.336   0.421
 5449WAT    LP127244   4.523   1.414   0.477
 5449WAT    LP227245   4.560   1.316   0.431
 5450WAT     OW27246   5.582   2.765   4.928
 5450WAT    HW127247   5.532   2.709   4.869
 5450WAT    HW227248   5.644   2.706   4.971
 5450WAT    LP127249   5.616   2.815   4.892
 5450WAT    LP227250   5.540   2.795   4.975
 5451WAT     OW27251   6.454   5.396   0.869
 5451WAT    HW127252   6.491   5.331   0.809
 5451WAT    HW227253   6.528   5.424   0.923
 5451WAT    LP127254   6.427   5.450   0.833
 5451WAT    LP227255   6.404   5.367   0.908
 5452WAT     OW27256   5.014   5.066   4.989
 5452WAT    HW127257   4.985   5.139   4.935
 5452WAT    HW227258   5.028   5.105   5.076
 5452WAT    LP127259   4.965   5.017   4.992
 5452WAT    LP227260   5.074   5.039   4.965
 5453WAT     OW27261   4.066   2.505   3.359
 5453WAT    HW127262   3.988   2.482   3.308
 5453WAT    HW227263   4.136   2.454   3.318
 5453WAT    LP127264   4.079   2.573   3.355
 5453WAT    LP227265   4.058   2.486   3.426
 5454WAT     OW27266   6.321   4.518   1.358
 5454WAT    HW127267   6.231   4.485   1.362
 5454WAT    HW227268   6.341   4.542   1.449
 5454WAT    LP127269   6.364   4.468   1.335
 5454WAT    LP227270   6.325   4.573   1.316
 5455WAT     OW27271   5.468   2.646   2.657
 5455WAT    HW127272   5.455   2.588   2.731
 5455WAT    HW227273   5.470   2.588   2.581
 5455WAT    LP127274   5.416   2.692   2.652
 5455WAT    LP227275   5.529   2.681   2.663
 5456WAT     OW27276   2.984   5.040   4.437
 5456WAT    HW127277   3.019   5.124   4.465
 5456WAT    HW227278   2.969   5.051   4.343
 5456WAT    LP127279   3.029   4.988   4.449
 5456WAT    LP227280   2.924   5.026   4.470
 5457WAT     OW27281   3.116   6.194   0.266
 5457WAT    HW127282   3.180   6.248   0.313
 5457WAT    HW227283   3.155   6.181   0.179
 5457WAT    LP127284   3.107   6.133   0.298
 5457WAT    LP227285   3.055   6.227   0.260
 5458WAT     OW27286   1.279   4.088   3.460
 5458WAT    HW127287   1.356   4.033   3.476
 5458WAT    HW227288   1.311   4.178   3.465
 5458WAT    LP127289   1.251   4.075   3.397
 5458WAT    LP227290   1.230   4.077   3.509
 5459WAT     OW27291   4.736   3.248   4.923
 5459WAT    HW127292   4.684   3.189   4.977
 5459WAT    HW227293   4.805   3.281   4.981
 5459WAT    LP127294   4.764   3.214   4.869
 5459WAT    LP227295   4.697   3.301   4.899
 5460WAT     OW27296   2.712   6.477   2.613
 5460WAT    HW127297   2.727   6.569   2.635
 5460WAT    HW227298   2.659   6.444   2.685
 5460WAT    LP127299   2.678   6.472   2.552
 5460WAT    LP227300   2.773   6.443   2.609
 5461WAT     OW27301   6.156   3.287   1.621
 5461WAT    HW127302   6.144   3.353   1.689
 5461WAT    HW227303   6.149   3.203   1.667
 5461WAT    LP127304   6.106   3.293   1.572
 5461WAT    LP227305   6.219   3.293   1.591
 5462WAT     OW27306   5.902   1.081   1.232
 5462WAT    HW127307   5.846   1.143   1.279
 5462WAT    HW227308   5.990   1.095   1.269
 5462WAT    LP127309   5.881   1.015   1.244
 5462WAT    LP227310   5.902   1.094   1.163
 5463WAT     OW27311   1.747   4.625   1.353
 5463WAT    HW127312   1.700   4.542   1.343
 5463WAT    HW227313   1.787   4.640   1.268
 5463WAT    LP127314   1.703   4.677   1.369
 5463WAT    LP227315   1.796   4.620   1.403
 5464WAT     OW27316   2.730   1.563   6.305
 5464WAT    HW127317   2.798   1.606   6.252
 5464WAT    HW227318   2.672   1.634   6.330
 5464WAT    LP127319   2.696   1.515   6.267
 5464WAT    LP227320   2.759   1.533   6.361
 5465WAT     OW27321   0.258   2.335   0.505
 5465WAT    HW127322   0.209   2.264   0.546
 5465WAT    HW227323   0.211   2.414   0.530
 5465WAT    LP127324   0.324   2.337   0.529
 5465WAT    LP227325   0.259   2.327   0.435
 5466WAT     OW27326   0.504   1.034   6.061
 5466WAT    HW127327   0.496   1.001   6.151
 5466WAT    HW227328   0.567   1.106   6.068
 5466WAT    LP127329   0.528   0.983   6.019
 5466WAT    LP227330   0.443   1.057   6.037
 5467WAT     OW27331   5.676   2.824   2.628
 5467WAT    HW127332   5.647   2.898   2.682
 5467WAT    HW227333   5.604   2.761   2.633
 5467WAT    LP127334   5.686   2.844   2.562
 5467WAT    LP227335   5.735   2.796   2.654
 5468WAT     OW27336   0.804   5.621   5.495
 5468WAT    HW127337   0.772   5.696   5.544
 5468WAT    HW227338   0.899   5.632   5.491
 5468WAT    LP127339   0.787   5.561   5.527
 5468WAT    LP227340   0.776   5.620   5.430
 5469WAT     OW27341   3.346   3.656   0.669
 5469WAT    HW127342   3.345   3.725   0.736
 5469WAT    HW227343   3.303   3.696   0.593
 5469WAT    LP127344   3.411   3.637   0.654
 5469WAT    LP227345   3.310   3.600   0.691
 5470WAT     OW27346   5.795   2.445   5.293
 5470WAT    HW127347   5.771   2.426   5.384
 5470WAT    HW227348   5.738   2.389   5.241
 5470WAT    LP127349   5.785   2.512   5.278
 5470WAT    LP227350   5.862   2.429   5.281
 5471WAT     OW27351   1.639   5.059   3.312
 5471WAT    HW127352   1.556   5.100   3.332
 5471WAT    HW227353   1.617   4.986   3.253
 5471WAT    LP127354   1.682   5.104   3.280
 5471WAT    LP227355   1.670   5.035   3.370
 5472WAT     OW27356   3.893   3.666   3.804
 5472WAT    HW127357   3.861   3.585   3.765
 5472WAT    HW227358   3.821   3.696   3.860
 5472WAT    LP127359   3.950   3.655   3.842
 5472WAT    LP227360   3.907   3.714   3.755
 5473WAT     OW27361   0.566   5.801   4.733
 5473WAT    HW127362   0.482   5.827   4.773
 5473WAT    HW227363   0.598   5.881   4.692
 5473WAT    LP127364   0.610   5.778   4.782
 5473WAT    LP227365   0.556   5.751   4.685
 5474WAT     OW27366   4.636   6.577   3.283
 5474WAT    HW127367   4.655   6.503   3.341
 5474WAT    HW227368   4.700   6.568   3.212
 5474WAT    LP127369   4.571   6.573   3.259
 5474WAT    LP227370   4.645   6.637   3.317
 5475WAT     OW27371   5.028   0.812   0.580
 5475WAT    HW127372   5.046   0.754   0.506
 5475WAT    HW227373   4.939   0.843   0.565
 5475WAT    LP127374   5.033   0.778   0.640
 5475WAT    LP227375   5.073   0.866   0.580
 5476WAT     OW27376   6.190   2.435   5.579
 5476WAT    HW127377   6.140   2.512   5.551
 5476WAT    HW227378   6.281   2.459   5.562
 5476WAT    LP127379   6.180   2.423   5.647
 5476WAT    LP227380   6.172   2.379   5.542
 5477WAT     OW27381   3.283   4.808   4.662
 5477WAT    HW127382   3.317   4.718   4.659
 5477WAT    HW227383   3.208   4.807   4.602
 5477WAT    LP127384   3.262   4.824   4.727
 5477WAT    LP227385   3.332   4.854   4.641
 5478WAT     OW27386   0.595   5.330   3.381
 5478WAT    HW127387   0.620   5.406   3.329
 5478WAT    HW227388   0.538   5.279   3.323
 5478WAT    LP127389   0.652   5.292   3.399
 5478WAT    LP227390   0.561   5.349   3.438
 5479WAT     OW27391   2.072   4.226   4.152
 5479WAT    HW127392   2.030   4.176   4.222
 5479WAT    HW227393   2.008   4.225   4.080
 5479WAT    LP127394   2.085   4.292   4.173
 5479WAT    LP227395   2.131   4.196   4.132
 5480WAT     OW27396   5.589   0.506   3.362
 5480WAT    HW127397   5.540   0.502   3.443
 5480WAT    HW227398   5.667   0.557   3.383
 5480WAT    LP127399   5.607   0.442   3.340
 5480WAT    LP227400   5.552   0.538   3.312
 5481WAT     OW27401   0.246   1.282   0.724
 5481WAT    HW127402   0.235   1.365   0.678
 5481WAT    HW227403   0.196   1.219   0.672
 5481WAT    LP127404   0.313   1.264   0.727
 5481WAT    LP227405   0.220   1.286   0.789
 5482WAT     OW27406   0.929   1.869   2.589
 5482WAT    HW127407   0.897   1.953   2.557
 5482WAT    HW227408   0.962   1.824   2.511
 5482WAT    LP127409   0.980   1.878   2.636
 5482WAT    LP227410   0.877   1.832   2.618
 5483WAT     OW27411   5.864   3.432   6.110
 5483WAT    HW127412   5.923   3.477   6.050
 5483WAT    HW227413   5.791   3.403   6.055
 5483WAT    LP127414   5.896   3.377   6.139
 5483WAT    LP227415   5.842   3.475   6.160
 5484WAT     OW27416   2.006   3.698   3.808
 5484WAT    HW127417   2.064   3.773   3.823
 5484WAT    HW227418   1.925   3.736   3.775
 5484WAT    LP127419   2.035   3.654   3.761
 5484WAT    LP227420   1.995   3.663   3.868
 5485WAT     OW27421   4.433   4.328   4.702
 5485WAT    HW127422   4.501   4.394   4.690
 5485WAT    HW227423   4.351   4.374   4.684
 5485WAT    LP127424   4.442   4.275   4.657
 5485WAT    LP227425   4.434   4.303   4.767
 5486WAT     OW27426   3.558   1.091   0.642
 5486WAT    HW127427   3.468   1.072   0.617
 5486WAT    HW227428   3.563   1.187   0.644
 5486WAT    LP127429   3.572   1.065   0.706
 5486WAT    LP227430   3.603   1.065   0.596
 5487WAT     OW27431   0.019   1.494   2.324
 5487WAT    HW127432   0.047   1.449   2.244
 5487WAT    HW227433   0.096   1.495   2.379
 5487WAT    LP127434  -0.003   1.559   2.310
 5487WAT    LP227435  -0.033   1.458   2.355
 5488WAT     OW27436   1.237   0.781   6.149
 5488WAT    HW127437   1.143   0.765   6.138
 5488WAT    HW227438   1.260   0.735   6.230
 5488WAT    LP127439   1.273   0.755   6.094
 5488WAT    LP227440   1.249   0.849   6.154
 5489WAT     OW27441   4.174   3.298   3.204
 5489WAT    HW127442   4.099   3.347   3.171
 5489WAT    HW227443   4.210   3.253   3.127
 5489WAT    LP127444   4.222   3.341   3.232
 5489WAT    LP227445   4.154   3.251   3.252
 5490WAT     OW27446   3.292   4.547   0.644
 5490WAT    HW127447   3.345   4.480   0.602
 5490WAT    HW227448   3.300   4.529   0.738
 5490WAT    LP127449   3.317   4.611   0.629
 5490WAT    LP227450   3.225   4.543   0.623
 5491WAT     OW27451   4.069   0.689   2.832
 5491WAT    HW127452   4.092   0.605   2.870
 5491WAT    HW227453   4.078   0.676   2.738
 5491WAT    LP127454   4.003   0.707   2.849
 5491WAT    LP227455   4.113   0.739   2.854
 5492WAT     OW27456   4.328   2.776   0.969
 5492WAT    HW127457   4.318   2.697   0.917
 5492WAT    HW227458   4.395   2.827   0.923
 5492WAT    LP127459   4.267   2.812   0.972
 5492WAT    LP227460   4.349   2.761   1.034
 5493WAT     OW27461   1.998   3.758   1.864
 5493WAT    HW127462   1.982   3.838   1.915
 5493WAT    HW227463   1.962   3.777   1.778
 5493WAT    LP127464   2.067   3.745   1.860
 5493WAT    LP227465   1.966   3.703   1.893
 5494WAT     OW27466   2.416   6.486   4.908
 5494WAT    HW127467   2.487   6.429   4.938
 5494WAT    HW227468   2.336   6.438   4.929
 5494WAT    LP127469   2.418   6.547   4.943
 5494WAT    LP227470   2.421   6.498   4.840
 5495WAT     OW27471   0.314   2.859   2.815
 5495WAT    HW127472   0.286   2.780   2.770
 5495WAT    HW227473   0.248   2.925   2.792
 5495WAT    LP127474   0.316   2.849   2.884
 5495WAT    LP227475   0.377   2.879   2.793
 5496WAT     OW27476   5.687   4.292   1.227
 5496WAT    HW127477   5.618   4.232   1.197
 5496WAT    HW227478   5.642   4.375   1.242
 5496WAT    LP127479   5.717   4.269   1.286
 5496WAT    LP227480   5.737   4.299   1.177
 5497WAT     OW27481   4.063   3.972   3.221
 5497WAT    HW127482   3.979   4.018   3.228
 5497WAT    HW227483   4.092   3.960   3.311
 5497WAT    LP127484   4.055   3.910   3.190
 5497WAT    LP227485   4.109   4.011   3.185
 5498WAT     OW27486   6.295   6.427   3.767
 5498WAT    HW127487   6.257   6.515   3.768
 5498WAT    HW227488   6.290   6.399   3.859
 5498WAT    LP127489   6.257   6.384   3.727
 5498WAT    LP227490   6.361   6.429   3.745
 5499WAT     OW27491   6.541   1.557   4.363
 5499WAT    HW127492   6.521   1.592   4.276
 5499WAT    HW227493   6.456   1.545   4.404
 5499WAT    LP127494   6.576   1.497   4.358
 5499WAT    LP227495   6.580   1.603   4.400
 5500WAT     OW27496   1.414   4.020   6.478
 5500WAT    HW127497   1.326   4.054   6.465
 5500WAT    HW227498   1.410   3.970   6.559
 5500WAT    LP127499   1.434   3.980   6.424
 5500WAT    LP227500   1.460   4.073   6.484
 5501WAT     OW27501   6.583   3.394   3.122
 5501WAT    HW127502   6.579   3.441   3.039
 5501WAT    HW227503   6.633   3.452   3.180
 5501WAT    LP127504   6.519   3.384   3.147
 5501WAT    LP227505   6.616   3.333   3.114
 5502WAT     OW27506   1.155   3.356   3.317
 5502WAT    HW127507   1.244   3.339   3.287
 5502WAT    HW227508   1.105   3.370   3.236
 5502WAT    LP127509   1.130   3.301   3.352
 5502WAT    LP227510   1.153   3.413   3.358
 5503WAT     OW27511   6.128   4.525   2.359
 5503WAT    HW127512   6.148   4.614   2.389
 5503WAT    HW227513   6.180   4.469   2.416
 5503WAT    LP127514   6.060   4.512   2.366
 5503WAT    LP227515   6.147   4.517   2.292
 5504WAT     OW27516   1.471   0.317   2.747
 5504WAT    HW127517   1.431   0.347   2.829
 5504WAT    HW227518   1.409   0.253   2.712
 5504WAT    LP127519   1.479   0.370   2.702
 5504WAT    LP227520   1.533   0.287   2.759
 5505WAT     OW27521   3.154   0.517   5.492
 5505WAT    HW127522   3.070   0.541   5.454
 5505WAT    HW227523   3.203   0.599   5.498
 5505WAT    LP127524   3.146   0.488   5.555
 5505WAT    LP227525   3.188   0.471   5.450
 5506WAT     OW27526   1.360   0.816   4.946
 5506WAT    HW127527   1.323   0.752   4.886
 5506WAT    HW227528   1.284   0.865   4.978
 5506WAT    LP127529   1.392   0.784   5.000
 5506WAT    LP227530   1.405   0.858   4.914
 5507WAT     OW27531   2.133   2.610   2.257
 5507WAT    HW127532   2.130   2.627   2.351
 5507WAT    HW227533   2.047   2.636   2.225
 5507WAT    LP127534   2.183   2.648   2.226
 5507WAT    LP227535   2.144   2.542   2.245
 5508WAT     OW27536   1.398   4.433   1.995
 5508WAT    HW127537   1.419   4.359   2.052
 5508WAT    HW227538   1.354   4.393   1.919
 5508WAT    LP127539   1.356   4.478   2.027
 5508WAT    LP227540   1.456   4.466   1.975
 5509WAT     OW27541   2.498   4.021   3.081
 5509WAT    HW127542   2.538   4.008   3.167
 5509WAT    HW227543   2.487   4.116   3.074
 5509WAT    LP127544   2.541   3.997   3.031
 5509WAT    LP227545   2.437   3.988   3.077
 5510WAT     OW27546   3.599   0.123   2.825
 5510WAT    HW127547   3.594   0.113   2.920
 5510WAT    HW227548   3.553   0.046   2.790
 5510WAT    LP127549   3.567   0.182   2.804
 5510WAT    LP227550   3.665   0.124   2.803
 5511WAT     OW27551   3.744   3.225   6.399
 5511WAT    HW127552   3.684   3.262   6.463
 5511WAT    HW227553   3.821   3.198   6.449
 5511WAT    LP127554   3.715   3.169   6.367
 5511WAT    LP227555   3.761   3.272   6.350
 5512WAT     OW27556   0.602   4.476   4.443
 5512WAT    HW127557   0.695   4.497   4.437
 5512WAT    HW227558   0.590   4.441   4.531
 5512WAT    LP127559   0.562   4.533   4.434
 5512WAT    LP227560   0.584   4.428   4.395
 5513WAT     OW27561   1.855   1.578   2.035
 5513WAT    HW127562   1.882   1.486   2.040
 5513WAT    HW227563   1.816   1.596   2.120
 5513WAT    LP127564   1.911   1.619   2.024
 5513WAT    LP227565   1.809   1.587   1.983
 5514WAT     OW27566   2.984   4.732   2.051
 5514WAT    HW127567   2.957   4.646   2.019
 5514WAT    HW227568   2.903   4.771   2.085
 5514WAT    LP127569   3.032   4.726   2.101
 5514WAT    LP227570   3.009   4.771   1.999
 5515WAT     OW27571   3.108   6.024   6.317
 5515WAT    HW127572   3.068   6.086   6.378
 5515WAT    HW227573   3.041   6.010   6.250
 5515WAT    LP127574   3.166   6.051   6.288
 5515WAT    LP227575   3.124   5.964   6.349
 5516WAT     OW27576   1.906   3.226   1.578
 5516WAT    HW127577   1.859   3.280   1.514
 5516WAT    HW227578   1.918   3.283   1.654
 5516WAT    LP127579   1.868   3.170   1.595
 5516WAT    LP227580   1.968   3.206   1.552
 5517WAT     OW27581   1.711   3.467   4.397
 5517WAT    HW127582   1.777   3.493   4.460
 5517WAT    HW227583   1.636   3.523   4.415
 5517WAT    LP127584   1.734   3.477   4.331
 5517WAT    LP227585   1.694   3.399   4.405
 5518WAT     OW27586   1.299   0.069   5.396
 5518WAT    HW127587   1.295   0.044   5.488
 5518WAT    HW227588   1.385   0.109   5.385
 5518WAT    LP127589   1.293   0.013   5.355
 5518WAT    LP227590   1.248   0.115   5.380
 5519WAT     OW27591   2.945   1.014   6.365
 5519WAT    HW127592   2.964   0.920   6.367
 5519WAT    HW227593   3.027   1.054   6.337
 5519WAT    LP127594   2.894   1.028   6.319
 5519WAT    LP227595   2.927   1.037   6.429
 5520WAT     OW27596   6.035   1.041   2.765
 5520WAT    HW127597   5.978   1.050   2.688
 5520WAT    HW227598   6.093   0.968   2.743
 5520WAT    LP127599   6.071   1.100   2.775
 5520WAT    LP227600   5.997   1.026   2.822
 5521WAT     OW27601   0.030   5.197   0.588
 5521WAT    HW127602   0.113   5.171   0.627
 5521WAT    HW227603   0.031   5.158   0.501
 5521WAT    LP127604  -0.024   5.173   0.626
 5521WAT    LP227605   0.025   5.267   0.583
 5522WAT     OW27606   2.787   2.097   6.635
 5522WAT    HW127607   2.774   2.185   6.669
 5522WAT    HW227608   2.863   2.064   6.682
 5522WAT    LP127609   2.731   2.057   6.647
 5522WAT    LP227610   2.800   2.099   6.566
 5523WAT     OW27611   2.963   1.306   4.302
 5523WAT    HW127612   3.013   1.363   4.244
 5523WAT    HW227613   2.876   1.303   4.263
 5523WAT    LP127614   2.991   1.242   4.304
 5523WAT    LP227615   2.961   1.333   4.366
 5524WAT     OW27616   4.863   4.100   5.244
 5524WAT    HW127617   4.812   4.079   5.322
 5524WAT    HW227618   4.801   4.145   5.187
 5524WAT    LP127619   4.916   4.142   5.261
 5524WAT    LP227620   4.887   4.042   5.214
 5525WAT     OW27621   2.203   5.242   6.133
 5525WAT    HW127622   2.248   5.185   6.071
 5525WAT    HW227623   2.256   5.322   6.135
 5525WAT    LP127624   2.138   5.256   6.112
 5525WAT    LP227625   2.200   5.213   6.197
 5526WAT     OW27626   4.827   4.911   0.174
 5526WAT    HW127627   4.809   4.848   0.244
 5526WAT    HW227628   4.892   4.970   0.210
 5526WAT    LP127629   4.851   4.878   0.117
 5526WAT    LP227630   4.768   4.946   0.157
 5527WAT     OW27631   3.599   6.536   4.526
 5527WAT    HW127632   3.529   6.529   4.461
 5527WAT    HW227633   3.666   6.588   4.482
 5527WAT    LP127634   3.576   6.569   4.583
 5527WAT    LP227635   3.623   6.473   4.543
 5528WAT     OW27636   0.898   2.466   2.697
 5528WAT    HW127637   0.836   2.403   2.661
 5528WAT    HW227638   0.939   2.506   2.620
 5528WAT    LP127639   0.865   2.515   2.736
 5528WAT    LP227640   0.946   2.434   2.737
 5529WAT     OW27641   0.399   3.489   3.588
 5529WAT    HW127642   0.446   3.407   3.575
 5529WAT    HW227643   0.368   3.514   3.501
 5529WAT    LP127644   0.345   3.480   3.632
 5529WAT    LP227645   0.442   3.538   3.615
 5530WAT     OW27646   1.135   6.388   3.402
 5530WAT    HW127647   1.215   6.362   3.356
 5530WAT    HW227648   1.160   6.391   3.495
 5530WAT    LP127649   1.113   6.451   3.381
 5530WAT    LP227650   1.084   6.341   3.392
 5531WAT     OW27651   6.059   4.987   1.346
 5531WAT    HW127652   6.136   5.004   1.400
 5531WAT    HW227653   6.020   5.073   1.332
 5531WAT    LP127654   6.078   4.958   1.285
 5531WAT    LP227655   6.015   4.944   1.380
 5532WAT     OW27656   2.615   4.512   6.614
 5532WAT    HW127657   2.703   4.513   6.575
 5532WAT    HW227658   2.625   4.561   6.695
 5532WAT    LP127659   2.569   4.543   6.571
 5532WAT    LP227660   2.595   4.447   6.626
 5533WAT     OW27661   5.987   2.283   0.088
 5533WAT    HW127662   5.980   2.188   0.083
 5533WAT    HW227663   5.909   2.316   0.044
 5533WAT    LP127664   5.988   2.304   0.155
 5533WAT    LP227665   6.045   2.306   0.056
 5534WAT     OW27666   5.848   5.331   2.413
 5534WAT    HW127667   5.807   5.251   2.447
 5534WAT    HW227668   5.810   5.401   2.465
 5534WAT    LP127669   5.917   5.328   2.421
 5534WAT    LP227670   5.833   5.339   2.345
 5535WAT     OW27671   5.167   2.646   5.102
 5535WAT    HW127672   5.205   2.563   5.074
 5535WAT    HW227673   5.147   2.633   5.195
 5535WAT    LP127674   5.213   2.698   5.094
 5535WAT    LP227675   5.109   2.660   5.066
 5536WAT     OW27676   3.153   0.923   2.622
 5536WAT    HW127677   3.183   0.933   2.712
 5536WAT    HW227678   3.074   0.870   2.629
 5536WAT    LP127679   3.139   0.985   2.593
 5536WAT    LP227680   3.201   0.890   2.583
 5537WAT     OW27681   0.333   1.795   1.490
 5537WAT    HW127682   0.395   1.861   1.521
 5537WAT    HW227683   0.307   1.826   1.403
 5537WAT    LP127684   0.363   1.732   1.486
 5537WAT    LP227685   0.278   1.792   1.533
 5538WAT     OW27686   2.577   0.742   5.889
 5538WAT    HW127687   2.599   0.672   5.828
 5538WAT    HW227688   2.485   0.761   5.871
 5538WAT    LP127689   2.585   0.721   5.955
 5538WAT    LP227690   2.616   0.799   5.877
 5539WAT     OW27691   1.582   6.108   2.180
 5539WAT    HW127692   1.497   6.112   2.136
 5539WAT    HW227693   1.640   6.162   2.125
 5539WAT    LP127694   1.578   6.134   2.244
 5539WAT    LP227695   1.605   6.042   2.182
 5540WAT     OW27696   1.660   0.033   1.996
 5540WAT    HW127697   1.696  -0.018   1.924
 5540WAT    HW227698   1.619   0.109   1.954
 5540WAT    LP127699   1.613  -0.004   2.032
 5540WAT    LP227700   1.711   0.054   2.040
 5541WAT     OW27701   0.071   5.571   0.373
 5541WAT    HW127702   0.095   5.492   0.324
 5541WAT    HW227703   0.023   5.625   0.310
 5541WAT    LP127704   0.029   5.554   0.427
 5541WAT    LP227705   0.127   5.604   0.397
 5542WAT     OW27706   4.761   5.385   4.024
 5542WAT    HW127707   4.826   5.383   4.094
 5542WAT    HW227708   4.721   5.471   4.031
 5542WAT    LP127709   4.791   5.377   3.961
 5542WAT    LP227710   4.713   5.335   4.033
 5543WAT     OW27711   2.391   1.070   3.515
 5543WAT    HW127712   2.431   1.156   3.501
 5543WAT    HW227713   2.452   1.009   3.473
 5543WAT    LP127714   2.385   1.056   3.583
 5543WAT    LP227715   2.328   1.067   3.485
 5544WAT     OW27716   4.139   6.403   0.425
 5544WAT    HW127717   4.075   6.342   0.390
 5544WAT    HW227718   4.223   6.359   0.413
 5544WAT    LP127719   4.138   6.464   0.389
 5544WAT    LP227720   4.128   6.416   0.493
 5545WAT     OW27721   3.995   6.355   1.541
 5545WAT    HW127722   3.943   6.376   1.619
 5545WAT    HW227723   3.967   6.421   1.477
 5545WAT    LP127724   4.063   6.361   1.554
 5545WAT    LP227725   3.981   6.291   1.518
 5546WAT     OW27726   2.550   2.655   3.837
 5546WAT    HW127727   2.563   2.582   3.777
 5546WAT    HW227728   2.616   2.719   3.812
 5546WAT    LP127729   2.485   2.682   3.831
 5546WAT    LP227730   2.560   2.634   3.904
 5547WAT     OW27731   3.307   2.879   3.415
 5547WAT    HW127732   3.345   2.872   3.502
 5547WAT    HW227733   3.216   2.853   3.426
 5547WAT    LP127734   3.312   2.945   3.391
 5547WAT    LP227735   3.340   2.836   3.370
 5548WAT     OW27736   1.744   3.006   1.591
 5548WAT    HW127737   1.805   3.079   1.581
 5548WAT    HW227738   1.799   2.933   1.621
 5548WAT    LP127739   1.695   3.021   1.639
 5548WAT    LP227740   1.713   2.990   1.530
 5549WAT     OW27741   4.900   5.543   2.006
 5549WAT    HW127742   4.844   5.574   1.935
 5549WAT    HW227743   4.842   5.534   2.081
 5549WAT    LP127744   4.930   5.482   1.989
 5549WAT    LP227745   4.951   5.590   2.019
 5550WAT     OW27746   2.822   2.092   5.666
 5550WAT    HW127747   2.754   2.048   5.717
 5550WAT    HW227748   2.774   2.155   5.612
 5550WAT    LP127749   2.867   2.124   5.708
 5550WAT    LP227750   2.856   2.046   5.625
 5551WAT     OW27751   4.777   0.665   3.473
 5551WAT    HW127752   4.831   0.726   3.523
 5551WAT    HW227753   4.737   0.609   3.539
 5551WAT    LP127754   4.728   0.700   3.437
 5551WAT    LP227755   4.816   0.628   3.429
 5552WAT     OW27756   3.736   4.348   1.041
 5552WAT    HW127757   3.737   4.415   1.109
 5552WAT    HW227758   3.688   4.275   1.081
 5552WAT    LP127759   3.703   4.372   0.984
 5552WAT    LP227760   3.801   4.329   1.024
 5553WAT     OW27761   6.705   2.480   4.375
 5553WAT    HW127762   6.762   2.556   4.387
 5553WAT    HW227763   6.749   2.409   4.423
 5553WAT    LP127764   6.642   2.492   4.403
 5553WAT    LP227765   6.699   2.464   4.308
 5554WAT     OW27766   3.680   4.816   4.124
 5554WAT    HW127767   3.615   4.856   4.183
 5554WAT    HW227768   3.629   4.758   4.068
 5554WAT    LP127769   3.712   4.865   4.087
 5554WAT    LP227770   3.727   4.780   4.161
 5555WAT     OW27771   1.493   5.220   2.970
 5555WAT    HW127772   1.527   5.292   3.024
 5555WAT    HW227773   1.412   5.194   3.013
 5555WAT    LP127774   1.482   5.241   2.905
 5555WAT    LP227775   1.539   5.166   2.970
 5556WAT     OW27776   1.888   3.911   4.025
 5556WAT    HW127777   1.976   3.889   3.995
 5556WAT    HW227778   1.875   4.001   3.997
 5556WAT    LP127779   1.841   3.869   3.995
 5556WAT    LP227780   1.883   3.905   4.094
 5557WAT     OW27781   3.592   3.285   5.337
 5557WAT    HW127782   3.577   3.193   5.357
 5557WAT    HW227783   3.650   3.316   5.407
 5557WAT    LP127784   3.623   3.292   5.274
 5557WAT    LP227785   3.532   3.321   5.337
 5558WAT     OW27786   2.891   4.495   1.943
 5558WAT    HW127787   2.873   4.478   1.850
 5558WAT    HW227788   2.928   4.413   1.975
 5558WAT    LP127789   2.936   4.548   1.950
 5558WAT    LP227790   2.831   4.510   1.976
 5559WAT     OW27791   5.508   3.818   2.537
 5559WAT    HW127792   5.521   3.833   2.630
 5559WAT    HW227793   5.577   3.756   2.512
 5559WAT    LP127794   5.445   3.789   2.525
 5559WAT    LP227795   5.514   3.877   2.500
 5560WAT     OW27796   1.937   6.676   4.789
 5560WAT    HW127797   1.885   6.756   4.782
 5560WAT    HW227798   1.872   6.606   4.797
 5560WAT    LP127799   1.976   6.667   4.732
 5560WAT    LP227800   1.978   6.678   4.845
 5561WAT     OW27801   6.482   2.721   1.989
 5561WAT    HW127802   6.537   2.710   1.912
 5561WAT    HW227803   6.522   2.663   2.055
 5561WAT    LP127804   6.482   2.787   2.011
 5561WAT    LP227805   6.416   2.701   1.976
 5562WAT     OW27806   2.766   5.725   6.080
 5562WAT    HW127807   2.759   5.699   5.988
 5562WAT    HW227808   2.795   5.646   6.125
 5562WAT    LP127809   2.813   5.777   6.087
 5562WAT    LP227810   2.704   5.747   6.104
 5563WAT     OW27811   3.124   5.853   4.595
 5563WAT    HW127812   3.081   5.932   4.628
 5563WAT    HW227813   3.209   5.852   4.640
 5563WAT    LP127814   3.087   5.796   4.610
 5563WAT    LP227815   3.133   5.857   4.526
 5564WAT     OW27816   1.368   3.394   2.171
 5564WAT    HW127817   1.369   3.306   2.135
 5564WAT    HW227818   1.313   3.444   2.111
 5564WAT    LP127819   1.340   3.395   2.235
 5564WAT    LP227820   1.433   3.421   2.173
 5565WAT     OW27821   4.991   3.784   4.628
 5565WAT    HW127822   5.003   3.722   4.701
 5565WAT    HW227823   5.023   3.867   4.662
 5565WAT    LP127824   5.029   3.764   4.572
 5565WAT    LP227825   4.924   3.788   4.610
 5566WAT     OW27826   4.508   4.405   5.437
 5566WAT    HW127827   4.506   4.320   5.482
 5566WAT    HW227828   4.424   4.411   5.394
 5566WAT    LP127829   4.516   4.457   5.484
 5566WAT    LP227830   4.561   4.407   5.391
 5567WAT     OW27831   6.317   5.232   6.089
 5567WAT    HW127832   6.270   5.170   6.145
 5567WAT    HW227833   6.402   5.191   6.073
 5567WAT    LP127834   6.282   5.242   6.029
 5567WAT    LP227835   6.325   5.294   6.121
 5568WAT     OW27836   0.926   0.178   5.266
 5568WAT    HW127837   0.910   0.177   5.361
 5568WAT    HW227838   0.918   0.086   5.240
 5568WAT    LP127839   0.879   0.218   5.233
 5568WAT    LP227840   0.991   0.202   5.253
 5569WAT     OW27841   2.176   2.879   0.024
 5569WAT    HW127842   2.227   2.903   0.102
 5569WAT    HW227843   2.088   2.864   0.057
 5569WAT    LP127844   2.177   2.932  -0.022
 5569WAT    LP227845   2.202   2.821  -0.005
 5570WAT     OW27846   4.947   5.902   0.532
 5570WAT    HW127847   4.989   5.978   0.574
 5570WAT    HW227848   4.962   5.916   0.438
 5570WAT    LP127849   4.977   5.843   0.553
 5570WAT    LP227850   4.879   5.901   0.546
 5571WAT     OW27851   0.055   0.153   0.242
 5571WAT    HW127852   0.104   0.199   0.310
 5571WAT    HW227853  -0.029   0.133   0.282
 5571WAT    LP127854   0.047   0.194   0.186
 5571WAT    LP227855   0.088   0.094   0.223
 5572WAT     OW27856   5.406   5.946   4.217
 5572WAT    HW127857   5.385   5.985   4.132
 5572WAT    HW227858   5.430   5.856   4.197
 5572WAT    LP127859   5.460   5.980   4.247
 5572WAT    LP227860   5.351   5.949   4.260
 5573WAT     OW27861   4.845   0.720   5.406
 5573WAT    HW127862   4.925   0.676   5.436
 5573WAT    HW227863   4.824   0.675   5.324
 5573WAT    LP127864   4.794   0.713   5.452
 5573WAT    LP227865   4.857   0.788   5.394
 5574WAT     OW27866   4.435   6.018   3.211
 5574WAT    HW127867   4.512   6.040   3.158
 5574WAT    HW227868   4.446   5.925   3.230
 5574WAT    LP127869   4.434   6.055   3.270
 5574WAT    LP227870   4.376   6.029   3.176
 5575WAT     OW27871   1.907   1.304   5.400
 5575WAT    HW127872   1.838   1.277   5.460
 5575WAT    HW227873   1.871   1.284   5.313
 5575WAT    LP127874   1.919   1.373   5.406
 5575WAT    LP227875   1.966   1.268   5.411
 5576WAT     OW27876   4.677   4.577   3.164
 5576WAT    HW127877   4.744   4.596   3.231
 5576WAT    HW227878   4.646   4.663   3.136
 5576WAT    LP127879   4.706   4.542   3.110
 5576WAT    LP227880   4.625   4.539   3.191
 5577WAT     OW27881   3.933   2.134   0.730
 5577WAT    HW127882   3.861   2.136   0.794
 5577WAT    HW227883   3.958   2.041   0.726
 5577WAT    LP127884   3.911   2.156   0.667
 5577WAT    LP227885   3.987   2.173   0.751
 5578WAT     OW27886   2.960   3.803   5.441
 5578WAT    HW127887   2.867   3.798   5.465
 5578WAT    HW227888   2.975   3.896   5.426
 5578WAT    LP127889   3.000   3.779   5.492
 5578WAT    LP227890   2.972   3.766   5.382
 5579WAT     OW27891   4.644   1.138   6.101
 5579WAT    HW127892   4.698   1.081   6.046
 5579WAT    HW227893   4.682   1.225   6.090
 5579WAT    LP127894   4.577   1.137   6.079
 5579WAT    LP227895   4.646   1.118   6.168
 5580WAT     OW27896   0.163   2.602   5.842
 5580WAT    HW127897   0.241   2.563   5.804
 5580WAT    HW227898   0.189   2.691   5.865
 5580WAT    LP127899   0.110   2.602   5.795
 5580WAT    LP227900   0.143   2.566   5.899
 5581WAT     OW27901   2.180   5.874   2.337
 5581WAT    HW127902   2.248   5.928   2.297
 5581WAT    HW227903   2.219   5.844   2.419
 5581WAT    LP127904   2.123   5.912   2.349
 5581WAT    LP227905   2.164   5.820   2.296
 5582WAT     OW27906   2.036   5.208   2.655
 5582WAT    HW127907   2.059   5.144   2.587
 5582WAT    HW227908   1.941   5.201   2.664
 5582WAT    LP127909   2.068   5.192   2.715
 5582WAT    LP227910   2.054   5.273   2.635
 5583WAT     OW27911   3.621   0.946   4.581
 5583WAT    HW127912   3.695   0.898   4.617
 5583WAT    HW227913   3.544   0.900   4.615
 5583WAT    LP127914   3.621   1.013   4.603
 5583WAT    LP227915   3.622   0.945   4.511
 5584WAT     OW27916   5.439   3.869   5.498
 5584WAT    HW127917   5.352   3.855   5.536
 5584WAT    HW227918   5.442   3.810   5.423
 5584WAT    LP127919   5.447   3.935   5.478
 5584WAT    LP227920   5.489   3.852   5.544
 5585WAT     OW27921   2.179   5.406   5.709
 5585WAT    HW127922   2.119   5.375   5.777
 5585WAT    HW227923   2.187   5.500   5.725
 5585WAT    LP127924   2.242   5.375   5.715
 5585WAT    LP227925   2.153   5.393   5.645
 5586WAT     OW27926   1.784   4.989   5.465
 5586WAT    HW127927   1.830   5.051   5.408
 5586WAT    HW227928   1.768   4.913   5.410
 5586WAT    LP127929   1.824   4.972   5.520
 5586WAT    LP227930   1.724   5.017   5.488
 5587WAT     OW27931   0.609   2.535   0.321
 5587WAT    HW127932   0.566   2.540   0.235
 5587WAT    HW227933   0.603   2.625   0.355
 5587WAT    LP127934   0.575   2.491   0.363
 5587WAT    LP227935   0.676   2.516   0.314
 5588WAT     OW27936   0.926   1.372   2.992
 5588WAT    HW127937   0.989   1.309   2.957
 5588WAT    HW227938   0.958   1.457   2.964
 5588WAT    LP127939   0.862   1.360   2.967
 5588WAT    LP227940   0.924   1.368   3.062
 5589WAT     OW27941   2.972   0.907   0.395
 5589WAT    HW127942   2.916   0.981   0.421
 5589WAT    HW227943   2.992   0.863   0.477
 5589WAT    LP127944   2.937   0.864   0.352
 5589WAT    LP227945   3.030   0.930   0.364
 5590WAT     OW27946   1.530   3.812   6.336
 5590WAT    HW127947   1.480   3.741   6.377
 5590WAT    HW227948   1.498   3.891   6.378
 5590WAT    LP127949   1.599   3.803   6.348
 5590WAT    LP227950   1.519   3.814   6.267
 5591WAT     OW27951   3.004   6.147   5.159
 5591WAT    HW127952   2.959   6.065   5.141
 5591WAT    HW227953   3.020   6.185   5.072
 5591WAT    LP127954   2.964   6.190   5.197
 5591WAT    LP227955   3.065   6.136   5.192
 5592WAT     OW27956   0.383   3.320   1.160
 5592WAT    HW127957   0.437   3.248   1.193
 5592WAT    HW227958   0.436   3.361   1.092
 5592WAT    LP127959   0.323   3.296   1.133
 5592WAT    LP227960   0.368   3.366   1.211
 5593WAT     OW27961   1.364   1.863   2.841
 5593WAT    HW127962   1.376   1.877   2.935
 5593WAT    HW227963   1.279   1.903   2.822
 5593WAT    LP127964   1.414   1.895   2.805
 5593WAT    LP227965   1.363   1.795   2.826
 5594WAT     OW27966   3.044   5.872   4.902
 5594WAT    HW127967   3.088   5.943   4.856
 5594WAT    HW227968   3.116   5.817   4.935
 5594WAT    LP127969   3.006   5.897   4.955
 5594WAT    LP227970   3.003   5.836   4.859
 5595WAT     OW27971   5.789   3.705   3.583
 5595WAT    HW127972   5.730   3.772   3.619
 5595WAT    HW227973   5.876   3.744   3.592
 5595WAT    LP127974   5.785   3.646   3.620
 5595WAT    LP227975   5.774   3.692   3.516
 5596WAT     OW27976   0.695   4.583   3.985
 5596WAT    HW127977   0.649   4.541   4.057
 5596WAT    HW227978   0.788   4.574   4.006
 5596WAT    LP127979   0.680   4.551   3.924
 5596WAT    LP227980   0.677   4.651   3.980
 5597WAT     OW27981   3.242   2.340   2.656
 5597WAT    HW127982   3.300   2.404   2.614
 5597WAT    HW227983   3.259   2.351   2.750
 5597WAT    LP127984   3.175   2.354   2.641
 5597WAT    LP227985   3.258   2.276   2.635
 5598WAT     OW27986   5.501   6.154   0.162
 5598WAT    HW127987   5.562   6.170   0.235
 5598WAT    HW227988   5.547   6.189   0.085
 5598WAT    LP127989   5.489   6.086   0.154
 5598WAT    LP227990   5.441   6.187   0.172
 5599WAT     OW27991   4.460   5.443   1.544
 5599WAT    HW127992   4.491   5.418   1.631
 5599WAT    HW227993   4.373   5.481   1.560
 5599WAT    LP127994   4.502   5.490   1.515
 5599WAT    LP227995   4.455   5.387   1.503
 5600WAT     OW27996   0.572   3.172   0.856
 5600WAT    HW127997   0.623   3.140   0.931
 5600WAT    HW227998   0.553   3.263   0.877
 5600WAT    LP127999   0.610   3.167   0.797
 5600WAT    LP228000   0.513   3.135   0.849
 5601WAT     OW28001   4.864   2.018   4.663
 5601WAT    HW128002   4.806   2.039   4.737
 5601WAT    HW228003   4.897   2.102   4.633
 5601WAT    LP128004   4.917   1.977   4.684
 5601WAT    LP228005   4.829   1.985   4.613
 5602WAT     OW28006   2.251   3.289   3.542
 5602WAT    HW128007   2.277   3.319   3.455
 5602WAT    HW228008   2.230   3.369   3.590
 5602WAT    LP128009   2.195   3.247   3.538
 5602WAT    LP228010   2.304   3.255   3.573
 5603WAT     OW28011   3.514   0.307   1.783
 5603WAT    HW128012   3.596   0.265   1.759
 5603WAT    HW228013   3.515   0.309   1.879
 5603WAT    LP128014   3.511   0.373   1.757
 5603WAT    LP228015   3.459   0.270   1.760
 5604WAT     OW28016   4.076   1.536   1.631
 5604WAT    HW128017   4.076   1.446   1.664
 5604WAT    HW228018   4.065   1.590   1.710
 5604WAT    LP128019   4.137   1.551   1.599
 5604WAT    LP228020   4.023   1.547   1.587
 5605WAT     OW28021   3.790   3.255   3.520
 5605WAT    HW128022   3.779   3.166   3.555
 5605WAT    HW228023   3.719   3.264   3.457
 5605WAT    LP128024   3.784   3.302   3.571
 5605WAT    LP228025   3.852   3.262   3.489
 5606WAT     OW28026   1.581   4.506   6.624
 5606WAT    HW128027   1.608   4.419   6.655
 5606WAT    HW228028   1.570   4.557   6.704
 5606WAT    LP128029   1.630   4.534   6.583
 5606WAT    LP228030   1.520   4.502   6.589
 5607WAT     OW28031   3.119   0.012   5.291
 5607WAT    HW128032   3.120  -0.072   5.336
 5607WAT    HW228033   3.086   0.074   5.356
 5607WAT    LP128034   3.184   0.029   5.271
 5607WAT    LP228035   3.077   0.009   5.235
 5608WAT     OW28036   1.710   4.062   2.442
 5608WAT    HW128037   1.717   4.145   2.395
 5608WAT    HW228038   1.637   4.016   2.399
 5608WAT    LP128039   1.769   4.026   2.436
 5608WAT    LP228040   1.696   4.073   2.509
 5609WAT     OW28041   4.987   3.006   1.168
 5609WAT    HW128042   4.984   3.032   1.260
 5609WAT    HW228043   4.945   2.920   1.166
 5609WAT    LP128044   4.952   3.052   1.128
 5609WAT    LP228045   5.053   3.002   1.145
 5610WAT     OW28046   6.455   5.445   5.113
 5610WAT    HW128047   6.439   5.375   5.176
 5610WAT    HW228048   6.523   5.499   5.154
 5610WAT    LP128049   6.478   5.419   5.053
 5610WAT    LP228050   6.397   5.482   5.102
 5611WAT     OW28051   2.482   3.681   1.440
 5611WAT    HW128052   2.493   3.704   1.348
 5611WAT    HW228053   2.468   3.586   1.440
 5611WAT    LP128054   2.540   3.697   1.476
 5611WAT    LP228055   2.427   3.715   1.467
 5612WAT     OW28056   1.706   5.685   4.416
 5612WAT    HW128057   1.758   5.609   4.390
 5612WAT    HW228058   1.630   5.649   4.462
 5612WAT    LP128059   1.743   5.727   4.458
 5612WAT    LP228060   1.685   5.721   4.359
 5613WAT     OW28061   3.188   3.574   3.529
 5613WAT    HW128062   3.230   3.490   3.509
 5613WAT    HW228063   3.261   3.633   3.547
 5613WAT    LP128064   3.152   3.597   3.474
 5613WAT    LP228065   3.146   3.569   3.584
 5614WAT     OW28066   3.612   1.271   3.580
 5614WAT    HW128067   3.647   1.194   3.626
 5614WAT    HW228068   3.689   1.326   3.563
 5614WAT    LP128069   3.581   1.252   3.520
 5614WAT    LP228070   3.566   1.305   3.620
 5615WAT     OW28071   2.426   5.302   5.658
 5615WAT    HW128072   2.467   5.305   5.745
 5615WAT    HW228073   2.337   5.334   5.673
 5615WAT    LP128074   2.460   5.343   5.613
 5615WAT    LP228075   2.425   5.236   5.634
 5616WAT     OW28076   2.588   0.513   5.030
 5616WAT    HW128077   2.653   0.449   5.058
 5616WAT    HW228078   2.556   0.480   4.946
 5616WAT    LP128079   2.536   0.517   5.077
 5616WAT    LP228080   2.618   0.576   5.022
 5617WAT     OW28081   0.816   0.919   4.425
 5617WAT    HW128082   0.763   0.888   4.498
 5617WAT    HW228083   0.906   0.907   4.455
 5617WAT    LP128084   0.804   0.881   4.368
 5617WAT    LP228085   0.803   0.986   4.412
 5618WAT     OW28086   4.122   3.304   1.296
 5618WAT    HW128087   4.079   3.301   1.211
 5618WAT    HW228088   4.208   3.342   1.278
 5618WAT    LP128089   4.087   3.345   1.341
 5618WAT    LP228090   4.129   3.240   1.324
 5619WAT     OW28091   1.365   1.941   1.290
 5619WAT    HW128092   1.438   1.901   1.337
 5619WAT    HW228093   1.393   2.032   1.276
 5619WAT    LP128094   1.354   1.909   1.229
 5619WAT    LP228095   1.307   1.939   1.329
 5620WAT     OW28096   6.591   3.921   0.431
 5620WAT    HW128097   6.657   3.969   0.381
 5620WAT    HW228098   6.547   3.866   0.366
 5620WAT    LP128099   6.621   3.883   0.481
 5620WAT    LP228100   6.545   3.966   0.460
 5621WAT     OW28101   5.896   3.545   1.690
 5621WAT    HW128102   5.856   3.616   1.740
 5621WAT    HW228103   5.964   3.510   1.747
 5621WAT    LP128104   5.849   3.495   1.675
 5621WAT    LP228105   5.924   3.569   1.630
 5622WAT     OW28106   1.233   1.501   2.545
 5622WAT    HW128107   1.234   1.544   2.631
 5622WAT    HW228108   1.285   1.557   2.489
 5622WAT    LP128109   1.261   1.437   2.550
 5622WAT    LP228110   1.167   1.496   2.521
 5623WAT     OW28111   3.263   5.420   3.464
 5623WAT    HW128112   3.317   5.357   3.418
 5623WAT    HW228113   3.301   5.505   3.441
 5623WAT    LP128114   3.196   5.417   3.443
 5623WAT    LP228115   3.266   5.410   3.534
 5624WAT     OW28116   4.920   2.286   6.326
 5624WAT    HW128117   4.993   2.285   6.388
 5624WAT    HW228118   4.863   2.357   6.358
 5624WAT    LP128119   4.942   2.300   6.261
 5624WAT    LP228120   4.886   2.225   6.327
 5625WAT     OW28121   0.784   1.690   2.735
 5625WAT    HW128122   0.829   1.764   2.695
 5625WAT    HW228123   0.733   1.651   2.663
 5625WAT    LP128124   0.830   1.643   2.760
 5625WAT    LP228125   0.742   1.711   2.786
 5626WAT     OW28126   1.081   5.291   0.482
 5626WAT    HW128127   1.018   5.238   0.531
 5626WAT    HW228128   1.082   5.376   0.527
 5626WAT    LP128129   1.145   5.262   0.484
 5626WAT    LP228130   1.061   5.299   0.416
 5627WAT     OW28131   0.665   3.983   3.935
 5627WAT    HW128132   0.739   3.924   3.946
 5627WAT    HW228133   0.692   4.063   3.979
 5627WAT    LP128134   0.652   3.995   3.867
 5627WAT    LP228135   0.607   3.956   3.965
 5628WAT     OW28136   6.419   1.925   4.255
 5628WAT    HW128137   6.488   1.976   4.298
 5628WAT    HW228138   6.346   1.986   4.247
 5628WAT    LP128139   6.440   1.904   4.192
 5628WAT    LP228140   6.401   1.870   4.294
 5629WAT     OW28141   3.535   6.445   1.131
 5629WAT    HW128142   3.537   6.540   1.133
 5629WAT    HW228143   3.443   6.422   1.145
 5629WAT    LP128144   3.557   6.421   1.069
 5629WAT    LP228145   3.575   6.418   1.182
 5630WAT     OW28146   3.235   2.426   3.980
 5630WAT    HW128147   3.315   2.396   4.023
 5630WAT    HW228148   3.165   2.373   4.018
 5630WAT    LP128149   3.223   2.494   3.993
 5630WAT    LP228150   3.238   2.416   3.911
 5631WAT     OW28151   6.525   5.972   5.207
 5631WAT    HW128152   6.608   5.965   5.160
 5631WAT    HW228153   6.491   6.058   5.182
 5631WAT    LP128154   6.481   5.921   5.188
 5631WAT    LP228155   6.536   5.969   5.276
 5632WAT     OW28156   2.814   6.189   0.014
 5632WAT    HW128157   2.739   6.148  -0.027
 5632WAT    HW228158   2.838   6.129   0.085
 5632WAT    LP128159   2.867   6.196  -0.031
 5632WAT    LP228160   2.796   6.252   0.040
 5633WAT     OW28161   2.361   6.324   3.853
 5633WAT    HW128162   2.456   6.326   3.863
 5633WAT    HW228163   2.331   6.407   3.890
 5633WAT    LP128164   2.343   6.319   3.785
 5633WAT    LP228165   2.334   6.270   3.887
 5634WAT     OW28166   2.505   4.302   3.036
 5634WAT    HW128167   2.574   4.311   2.970
 5634WAT    HW228168   2.446   4.375   3.019
 5634WAT    LP128169   2.471   4.241   3.027
 5634WAT    LP228170   2.531   4.305   3.100
 5635WAT     OW28171   0.083   3.709   3.089
 5635WAT    HW128172   0.155   3.702   3.026
 5635WAT    HW228173   0.084   3.801   3.115
 5635WAT    LP128174   0.022   3.692   3.059
 5635WAT    LP228175   0.094   3.668   3.144
 5636WAT     OW28176   1.685   3.781   0.376
 5636WAT    HW128177   1.614   3.845   0.384
 5636WAT    HW228178   1.732   3.808   0.297
 5636WAT    LP128179   1.727   3.784   0.431
 5636WAT    LP228180   1.659   3.717   0.368
 5637WAT     OW28181   0.881   5.599   3.846
 5637WAT    HW128182   0.844   5.613   3.933
 5637WAT    HW228183   0.918   5.684   3.821
 5637WAT    LP128184   0.931   5.550   3.848
 5637WAT    LP228185   0.832   5.579   3.800
 5638WAT     OW28186   6.509   0.013   5.353
 5638WAT    HW128187   6.477  -0.012   5.266
 5638WAT    HW228188   6.603  -0.007   5.351
 5638WAT    LP128189   6.499   0.081   5.364
 5638WAT    LP228190   6.477  -0.024   5.403
 5639WAT     OW28191   0.229   6.653   2.226
 5639WAT    HW128192   0.309   6.601   2.228
 5639WAT    HW228193   0.178   6.616   2.155
 5639WAT    LP128194   0.194   6.647   2.287
 5639WAT    LP228195   0.243   6.720   2.214
 5640WAT     OW28196   0.556   4.669   1.816
 5640WAT    HW128197   0.569   4.661   1.910
 5640WAT    HW228198   0.464   4.646   1.802
 5640WAT    LP128199   0.568   4.735   1.795
 5640WAT    LP228200   0.598   4.626   1.781
 5641WAT     OW28201   2.863   4.555   6.517
 5641WAT    HW128202   2.894   4.535   6.429
 5641WAT    HW228203   2.854   4.650   6.518
 5641WAT    LP128204   2.801   4.524   6.529
 5641WAT    LP228205   2.909   4.533   6.565
 5642WAT     OW28206   2.215   0.637   2.812
 5642WAT    HW128207   2.262   0.607   2.734
 5642WAT    HW228208   2.133   0.675   2.778
 5642WAT    LP128209   2.201   0.583   2.854
 5642WAT    LP228210   2.252   0.685   2.846
 5643WAT     OW28211   4.856   3.584   3.103
 5643WAT    HW128212   4.874   3.663   3.156
 5643WAT    HW228213   4.775   3.549   3.139
 5643WAT    LP128214   4.849   3.601   3.036
 5643WAT    LP228215   4.908   3.538   3.110
 5644WAT     OW28216   3.004   2.304   2.011
 5644WAT    HW128217   2.933   2.268   2.065
 5644WAT    HW228218   2.979   2.280   1.921
 5644WAT    LP128219   3.008   2.373   2.018
 5644WAT    LP228220   3.065   2.274   2.028
 5645WAT     OW28221   5.494   3.576   4.247
 5645WAT    HW128222   5.529   3.506   4.193
 5645WAT    HW228223   5.571   3.619   4.284
 5645WAT    LP128224   5.456   3.621   4.208
 5645WAT    LP228225   5.454   3.550   4.298
 5646WAT     OW28226   3.518   1.650   6.191
 5646WAT    HW128227   3.502   1.576   6.249
 5646WAT    HW228228   3.611   1.642   6.167
 5646WAT    LP128229   3.477   1.646   6.134
 5646WAT    LP228230   3.507   1.710   6.224
 5647WAT     OW28231   0.102   3.598   0.644
 5647WAT    HW128232   0.024   3.550   0.616
 5647WAT    HW228233   0.074   3.690   0.647
 5647WAT    LP128234   0.124   3.576   0.707
 5647WAT    LP228235   0.154   3.590   0.597
 5648WAT     OW28236   1.454   2.638   2.253
 5648WAT    HW128237   1.501   2.583   2.315
 5648WAT    HW228238   1.476   2.601   2.167
 5648WAT    LP128239   1.385   2.635   2.264
 5648WAT    LP228240   1.476   2.704   2.257
 5649WAT     OW28241   3.198   2.140   1.400
 5649WAT    HW128242   3.224   2.069   1.458
 5649WAT    HW228243   3.237   2.218   1.438
 5649WAT    LP128244   3.223   2.129   1.335
 5649WAT    LP228245   3.128   2.146   1.397
 5650WAT     OW28246   5.303   2.889   0.920
 5650WAT    HW128247   5.377   2.925   0.870
 5650WAT    HW228248   5.321   2.795   0.924
 5650WAT    LP128249   5.301   2.916   0.984
 5650WAT    LP228250   5.243   2.901   0.887
 5651WAT     OW28251   3.132   4.578   3.477
 5651WAT    HW128252   3.067   4.620   3.533
 5651WAT    HW228253   3.081   4.540   3.405
 5651WAT    LP128254   3.178   4.625   3.453
 5651WAT    LP228255   3.167   4.528   3.512
 5652WAT     OW28256   1.635   5.518   4.113
 5652WAT    HW128257   1.576   5.506   4.187
 5652WAT    HW228258   1.605   5.598   4.070
 5652WAT    LP128259   1.701   5.525   4.135
 5652WAT    LP228260   1.631   5.463   4.069
 5653WAT     OW28261   6.013   2.363   5.144
 5653WAT    HW128262   6.016   2.269   5.163
 5653WAT    HW228263   5.958   2.400   5.213
 5653WAT    LP128264   6.077   2.391   5.146
 5653WAT    LP228265   5.985   2.375   5.081
 5654WAT     OW28266   2.273   0.346   2.302
 5654WAT    HW128267   2.270   0.420   2.241
 5654WAT    HW228268   2.208   0.367   2.370
 5654WAT    LP128269   2.255   0.286   2.270
 5654WAT    LP228270   2.337   0.339   2.330
 5655WAT     OW28271   5.984   0.574   5.576
 5655WAT    HW128272   6.026   0.522   5.645
 5655WAT    HW228273   5.996   0.664   5.604
 5655WAT    LP128274   6.014   0.562   5.514
 5655WAT    LP228275   5.916   0.558   5.571
 5656WAT     OW28276   3.613   0.566   5.362
 5656WAT    HW128277   3.533   0.518   5.341
 5656WAT    HW228278   3.582   0.650   5.396
 5656WAT    LP128279   3.650   0.533   5.411
 5656WAT    LP228280   3.652   0.575   5.305
 5657WAT     OW28281   0.644   3.502   2.128
 5657WAT    HW128282   0.566   3.542   2.090
 5657WAT    HW228283   0.612   3.423   2.172
 5657WAT    LP128284   0.690   3.485   2.078
 5657WAT    LP228285   0.674   3.546   2.173
 5658WAT     OW28286   4.670   2.703   6.297
 5658WAT    HW128287   4.700   2.774   6.353
 5658WAT    HW228288   4.575   2.700   6.310
 5658WAT    LP128289   4.685   2.716   6.230
 5658WAT    LP228290   4.700   2.642   6.316
 5659WAT     OW28291   2.450   5.573   5.903
 5659WAT    HW128292   2.389   5.616   5.842
 5659WAT    HW228293   2.535   5.611   5.882
 5659WAT    LP128294   2.432   5.587   5.969
 5659WAT    LP228295   2.450   5.504   5.893
 5660WAT     OW28296   4.983   3.708   6.620
 5660WAT    HW128297   4.893   3.718   6.650
 5660WAT    HW228298   5.036   3.711   6.700
 5660WAT    LP128299   4.992   3.646   6.588
 5660WAT    LP228300   5.000   3.760   6.577
 5661WAT     OW28301   3.197   2.020   6.632
 5661WAT    HW128302   3.266   2.024   6.698
 5661WAT    HW228303   3.116   2.007   6.682
 5661WAT    LP128304   3.194   2.080   6.596
 5661WAT    LP228305   3.207   1.967   6.588
 5662WAT     OW28306   4.688   4.139   3.011
 5662WAT    HW128307   4.713   4.089   2.933
 5662WAT    HW228308   4.610   4.095   3.043
 5662WAT    LP128309   4.739   4.137   3.059
 5662WAT    LP228310   4.674   4.205   2.994
 5663WAT     OW28311   0.147   2.117   3.499
 5663WAT    HW128312   0.213   2.170   3.543
 5663WAT    HW228313   0.096   2.180   3.448
 5663WAT    LP128314   0.177   2.070   3.457
 5663WAT    LP228315   0.106   2.084   3.545
 5664WAT     OW28316   4.248   1.442   4.881
 5664WAT    HW128317   4.325   1.385   4.882
 5664WAT    HW228318   4.238   1.469   4.790
 5664WAT    LP128319   4.191   1.407   4.903
 5664WAT    LP228320   4.258   1.498   4.922
 5665WAT     OW28321   4.317   5.041   5.427
 5665WAT    HW128322   4.325   4.995   5.511
 5665WAT    HW228323   4.378   5.115   5.434
 5665WAT    LP128324   4.336   4.999   5.374
 5665WAT    LP228325   4.252   5.064   5.417
 5666WAT     OW28326   3.180   5.196   3.222
 5666WAT    HW128327   3.129   5.154   3.290
 5666WAT    HW228328   3.268   5.205   3.259
 5666WAT    LP128329   3.182   5.156   3.164
 5666WAT    LP228330   3.154   5.259   3.206
 5667WAT     OW28331   0.558   1.445   1.783
 5667WAT    HW128332   0.503   1.478   1.855
 5667WAT    HW228333   0.527   1.493   1.706
 5667WAT    LP128334   0.625   1.458   1.795
 5667WAT    LP228335   0.548   1.376   1.774
 5668WAT     OW28336   4.391   2.923   4.440
 5668WAT    HW128337   4.334   2.999   4.452
 5668WAT    HW228338   4.342   2.849   4.475
 5668WAT    LP128339   4.406   2.914   4.373
 5668WAT    LP228340   4.451   2.932   4.476
 5669WAT     OW28341   4.598   5.246   4.526
 5669WAT    HW128342   4.598   5.183   4.453
 5669WAT    HW228343   4.640   5.324   4.491
 5669WAT    LP128344   4.533   5.260   4.546
 5669WAT    LP228345   4.634   5.220   4.580
 5670WAT     OW28346   5.039   4.927   3.003
 5670WAT    HW128347   5.124   4.971   3.009
 5670WAT    HW228348   4.990   4.977   2.938
 5670WAT    LP128349   5.047   4.860   2.983
 5670WAT    LP228350   5.006   4.929   3.065
 5671WAT     OW28351   6.287   3.545   3.101
 5671WAT    HW128352   6.233   3.624   3.105
 5671WAT    HW228353   6.360   3.563   3.160
 5671WAT    LP128354   6.251   3.489   3.123
 5671WAT    LP228355   6.310   3.534   3.036
 5672WAT     OW28356   0.449   1.347   0.396
 5672WAT    HW128357   0.356   1.353   0.378
 5672WAT    HW228358   0.463   1.257   0.423
 5672WAT    LP128359   0.487   1.362   0.338
 5672WAT    LP228360   0.467   1.391   0.447
 5673WAT     OW28361   3.797   6.568   2.487
 5673WAT    HW128362   3.783   6.490   2.540
 5673WAT    HW228363   3.803   6.639   2.550
 5673WAT    LP128364   3.856   6.562   2.450
 5673WAT    LP228365   3.743   6.578   2.443
 5674WAT     OW28366   5.235   2.385   5.047
 5674WAT    HW128367   5.294   2.346   5.112
 5674WAT    HW228368   5.269   2.355   4.963
 5674WAT    LP128369   5.169   2.362   5.057
 5674WAT    LP228370   5.236   2.455   5.051
 5675WAT     OW28371   4.764   0.832   1.820
 5675WAT    HW128372   4.721   0.836   1.735
 5675WAT    HW228373   4.824   0.758   1.813
 5675WAT    LP128374   4.799   0.891   1.833
 5675WAT    LP228375   4.717   0.821   1.871
 5676WAT     OW28376   5.622   0.247   4.242
 5676WAT    HW128377   5.553   0.312   4.227
 5676WAT    HW228378   5.575   0.163   4.247
 5676WAT    LP128379   5.667   0.246   4.188
 5676WAT    LP228380   5.656   0.260   4.301
 5677WAT     OW28381   1.466   2.470   1.208
 5677WAT    HW128382   1.503   2.516   1.133
 5677WAT    HW228383   1.489   2.524   1.284
 5677WAT    LP128384   1.396   2.465   1.202
 5677WAT    LP228385   1.493   2.406   1.214
 5678WAT     OW28386   5.502   3.444   3.815
 5678WAT    HW128387   5.508   3.483   3.728
 5678WAT    HW228388   5.498   3.518   3.875
 5678WAT    LP128389   5.445   3.404   3.821
 5678WAT    LP228390   5.559   3.405   3.829
 5679WAT     OW28391   2.875   1.229   0.749
 5679WAT    HW128392   2.956   1.278   0.738
 5679WAT    HW228393   2.806   1.297   0.750
 5679WAT    LP128394   2.865   1.185   0.696
 5679WAT    LP228395   2.875   1.194   0.810
 5680WAT     OW28396   4.028   6.404   3.334
 5680WAT    HW128397   4.055   6.353   3.411
 5680WAT    HW228398   3.933   6.399   3.333
 5680WAT    LP128399   4.049   6.470   3.340
 5680WAT    LP228400   4.055   6.376   3.276
 5681WAT     OW28401   6.385   5.120   0.538
 5681WAT    HW128402   6.404   5.028   0.524
 5681WAT    HW228403   6.361   5.153   0.451
 5681WAT    LP128404   6.331   5.128   0.582
 5681WAT    LP228405   6.441   5.154   0.563
 5682WAT     OW28406   4.145   6.529   6.134
 5682WAT    HW128407   4.202   6.600   6.167
 5682WAT    HW228408   4.059   6.548   6.172
 5682WAT    LP128409   4.143   6.531   6.064
 5682WAT    LP228410   4.169   6.467   6.155
 5683WAT     OW28411   6.517   6.164   5.616
 5683WAT    HW128412   6.556   6.092   5.567
 5683WAT    HW228413   6.454   6.121   5.674
 5683WAT    LP128414   6.566   6.197   5.654
 5683WAT    LP228415   6.485   6.209   5.574
 5684WAT     OW28416   0.560   5.788   5.139
 5684WAT    HW128417   0.493   5.731   5.178
 5684WAT    HW228418   0.512   5.866   5.112
 5684WAT    LP128419   0.609   5.804   5.186
 5684WAT    LP228420   0.589   5.756   5.084
 5685WAT     OW28421   4.372   1.200   6.132
 5685WAT    HW128422   4.380   1.286   6.090
 5685WAT    HW228423   4.454   1.155   6.112
 5685WAT    LP128424   4.363   1.206   6.201
 5685WAT    LP228425   4.317   1.164   6.105
 5686WAT     OW28426   4.751   3.453   5.910
 5686WAT    HW128427   4.674   3.411   5.947
 5686WAT    HW228428   4.824   3.420   5.962
 5686WAT    LP128429   4.759   3.436   5.842
 5686WAT    LP228430   4.746   3.523   5.915
 5687WAT     OW28431   6.785   6.617   5.964
 5687WAT    HW128432   6.709   6.626   6.022
 5687WAT    HW228433   6.764   6.671   5.888
 5687WAT    LP128434   6.842   6.641   5.996
 5687WAT    LP228435   6.794   6.551   5.946
 5688WAT     OW28436   6.499   6.446   2.120
 5688WAT    HW128437   6.531   6.532   2.145
 5688WAT    HW228438   6.578   6.393   2.108
 5688WAT    LP128439   6.459   6.419   2.171
 5688WAT    LP228440   6.462   6.449   2.061
 5689WAT     OW28441   1.113   5.524   0.639
 5689WAT    HW128442   1.206   5.504   0.652
 5689WAT    HW228443   1.111   5.618   0.621
 5689WAT    LP128444   1.087   5.488   0.584
 5689WAT    LP228445   1.076   5.509   0.696
 5690WAT     OW28446   0.817   4.843   6.254
 5690WAT    HW128447   0.723   4.829   6.237
 5690WAT    HW228448   0.839   4.919   6.200
 5690WAT    LP128449   0.828   4.855   6.321
 5690WAT    LP228450   0.854   4.787   6.234
 5691WAT     OW28451   4.135   0.970   5.435
 5691WAT    HW128452   4.171   0.957   5.347
 5691WAT    HW228453   4.142   1.064   5.451
 5691WAT    LP128454   4.069   0.948   5.439
 5691WAT    LP228455   4.173   0.934   5.482
 5692WAT     OW28456   5.287   3.535   1.754
 5692WAT    HW128457   5.264   3.565   1.842
 5692WAT    HW228458   5.207   3.495   1.720
 5692WAT    LP128459   5.307   3.589   1.713
 5692WAT    LP228460   5.339   3.488   1.756
 5693WAT     OW28461   5.230   4.865   6.032
 5693WAT    HW128462   5.157   4.909   6.075
 5693WAT    HW228463   5.220   4.888   5.939
 5693WAT    LP128464   5.291   4.888   6.056
 5693WAT    LP228465   5.226   4.796   6.040
 5694WAT     OW28466   3.839   3.652   0.735
 5694WAT    HW128467   3.878   3.595   0.801
 5694WAT    HW228468   3.826   3.736   0.780
 5694WAT    LP128469   3.882   3.660   0.680
 5694WAT    LP228470   3.778   3.626   0.713
 5695WAT     OW28471   5.647   6.210   6.581
 5695WAT    HW128472   5.637   6.289   6.528
 5695WAT    HW228473   5.616   6.139   6.524
 5695WAT    LP128474   5.714   6.200   6.598
 5695WAT    LP228475   5.608   6.214   6.639
 5696WAT     OW28476   4.575   2.635   1.840
 5696WAT    HW128477   4.597   2.586   1.761
 5696WAT    HW228478   4.490   2.599   1.868
 5696WAT    LP128479   4.623   2.625   1.889
 5696WAT    LP228480   4.569   2.703   1.826
 5697WAT     OW28481   4.336   5.356   1.989
 5697WAT    HW128482   4.352   5.266   2.017
 5697WAT    HW228483   4.409   5.375   1.929
 5697WAT    LP128484   4.275   5.361   1.956
 5697WAT    LP228485   4.337   5.400   2.044
 5698WAT     OW28486   4.878   0.991   5.354
 5698WAT    HW128487   4.869   0.904   5.392
 5698WAT    HW228488   4.906   0.975   5.263
 5698WAT    LP128489   4.817   1.025   5.355
 5698WAT    LP228490   4.927   1.028   5.388
 5699WAT     OW28491   0.768   2.829   0.081
 5699WAT    HW128492   0.802   2.808   0.168
 5699WAT    HW228493   0.820   2.775   0.021
 5699WAT    LP128494   0.700   2.813   0.076
 5699WAT    LP228495   0.777   2.897   0.066
 5700WAT     OW28496   4.038   6.120   4.110
 5700WAT    HW128497   4.118   6.069   4.122
 5700WAT    HW228498   3.983   6.066   4.054
 5700WAT    LP128499   4.007   6.132   4.172
 5700WAT    LP228500   4.052   6.181   4.079
 5701WAT     OW28501   4.047   4.495   2.849
 5701WAT    HW128502   4.021   4.404   2.862
 5701WAT    HW228503   4.129   4.490   2.799
 5701WAT    LP128504   3.998   4.529   2.813
 5701WAT    LP228505   4.058   4.527   2.910
 5702WAT     OW28506   4.398   2.654   6.372
 5702WAT    HW128507   4.355   2.723   6.422
 5702WAT    HW228508   4.371   2.573   6.415
 5702WAT    LP128509   4.376   2.654   6.305
 5702WAT    LP228510   4.467   2.661   6.374
 5703WAT     OW28511   4.918   5.993   1.048
 5703WAT    HW128512   4.827   6.019   1.029
 5703WAT    HW228513   4.944   6.049   1.122
 5703WAT    LP128514   4.921   5.926   1.065
 5703WAT    LP228515   4.959   6.005   0.992
 5704WAT     OW28516   2.296   3.690   2.859
 5704WAT    HW128517   2.213   3.730   2.834
 5704WAT    HW228518   2.347   3.687   2.778
 5704WAT    LP128519   2.329   3.728   2.907
 5704WAT    LP228520   2.286   3.625   2.884
 5705WAT     OW28521   5.129   3.066   3.438
 5705WAT    HW128522   5.086   3.104   3.361
 5705WAT    HW228523   5.081   3.102   3.513
 5705WAT    LP128524   5.124   2.996   3.437
 5705WAT    LP228525   5.196   3.085   3.441
 5706WAT     OW28526   3.601   1.973   1.967
 5706WAT    HW128527   3.542   1.899   1.957
 5706WAT    HW228528   3.549   2.049   1.940
 5706WAT    LP128529   3.621   1.980   2.034
 5706WAT    LP228530   3.657   1.965   1.926
 5707WAT     OW28531   6.178   1.515   3.767
 5707WAT    HW128532   6.121   1.491   3.694
 5707WAT    HW228533   6.266   1.521   3.729
 5707WAT    LP128534   6.159   1.577   3.794
 5707WAT    LP228535   6.176   1.466   3.817
 5708WAT     OW28536   3.011   1.576   2.267
 5708WAT    HW128537   2.936   1.516   2.268
 5708WAT    HW228538   3.011   1.615   2.355
 5708WAT    LP128539   3.070   1.541   2.255
 5708WAT    LP228540   3.002   1.626   2.218
 5709WAT     OW28541   5.500   0.659   1.070
 5709WAT    HW128542   5.498   0.741   1.119
 5709WAT    HW228543   5.436   0.672   1.000
 5709WAT    LP128544   5.564   0.647   1.044
 5709WAT    LP228545   5.481   0.605   1.111
 5710WAT     OW28546   0.915   0.964   2.558
 5710WAT    HW128547   0.876   0.877   2.559
 5710WAT    HW228548   0.900   0.998   2.646
 5710WAT    LP128549   0.984   0.960   2.544
 5710WAT    LP228550   0.884   1.004   2.510
 5711WAT     OW28551   2.297   0.464   5.883
 5711WAT    HW128552   2.373   0.408   5.870
 5711WAT    HW228553   2.222   0.408   5.863
 5711WAT    LP128554   2.294   0.487   5.949
 5711WAT    LP228555   2.298   0.519   5.840
 5712WAT     OW28556   6.072   0.804   4.729
 5712WAT    HW128557   6.147   0.764   4.685
 5712WAT    HW228558   6.086   0.786   4.821
 5712WAT    LP128559   6.071   0.873   4.717
 5712WAT    LP228560   6.012   0.776   4.706
 5713WAT     OW28561   0.207   0.532   0.300
 5713WAT    HW128562   0.269   0.605   0.295
 5713WAT    HW228563   0.143   0.552   0.231
 5713WAT    LP128564   0.238   0.471   0.287
 5713WAT    LP228565   0.175   0.530   0.362
 5714WAT     OW28566   0.576   1.047   2.337
 5714WAT    HW128567   0.581   0.952   2.345
 5714WAT    HW228568   0.665   1.078   2.353
 5714WAT    LP128569   0.555   1.065   2.272
 5714WAT    LP228570   0.531   1.074   2.384
 5715WAT     OW28571   2.942   2.117   6.201
 5715WAT    HW128572   2.969   2.197   6.246
 5715WAT    HW228573   2.950   2.137   6.108
 5715WAT    LP128574   2.984   2.063   6.219
 5715WAT    LP228575   2.876   2.100   6.217
 5716WAT     OW28576   2.358   4.649   3.236
 5716WAT    HW128577   2.283   4.605   3.276
 5716WAT    HW228578   2.366   4.609   3.149
 5716WAT    LP128579   2.345   4.718   3.230
 5716WAT    LP228580   2.416   4.639   3.274
 5717WAT     OW28581   1.141   2.857   4.797
 5717WAT    HW128582   1.211   2.887   4.739
 5717WAT    HW228583   1.075   2.821   4.739
 5717WAT    LP128584   1.165   2.808   4.841
 5717WAT    LP228585   1.115   2.910   4.835
 5718WAT     OW28586   5.604   0.992   2.186
 5718WAT    HW128587   5.644   1.076   2.210
 5718WAT    HW228588   5.646   0.968   2.103
 5718WAT    LP128589   5.617   0.944   2.235
 5718WAT    LP228590   5.535   0.999   2.177
 5719WAT     OW28591   6.365   2.710   3.167
 5719WAT    HW128592   6.439   2.656   3.138
 5719WAT    HW228593   6.387   2.798   3.138
 5719WAT    LP128594   6.306   2.688   3.137
 5719WAT    LP228595   6.359   2.707   3.237
 5720WAT     OW28596   1.324   1.339   0.423
 5720WAT    HW128597   1.399   1.386   0.387
 5720WAT    HW228598   1.309   1.380   0.509
 5720WAT    LP128599   1.268   1.347   0.382
 5720WAT    LP228600   1.338   1.271   0.430
 5721WAT     OW28601   5.290   2.305   4.788
 5721WAT    HW128602   5.228   2.364   4.746
 5721WAT    HW228603   5.374   2.324   4.745
 5721WAT    LP128604   5.294   2.317   4.856
 5721WAT    LP228605   5.272   2.238   4.777
 5722WAT     OW28606   5.819   2.974   6.111
 5722WAT    HW128607   5.819   2.976   6.206
 5722WAT    HW228608   5.741   3.023   6.086
 5722WAT    LP128609   5.877   3.006   6.086
 5722WAT    LP228610   5.816   2.909   6.087
 5723WAT     OW28611   1.438   5.255   1.487
 5723WAT    HW128612   1.481   5.312   1.551
 5723WAT    HW228613   1.429   5.171   1.531
 5723WAT    LP128614   1.375   5.281   1.469
 5723WAT    LP228615   1.478   5.248   1.430
 5724WAT     OW28616   2.957   4.984   0.256
 5724WAT    HW128617   2.947   5.063   0.202
 5724WAT    HW228618   3.036   5.000   0.307
 5724WAT    LP128619   2.901   4.976   0.297
 5724WAT    LP228620   2.964   4.928   0.215
 5725WAT     OW28621   6.291   5.381   5.854
 5725WAT    HW128622   6.304   5.308   5.794
 5725WAT    HW228623   6.289   5.341   5.941
 5725WAT    LP128624   6.344   5.426   5.849
 5725WAT    LP228625   6.231   5.414   5.840
 5726WAT     OW28626   5.101   6.293   0.386
 5726WAT    HW128627   5.117   6.240   0.307
 5726WAT    HW228628   5.171   6.358   0.385
 5726WAT    LP128629   5.039   6.324   0.382
 5726WAT    LP228630   5.105   6.253   0.443
 5727WAT     OW28631   0.625   2.564   4.881
 5727WAT    HW128632   0.532   2.548   4.867
 5727WAT    HW228633   0.630   2.657   4.907
 5727WAT    LP128634   0.650   2.523   4.932
 5727WAT    LP228635   0.662   2.553   4.823
 5728WAT     OW28636   1.690   6.510   0.024
 5728WAT    HW128637   1.693   6.528   0.118
 5728WAT    HW228638   1.780   6.523  -0.006
 5728WAT    LP128639   1.669   6.445   0.011
 5728WAT    LP228640   1.646   6.555  -0.008
 5729WAT     OW28641   5.354   0.035   1.170
 5729WAT    HW128642   5.447   0.018   1.186
 5729WAT    HW228643   5.337  -0.006   1.085
 5729WAT    LP128644   5.314   0.006   1.220
 5729WAT    LP228645   5.342   0.104   1.167
 5730WAT     OW28646   6.377   2.722   6.340
 5730WAT    HW128647   6.344   2.811   6.356
 5730WAT    HW228648   6.358   2.707   6.247
 5730WAT    LP128649   6.446   2.719   6.352
 5730WAT    LP228650   6.343   2.676   6.380
 5731WAT     OW28651   3.740   2.235   5.104
 5731WAT    HW128652   3.830   2.266   5.120
 5731WAT    HW228653   3.685   2.309   5.128
 5731WAT    LP128654   3.732   2.218   5.037
 5731WAT    LP228655   3.726   2.180   5.145
 5732WAT     OW28656   5.111   1.545   6.307
 5732WAT    HW128657   5.202   1.567   6.289
 5732WAT    HW228658   5.091   1.588   6.390
 5732WAT    LP128659   5.069   1.569   6.256
 5732WAT    LP228660   5.103   1.475   6.312
 5733WAT     OW28661   4.400   6.602   3.141
 5733WAT    HW128662   4.323   6.620   3.196
 5733WAT    HW228663   4.472   6.598   3.203
 5733WAT    LP128664   4.392   6.542   3.107
 5733WAT    LP228665   4.410   6.654   3.095
 5734WAT     OW28666   3.352   5.510   0.265
 5734WAT    HW128667   3.350   5.560   0.347
 5734WAT    HW228668   3.306   5.428   0.286
 5734WAT    LP128669   3.318   5.544   0.214
 5734WAT    LP228670   3.418   5.497   0.245
 5735WAT     OW28671   0.420   0.448   1.787
 5735WAT    HW128672   0.335   0.474   1.752
 5735WAT    HW228673   0.429   0.498   1.868
 5735WAT    LP128674   0.421   0.380   1.800
 5735WAT    LP228675   0.471   0.465   1.742
 5736WAT     OW28676   0.268   2.716   5.370
 5736WAT    HW128677   0.342   2.721   5.430
 5736WAT    HW228678   0.304   2.743   5.285
 5736WAT    LP128679   0.243   2.651   5.367
 5736WAT    LP228680   0.217   2.760   5.390
 5737WAT     OW28681   5.716   4.488   5.414
 5737WAT    HW128682   5.795   4.531   5.381
 5737WAT    HW228683   5.644   4.547   5.390
 5737WAT    LP128684   5.707   4.425   5.385
 5737WAT    LP228685   5.719   4.480   5.484
 5738WAT     OW28686   1.646   5.251   5.272
 5738WAT    HW128687   1.634   5.238   5.178
 5738WAT    HW228688   1.740   5.242   5.286
 5738WAT    LP128689   1.624   5.315   5.291
 5738WAT    LP228690   1.610   5.203   5.309
 5739WAT     OW28691   3.169   1.830   3.313
 5739WAT    HW128692   3.256   1.863   3.293
 5739WAT    HW228693   3.138   1.884   3.385
 5739WAT    LP128694   3.127   1.836   3.257
 5739WAT    LP228695   3.171   1.762   3.332
 5740WAT     OW28696   6.111   1.495   1.163
 5740WAT    HW128697   6.195   1.534   1.186
 5740WAT    HW228698   6.113   1.488   1.068
 5740WAT    LP128699   6.105   1.431   1.193
 5740WAT    LP228700   6.058   1.535   1.185
 5741WAT     OW28701   6.218   4.504   2.813
 5741WAT    HW128702   6.136   4.524   2.858
 5741WAT    HW228703   6.200   4.422   2.766
 5741WAT    LP128704   6.234   4.555   2.768
 5741WAT    LP228705   6.270   4.495   2.859
 5742WAT     OW28706   1.486   3.631   4.478
 5742WAT    HW128707   1.526   3.718   4.479
 5742WAT    HW228708   1.446   3.625   4.391
 5742WAT    LP128709   1.534   3.582   4.486
 5742WAT    LP228710   1.437   3.626   4.528
 5743WAT     OW28711   6.119   3.038   4.063
 5743WAT    HW128712   6.200   3.089   4.053
 5743WAT    HW228713   6.063   3.069   3.991
 5743WAT    LP128714   6.132   2.970   4.056
 5743WAT    LP228715   6.089   3.051   4.125
 5744WAT     OW28716   2.521   3.907   6.306
 5744WAT    HW128717   2.487   3.939   6.390
 5744WAT    HW228718   2.452   3.927   6.243
 5744WAT    LP128719   2.581   3.941   6.290
 5744WAT    LP228720   2.533   3.839   6.309
 5745WAT     OW28721   0.395   5.163   5.470
 5745WAT    HW128722   0.487   5.135   5.466
 5745WAT    HW228723   0.398   5.247   5.516
 5745WAT    LP128724   0.369   5.171   5.405
 5745WAT    LP228725   0.356   5.116   5.505
 5746WAT     OW28726   1.316   6.328   4.492
 5746WAT    HW128727   1.343   6.238   4.513
 5746WAT    HW228728   1.385   6.361   4.434
 5746WAT    LP128729   1.254   6.328   4.459
 5746WAT    LP228730   1.311   6.367   4.550
 5747WAT     OW28731   2.666   5.024   2.560
 5747WAT    HW128732   2.703   4.974   2.634
 5747WAT    HW228733   2.646   4.958   2.494
 5747WAT    LP128734   2.609   5.058   2.580
 5747WAT    LP228735   2.713   5.070   2.536
 5748WAT     OW28736   1.494   0.612   5.114
 5748WAT    HW128737   1.430   0.675   5.082
 5748WAT    HW228738   1.454   0.526   5.099
 5748WAT    LP128739   1.554   0.618   5.079
 5748WAT    LP228740   1.506   0.621   5.183
 5749WAT     OW28741   3.788   6.674   4.379
 5749WAT    HW128742   3.858   6.731   4.412
 5749WAT    HW228743   3.833   6.613   4.321
 5749WAT    LP128744   3.758   6.640   4.432
 5749WAT    LP228745   3.740   6.711   4.344
 5750WAT     OW28746   5.619   5.980   6.082
 5750WAT    HW128747   5.622   6.044   6.011
 5750WAT    HW228748   5.620   6.032   6.162
 5750WAT    LP128749   5.561   5.941   6.078
 5750WAT    LP228750   5.675   5.938   6.079
 5751WAT     OW28751   4.512   1.550   0.274
 5751WAT    HW128752   4.519   1.489   0.347
 5751WAT    HW228753   4.466   1.500   0.206
 5751WAT    LP128754   4.475   1.607   0.292
 5751WAT    LP228755   4.576   1.570   0.251
 5752WAT     OW28756   5.289   2.278   6.244
 5752WAT    HW128757   5.314   2.351   6.300
 5752WAT    HW228758   5.367   2.261   6.190
 5752WAT    LP128759   5.273   2.221   6.282
 5752WAT    LP228760   5.235   2.295   6.204
 5753WAT     OW28761   0.769   0.185   5.802
 5753WAT    HW128762   0.820   0.208   5.880
 5753WAT    HW228763   0.718   0.264   5.783
 5753WAT    LP128764   0.811   0.169   5.749
 5753WAT    LP228765   0.726   0.131   5.816
 5754WAT     OW28766   0.475   3.180   1.931
 5754WAT    HW128767   0.561   3.140   1.941
 5754WAT    HW228768   0.462   3.231   2.011
 5754WAT    LP128769   0.473   3.221   1.874
 5754WAT    LP228770   0.426   3.130   1.925
 5755WAT     OW28771   3.293   0.616   5.128
 5755WAT    HW128772   3.328   0.557   5.195
 5755WAT    HW228773   3.320   0.703   5.156
 5755WAT    LP128774   3.321   0.601   5.065
 5755WAT    LP228775   3.224   0.611   5.124
 5756WAT     OW28776   4.369   4.702   4.831
 5756WAT    HW128777   4.355   4.687   4.737
 5756WAT    HW228778   4.465   4.707   4.840
 5756WAT    LP128779   4.339   4.761   4.851
 5756WAT    LP228780   4.344   4.648   4.869
 5757WAT     OW28781   1.921   4.352   5.289
 5757WAT    HW128782   1.892   4.387   5.204
 5757WAT    HW228783   2.015   4.340   5.278
 5757WAT    LP128784   1.907   4.397   5.340
 5757WAT    LP228785   1.890   4.291   5.302
 5758WAT     OW28786   2.864   2.677   2.183
 5758WAT    HW128787   2.911   2.724   2.252
 5758WAT    HW228788   2.813   2.611   2.229
 5758WAT    LP128789   2.822   2.721   2.148
 5758WAT    LP228790   2.909   2.648   2.138
 5759WAT     OW28791   1.137   5.052   6.056
 5759WAT    HW128792   1.188   5.081   6.131
 5759WAT    HW228793   1.086   5.129   6.030
 5759WAT    LP128794   1.179   5.031   6.004
 5759WAT    LP228795   1.094   4.999   6.074
 5760WAT     OW28796   4.274   3.851   0.041
 5760WAT    HW128797   4.322   3.901  -0.025
 5760WAT    HW228798   4.223   3.917   0.088
 5760WAT    LP128799   4.232   3.804   0.011
 5760WAT    LP228800   4.318   3.819   0.084
 5761WAT     OW28801   2.363   1.809   2.549
 5761WAT    HW128802   2.357   1.840   2.639
 5761WAT    HW228803   2.444   1.848   2.515
 5761WAT    LP128804   2.367   1.739   2.547
 5761WAT    LP228805   2.308   1.830   2.511
 5762WAT     OW28806   1.081   2.450   0.897
 5762WAT    HW128807   1.118   2.455   0.985
 5762WAT    HW228808   1.094   2.538   0.861
 5762WAT    LP128809   1.115   2.403   0.859
 5762WAT    LP228810   1.013   2.434   0.899
 5763WAT     OW28811   5.230   5.201   6.268
 5763WAT    HW128812   5.158   5.151   6.229
 5763WAT    HW228813   5.186   5.270   6.318
 5763WAT    LP128814   5.268   5.161   6.311
 5763WAT    LP228815   5.271   5.228   6.218
 5764WAT     OW28816   5.353   4.450   2.279
 5764WAT    HW128817   5.275   4.403   2.308
 5764WAT    HW228818   5.381   4.404   2.200
 5764WAT    LP128819   5.338   4.517   2.265
 5764WAT    LP228820   5.403   4.448   2.328
 5765WAT     OW28821   6.378   6.393   1.043
 5765WAT    HW128822   6.459   6.437   1.069
 5765WAT    HW228823   6.335   6.456   0.985
 5765WAT    LP128824   6.392   6.333   1.008
 5765WAT    LP228825   6.338   6.379   1.098
 5766WAT     OW28826   1.058   0.871   4.549
 5766WAT    HW128827   1.095   0.783   4.546
 5766WAT    HW228828   1.036   0.885   4.641
 5766WAT    LP128829   1.104   0.919   4.528
 5766WAT    LP228830   1.000   0.875   4.509
 5767WAT     OW28831   3.387   2.307   5.387
 5767WAT    HW128832   3.304   2.278   5.349
 5767WAT    HW228833   3.419   2.231   5.435
 5767WAT    LP128834   3.432   2.325   5.337
 5767WAT    LP228835   3.377   2.361   5.430
 5768WAT     OW28836   3.281   6.251   4.585
 5768WAT    HW128837   3.374   6.256   4.609
 5768WAT    HW228838   3.282   6.231   4.491
 5768WAT    LP128839   3.249   6.201   4.621
 5768WAT    LP228840   3.249   6.312   4.597
 5769WAT     OW28841   4.393   1.639   4.456
 5769WAT    HW128842   4.416   1.729   4.433
 5769WAT    HW228843   4.468   1.607   4.505
 5769WAT    LP128844   4.335   1.638   4.496
 5769WAT    LP228845   4.382   1.600   4.399
 5770WAT     OW28846   0.024   5.984   0.362
 5770WAT    HW128847   0.115   6.010   0.371
 5770WAT    HW228848  -0.022   6.065   0.341
 5770WAT    LP128849   0.016   5.937   0.310
 5770WAT    LP228850  -0.001   5.957   0.422
 5771WAT     OW28851   0.578   1.478   3.082
 5771WAT    HW128852   0.556   1.395   3.039
 5771WAT    HW228853   0.511   1.488   3.150
 5771WAT    LP128854   0.642   1.475   3.111
 5771WAT    LP228855   0.576   1.531   3.036
 5772WAT     OW28856   1.482   3.167   2.579
 5772WAT    HW128857   1.513   3.082   2.609
 5772WAT    HW228858   1.537   3.188   2.504
 5772WAT    LP128859   1.414   3.163   2.560
 5772WAT    LP228860   1.488   3.215   2.630
 5773WAT     OW28861   3.613   6.124   0.208
 5773WAT    HW128862   3.559   6.046   0.215
 5773WAT    HW228863   3.701   6.091   0.190
 5773WAT    LP128864   3.591   6.166   0.156
 5773WAT    LP228865   3.612   6.160   0.268
 5774WAT     OW28866   6.176   0.333   0.304
 5774WAT    HW128867   6.171   0.427   0.323
 5774WAT    HW228868   6.269   0.312   0.314
 5774WAT    LP128869   6.137   0.296   0.349
 5774WAT    LP228870   6.154   0.320   0.239
 5775WAT     OW28871   2.374   5.465   6.153
 5775WAT    HW128872   2.396   5.522   6.080
 5775WAT    HW228873   2.458   5.428   6.182
 5775WAT    LP128874   2.344   5.501   6.205
 5775WAT    LP228875   2.331   5.414   6.132
 5776WAT     OW28876   3.366   4.552   4.610
 5776WAT    HW128877   3.328   4.464   4.617
 5776WAT    HW228878   3.455   4.543   4.644
 5776WAT    LP128879   3.366   4.573   4.543
 5776WAT    LP228880   3.329   4.598   4.648
 5777WAT     OW28881   1.468   5.015   0.377
 5777WAT    HW128882   1.407   4.953   0.335
 5777WAT    HW228883   1.523   5.047   0.306
 5777WAT    LP128884   1.432   5.068   0.406
 5777WAT    LP228885   1.506   4.983   0.426
 5778WAT     OW28886   6.593   0.623   1.991
 5778WAT    HW128887   6.520   0.678   1.962
 5778WAT    HW228888   6.638   0.676   2.056
 5778WAT    LP128889   6.570   0.564   2.019
 5778WAT    LP228890   6.636   0.608   1.937
 5779WAT     OW28891   2.627   4.651   0.203
 5779WAT    HW128892   2.642   4.598   0.281
 5779WAT    HW228893   2.653   4.740   0.229
 5779WAT    LP128894   2.666   4.628   0.149
 5779WAT    LP228895   2.560   4.650   0.184
 5780WAT     OW28896   3.337   4.666   2.905
 5780WAT    HW128897   3.382   4.594   2.948
 5780WAT    HW228898   3.389   4.744   2.925
 5780WAT    LP128899   3.334   4.656   2.836
 5780WAT    LP228900   3.272   4.673   2.930
 5781WAT     OW28901   0.205   1.448   4.132
 5781WAT    HW128902   0.128   1.393   4.144
 5781WAT    HW228903   0.250   1.446   4.216
 5781WAT    LP128904   0.246   1.423   4.081
 5781WAT    LP228905   0.186   1.514   4.115
 5782WAT     OW28906   2.822   1.421   2.410
 5782WAT    HW128907   2.870   1.469   2.478
 5782WAT    HW228908   2.734   1.411   2.446
 5782WAT    LP128909   2.820   1.458   2.351
 5782WAT    LP228910   2.852   1.359   2.399
 5783WAT     OW28911   5.995   0.903   2.051
 5783WAT    HW128912   5.996   0.920   2.145
 5783WAT    HW228913   5.903   0.913   2.026
 5783WAT    LP128914   6.035   0.950   2.017
 5783WAT    LP228915   6.018   0.838   2.037
 5784WAT     OW28916   4.769   2.548   1.506
 5784WAT    HW128917   4.744   2.590   1.424
 5784WAT    HW228918   4.686   2.526   1.549
 5784WAT    LP128919   4.806   2.490   1.494
 5784WAT    LP228920   4.806   2.592   1.546
 5785WAT     OW28921   1.366   5.982   5.162
 5785WAT    HW128922   1.308   5.922   5.209
 5785WAT    HW228923   1.312   6.059   5.145
 5785WAT    LP128924   1.421   5.999   5.201
 5785WAT    LP228925   1.388   5.953   5.102
 5786WAT     OW28926   4.996   3.904   3.885
 5786WAT    HW128927   4.982   3.944   3.799
 5786WAT    HW228928   5.070   3.845   3.872
 5786WAT    LP128929   5.011   3.953   3.933
 5786WAT    LP228930   4.939   3.869   3.905
 5787WAT     OW28931   0.296   1.960   5.944
 5787WAT    HW128932   0.213   1.999   5.972
 5787WAT    HW228933   0.269   1.887   5.887
 5787WAT    LP128934   0.334   2.006   5.908
 5787WAT    LP228935   0.332   1.936   5.999
 5788WAT     OW28936   4.979   0.884   1.560
 5788WAT    HW128937   4.982   0.979   1.564
 5788WAT    HW228938   5.037   0.855   1.631
 5788WAT    LP128939   4.914   0.861   1.571
 5788WAT    LP228940   5.003   0.861   1.499
 5789WAT     OW28941   5.401   4.629   5.998
 5789WAT    HW128942   5.350   4.554   6.027
 5789WAT    HW228943   5.345   4.705   6.018
 5789WAT    LP128944   5.461   4.633   6.033
 5789WAT    LP228945   5.414   4.626   5.929
 5790WAT     OW28946   5.854   4.851   2.502
 5790WAT    HW128947   5.801   4.773   2.515
 5790WAT    HW228948   5.918   4.849   2.573
 5790WAT    LP128949   5.885   4.850   2.440
 5790WAT    LP228950   5.814   4.909   2.507
 5791WAT     OW28951   4.923   6.085   5.244
 5791WAT    HW128952   4.936   6.103   5.337
 5791WAT    HW228953   4.842   6.131   5.221
 5791WAT    LP128954   4.976   6.110   5.206
 5791WAT    LP228955   4.916   6.016   5.232
 5792WAT     OW28956   4.596   2.050   1.430
 5792WAT    HW128957   4.670   2.005   1.388
 5792WAT    HW228958   4.618   2.049   1.523
 5792WAT    LP128959   4.591   2.116   1.406
 5792WAT    LP228960   4.536   2.016   1.418
 5793WAT     OW28961   3.780   2.771   3.555
 5793WAT    HW128962   3.872   2.768   3.528
 5793WAT    HW228963   3.772   2.698   3.616
 5793WAT    LP128964   3.766   2.832   3.587
 5793WAT    LP228965   3.738   2.762   3.500
 5794WAT     OW28966   6.413   5.632   0.078
 5794WAT    HW128967   6.320   5.614   0.085
 5794WAT    HW228968   6.443   5.643   0.168
 5794WAT    LP128969   6.446   5.578   0.047
 5794WAT    LP228970   6.424   5.690   0.041
 5795WAT     OW28971   5.678   4.194   3.070
 5795WAT    HW128972   5.615   4.185   2.998
 5795WAT    HW228973   5.762   4.171   3.032
 5795WAT    LP128974   5.679   4.260   3.094
 5795WAT    LP228975   5.662   4.151   3.123
 5796WAT     OW28976   3.585   0.474   0.568
 5796WAT    HW128977   3.596   0.411   0.639
 5796WAT    HW228978   3.671   0.479   0.527
 5796WAT    LP128979   3.537   0.452   0.523
 5796WAT    LP228980   3.566   0.537   0.593
 5797WAT     OW28981   2.321   1.411   3.947
 5797WAT    HW128982   2.380   1.478   3.980
 5797WAT    HW228983   2.375   1.333   3.938
 5797WAT    LP128984   2.269   1.400   3.993
 5797WAT    LP228985   2.294   1.430   3.886
 5798WAT     OW28986   0.164   1.301   0.342
 5798WAT    HW128987   0.103   1.324   0.412
 5798WAT    HW228988   0.159   1.206   0.335
 5798WAT    LP128989   0.145   1.331   0.281
 5798WAT    LP228990   0.229   1.321   0.358
 5799WAT     OW28991   4.295   6.034   0.516
 5799WAT    HW128992   4.363   5.978   0.478
 5799WAT    HW228993   4.304   6.117   0.470
 5799WAT    LP128994   4.232   6.006   0.505
 5799WAT    LP228995   4.306   6.042   0.584
 5800WAT     OW28996   2.611   3.717   1.879
 5800WAT    HW128997   2.602   3.763   1.796
 5800WAT    HW228998   2.535   3.745   1.930
 5800WAT    LP128999   2.611   3.648   1.870
 5800WAT    LP229000   2.670   3.736   1.911
 5801WAT     OW29001   2.744   6.464   0.060
 5801WAT    HW129002   2.777   6.376   0.043
 5801WAT    HW229003   2.813   6.505   0.112
 5801WAT    LP129004   2.735   6.499  -0.000
 5801WAT    LP229005   2.684   6.462   0.095
 5802WAT     OW29006   0.879   3.437   1.998
 5802WAT    HW129007   0.897   3.513   1.942
 5802WAT    HW229008   0.795   3.458   2.039
 5802WAT    LP129009   0.874   3.379   1.960
 5802WAT    LP229010   0.929   3.429   2.047
 5803WAT     OW29011   2.470   6.098   6.144
 5803WAT    HW129012   2.454   6.190   6.123
 5803WAT    HW229013   2.470   6.054   6.059
 5803WAT    LP129014   2.532   6.090   6.176
 5803WAT    LP229015   2.419   6.072   6.185
 5804WAT     OW29016   1.397   0.598   4.359
 5804WAT    HW129017   1.429   0.508   4.366
 5804WAT    HW229018   1.391   0.613   4.265
 5804WAT    LP129019   1.334   0.604   4.389
 5804WAT    LP229020   1.442   0.642   4.389
 5805WAT     OW29021   4.117   0.144   2.416
 5805WAT    HW129022   4.086   0.155   2.505
 5805WAT    HW229023   4.069   0.069   2.383
 5805WAT    LP129024   4.103   0.201   2.377
 5805WAT    LP229025   4.186   0.132   2.415
 5806WAT     OW29026   0.084   5.894   3.830
 5806WAT    HW129027  -0.011   5.892   3.830
 5806WAT    HW229028   0.107   5.986   3.847
 5806WAT    LP129029   0.109   5.853   3.881
 5806WAT    LP229030   0.109   5.873   3.768
 5807WAT     OW29031   3.405   4.309   4.173
 5807WAT    HW129032   3.378   4.400   4.155
 5807WAT    HW229033   3.323   4.264   4.193
 5807WAT    LP129034   3.436   4.281   4.118
 5807WAT    LP229035   3.448   4.307   4.229
 5808WAT     OW29036   1.204   4.811   2.524
 5808WAT    HW129037   1.276   4.835   2.582
 5808WAT    HW229038   1.237   4.829   2.436
 5808WAT    LP129039   1.189   4.743   2.531
 5808WAT    LP229040   1.147   4.849   2.538
 5809WAT     OW29041   0.687   1.528   5.567
 5809WAT    HW129042   0.652   1.471   5.498
 5809WAT    HW229043   0.750   1.584   5.521
 5809WAT    LP129044   0.636   1.567   5.595
 5809WAT    LP229045   0.718   1.491   5.617
 5810WAT     OW29046   3.662   4.123   5.453
 5810WAT    HW129047   3.641   4.033   5.476
 5810WAT    HW229048   3.576   4.166   5.443
 5810WAT    LP129049   3.698   4.154   5.505
 5810WAT    LP229050   3.698   4.126   5.394
 5811WAT     OW29051   2.258   6.405   0.472
 5811WAT    HW129052   2.343   6.448   0.484
 5811WAT    HW229053   2.258   6.334   0.536
 5811WAT    LP129054   2.205   6.449   0.485
 5811WAT    LP229055   2.252   6.379   0.407
 5812WAT     OW29056   1.288   5.150   6.257
 5812WAT    HW129057   1.343   5.223   6.228
 5812WAT    HW229058   1.349   5.078   6.271
 5812WAT    LP129059   1.255   5.166   6.317
 5812WAT    LP229060   1.241   5.133   6.208
 5813WAT     OW29061   0.362   4.497   5.594
 5813WAT    HW129062   0.277   4.487   5.637
 5813WAT    HW229063   0.418   4.432   5.636
 5813WAT    LP129064   0.357   4.484   5.526
 5813WAT    LP229065   0.388   4.561   5.604
 5814WAT     OW29066   4.433   5.662   2.836
 5814WAT    HW129067   4.404   5.754   2.840
 5814WAT    HW229068   4.506   5.658   2.898
 5814WAT    LP129069   4.382   5.619   2.855
 5814WAT    LP229070   4.455   5.646   2.772
 5815WAT     OW29071   2.311   5.268   0.409
 5815WAT    HW129072   2.272   5.181   0.404
 5815WAT    HW229073   2.241   5.328   0.383
 5815WAT    LP129074   2.333   5.282   0.474
 5815WAT    LP229075   2.365   5.273   0.365
 5816WAT     OW29076   6.648   3.345   2.806
 5816WAT    HW129077   6.568   3.393   2.824
 5816WAT    HW229078   6.622   3.277   2.744
 5816WAT    LP129079   6.697   3.387   2.778
 5816WAT    LP229080   6.673   3.316   2.865
 5817WAT     OW29081   3.324   6.478   5.795
 5817WAT    HW129082   3.353   6.512   5.710
 5817WAT    HW229083   3.381   6.520   5.859
 5817WAT    LP129084   3.257   6.495   5.806
 5817WAT    LP229085   3.331   6.408   5.797
 5818WAT     OW29086   2.532   1.548   1.676
 5818WAT    HW129087   2.474   1.475   1.699
 5818WAT    HW229088   2.542   1.542   1.581
 5818WAT    LP129089   2.503   1.609   1.694
 5818WAT    LP229090   2.594   1.541   1.708
 5819WAT     OW29091   3.885   5.528   0.841
 5819WAT    HW129092   3.805   5.581   0.832
 5819WAT    HW229093   3.944   5.561   0.774
 5819WAT    LP129094   3.913   5.536   0.905
 5819WAT    LP229095   3.870   5.460   0.830
 5820WAT     OW29096   5.068   2.670   0.727
 5820WAT    HW129097   5.055   2.656   0.633
 5820WAT    HW229098   5.063   2.765   0.738
 5820WAT    LP129099   5.018   2.638   0.764
 5820WAT    LP229100   5.130   2.646   0.747
 5821WAT     OW29101   6.118   4.533   5.065
 5821WAT    HW129102   6.075   4.449   5.081
 5821WAT    HW229103   6.171   4.549   5.144
 5821WAT    LP129104   6.159   4.530   5.009
 5821WAT    LP229105   6.071   4.584   5.057
 5822WAT     OW29106   0.772   2.205   1.091
 5822WAT    HW129107   0.701   2.264   1.118
 5822WAT    HW229108   0.799   2.237   1.005
 5822WAT    LP129109   0.825   2.208   1.137
 5822WAT    LP229110   0.749   2.139   1.087
 5823WAT     OW29111   4.708   5.007   3.918
 5823WAT    HW129112   4.795   5.046   3.915
 5823WAT    HW229113   4.654   5.069   3.967
 5823WAT    LP129114   4.682   4.998   3.853
 5823WAT    LP229115   4.710   4.945   3.951
 5824WAT     OW29116   0.688   6.111   2.103
 5824WAT    HW129117   0.708   6.205   2.110
 5824WAT    HW229118   0.594   6.106   2.123
 5824WAT    LP129119   0.701   6.088   2.039
 5824WAT    LP229120   0.725   6.074   2.150
 5825WAT     OW29121   1.439   2.167   6.528
 5825WAT    HW129122   1.353   2.200   6.553
 5825WAT    HW229123   1.475   2.131   6.609
 5825WAT    LP129124   1.433   2.117   6.479
 5825WAT    LP229125   1.480   2.219   6.504
 5826WAT     OW29126   3.948   2.926   4.568
 5826WAT    HW129127   4.020   2.960   4.622
 5826WAT    HW229128   3.870   2.939   4.622
 5826WAT    LP129129   3.943   2.962   4.508
 5826WAT    LP229130   3.958   2.858   4.554
 5827WAT     OW29131   3.870   0.829   3.689
 5827WAT    HW129132   3.960   0.831   3.722
 5827WAT    HW229133   3.879   0.818   3.595
 5827WAT    LP129134   3.835   0.775   3.717
 5827WAT    LP229135   3.836   0.888   3.705
 5828WAT     OW29136   4.811   2.937   3.799
 5828WAT    HW129137   4.786   2.960   3.888
 5828WAT    HW229138   4.754   2.865   3.775
 5828WAT    LP129139   4.801   2.992   3.756
 5828WAT    LP229140   4.878   2.918   3.796
 5829WAT     OW29141   4.107   1.801   2.823
 5829WAT    HW129142   4.044   1.854   2.774
 5829WAT    HW229143   4.169   1.769   2.757
 5829WAT    LP129144   4.140   1.840   2.871
 5829WAT    LP229145   4.075   1.747   2.855
 5830WAT     OW29146   5.205   0.315   2.297
 5830WAT    HW129147   5.215   0.391   2.240
 5830WAT    HW229148   5.229   0.347   2.384
 5830WAT    LP129149   5.138   0.292   2.297
 5830WAT    LP229150   5.247   0.263   2.278
 5831WAT     OW29151   5.993   1.907   2.291
 5831WAT    HW129152   5.965   1.943   2.207
 5831WAT    HW229153   5.991   1.982   2.351
 5831WAT    LP129154   5.950   1.857   2.313
 5831WAT    LP229155   6.058   1.881   2.286
 5832WAT     OW29156   0.486   5.784   0.447
 5832WAT    HW129157   0.408   5.740   0.481
 5832WAT    HW229158   0.490   5.867   0.495
 5832WAT    LP129159   0.543   5.745   0.459
 5832WAT    LP229160   0.479   5.795   0.378
 5833WAT     OW29161   1.080   5.242   6.439
 5833WAT    HW129162   1.144   5.200   6.380
 5833WAT    HW229163   0.998   5.241   6.390
 5833WAT    LP129164   1.074   5.206   6.498
 5833WAT    LP229165   1.100   5.308   6.453
 5834WAT     OW29166   3.727   2.111   4.448
 5834WAT    HW129167   3.770   2.123   4.533
 5834WAT    HW229168   3.719   2.016   4.439
 5834WAT    LP129169   3.664   2.141   4.447
 5834WAT    LP229170   3.767   2.138   4.397
 5835WAT     OW29171   4.709   5.612   1.812
 5835WAT    HW129172   4.654   5.687   1.832
 5835WAT    HW229173   4.733   5.624   1.720
 5835WAT    LP129174   4.766   5.611   1.852
 5835WAT    LP229175   4.673   5.552   1.820
 5836WAT     OW29176   5.365   1.805   4.712
 5836WAT    HW129177   5.356   1.888   4.759
 5836WAT    HW229178   5.296   1.750   4.748
 5836WAT    LP129179   5.355   1.815   4.643
 5836WAT    LP229180   5.428   1.777   4.722
 5837WAT     OW29181   5.516   4.147   2.857
 5837WAT    HW129182   5.541   4.191   2.776
 5837WAT    HW229183   5.515   4.054   2.834
 5837WAT    LP129184   5.563   4.159   2.908
 5837WAT    LP229185   5.453   4.168   2.878
 5838WAT     OW29186   6.059   1.309   2.501
 5838WAT    HW129187   6.088   1.335   2.588
 5838WAT    HW229188   5.990   1.244   2.517
 5838WAT    LP129189   6.034   1.363   2.465
 5838WAT    LP229190   6.112   1.280   2.465
 5839WAT     OW29191   4.947   1.128   0.033
 5839WAT    HW129192   4.995   1.210   0.026
 5839WAT    HW229193   4.938   1.098  -0.057
 5839WAT    LP129194   4.983   1.081   0.071
 5839WAT    LP229195   4.884   1.138   0.062
 5840WAT     OW29196   2.072   5.395   6.510
 5840WAT    HW129197   2.113   5.465   6.460
 5840WAT    HW229198   2.126   5.386   6.589
 5840WAT    LP129199   2.006   5.412   6.528
 5840WAT    LP229200   2.071   5.335   6.474
 5841WAT     OW29201   5.157   0.610   4.560
 5841WAT    HW129202   5.073   0.586   4.522
 5841WAT    HW229203   5.141   0.611   4.654
 5841WAT    LP129204   5.206   0.563   4.543
 5841WAT    LP229205   5.177   0.673   4.537
 5842WAT     OW29206   6.065   3.390   3.056
 5842WAT    HW129207   6.147   3.438   3.073
 5842WAT    HW229208   6.035   3.363   3.143
 5842WAT    LP129209   6.018   3.431   3.025
 5842WAT    LP229210   6.078   3.334   3.016
 5843WAT     OW29211   0.125   5.261   3.220
 5843WAT    HW129212   0.153   5.348   3.248
 5843WAT    HW229213   0.034   5.273   3.194
 5843WAT    LP129214   0.163   5.239   3.166
 5843WAT    LP229215   0.130   5.215   3.273
 5844WAT     OW29216   0.480   3.039   3.719
 5844WAT    HW129217   0.397   3.008   3.756
 5844WAT    HW229218   0.510   2.967   3.664
 5844WAT    LP129219   0.470   3.097   3.681
 5844WAT    LP229220   0.527   3.052   3.770
 5845WAT     OW29221   4.991   6.285   0.795
 5845WAT    HW129222   5.034   6.225   0.735
 5845WAT    HW229223   5.046   6.284   0.874
 5845WAT    LP129224   4.988   6.350   0.768
 5845WAT    LP229225   4.926   6.264   0.810
 5846WAT     OW29226   6.449   5.992   0.582
 5846WAT    HW129227   6.393   5.957   0.512
 5846WAT    HW229228   6.459   6.085   0.561
 5846WAT    LP129229   6.418   5.984   0.645
 5846WAT    LP229230   6.511   5.960   0.583
 5847WAT     OW29231   2.226   4.955   4.775
 5847WAT    HW129232   2.228   4.865   4.743
 5847WAT    HW229233   2.295   4.999   4.725
 5847WAT    LP129234   2.164   4.985   4.763
 5847WAT    LP229235   2.240   4.958   4.843
 5848WAT     OW29236   2.997   2.810   2.381
 5848WAT    HW129237   2.969   2.818   2.472
 5848WAT    HW229238   3.009   2.900   2.351
 5848WAT    LP129239   3.058   2.774   2.377
 5848WAT    LP229240   2.949   2.777   2.343
 5849WAT     OW29241   6.124   4.623   0.668
 5849WAT    HW129242   6.035   4.651   0.645
 5849WAT    HW229243   6.166   4.703   0.701
 5849WAT    LP129244   6.123   4.574   0.717
 5849WAT    LP229245   6.158   4.599   0.612
 5850WAT     OW29246   0.481   1.955   4.525
 5850WAT    HW129247   0.492   2.049   4.516
 5850WAT    HW229248   0.390   1.938   4.499
 5850WAT    LP129249   0.525   1.920   4.483
 5850WAT    LP229250   0.492   1.935   4.592
 5851WAT     OW29251   4.493   2.937   2.214
 5851WAT    HW129252   4.485   2.846   2.186
 5851WAT    HW229253   4.440   2.986   2.151
 5851WAT    LP129254   4.469   2.946   2.279
 5851WAT    LP229255   4.560   2.958   2.211
 5852WAT     OW29256   3.921   3.951   5.333
 5852WAT    HW129257   3.958   3.866   5.308
 5852WAT    HW229258   3.988   4.014   5.311
 5852WAT    LP129259   3.862   3.963   5.297
 5852WAT    LP229260   3.907   3.952   5.402
 5853WAT     OW29261   2.655   0.706   3.600
 5853WAT    HW129262   2.732   0.650   3.602
 5853WAT    HW229263   2.685   0.789   3.639
 5853WAT    LP129264   2.634   0.717   3.534
 5853WAT    LP229265   2.603   0.679   3.638
 5854WAT     OW29266   0.875   4.871   0.678
 5854WAT    HW129267   0.936   4.797   0.670
 5854WAT    HW229268   0.791   4.837   0.647
 5854WAT    LP129269   0.870   4.892   0.745
 5854WAT    LP229270   0.896   4.925   0.638
 5855WAT     OW29271   4.625   4.319   2.410
 5855WAT    HW129272   4.679   4.253   2.454
 5855WAT    HW229273   4.631   4.297   2.317
 5855WAT    LP129274   4.558   4.315   2.432
 5855WAT    LP229275   4.649   4.383   2.422
 5856WAT     OW29276   1.352   4.402   5.532
 5856WAT    HW129277   1.386   4.379   5.446
 5856WAT    HW229278   1.430   4.416   5.586
 5856WAT    LP129279   1.313   4.461   5.529
 5856WAT    LP229280   1.313   4.350   5.559
 5857WAT     OW29281   1.813   4.674   1.097
 5857WAT    HW129282   1.869   4.599   1.076
 5857WAT    HW229283   1.738   4.665   1.039
 5857WAT    LP129284   1.793   4.672   1.164
 5857WAT    LP229285   1.847   4.734   1.085
 5858WAT     OW29286   4.189   2.199   0.826
 5858WAT    HW129287   4.240   2.180   0.747
 5858WAT    HW229288   4.098   2.190   0.799
 5858WAT    LP129289   4.205   2.153   0.876
 5858WAT    LP229290   4.202   2.264   0.848
 5859WAT     OW29291   2.569   4.794   0.507
 5859WAT    HW129292   2.494   4.839   0.545
 5859WAT    HW229293   2.599   4.852   0.437
 5859WAT    LP129294   2.619   4.784   0.554
 5859WAT    LP229295   2.549   4.732   0.481
 5860WAT     OW29296   4.414   4.093   3.877
 5860WAT    HW129297   4.401   4.000   3.858
 5860WAT    HW229298   4.362   4.109   3.955
 5860WAT    LP129299   4.482   4.106   3.889
 5860WAT    LP229300   4.392   4.132   3.823
 5861WAT     OW29301   0.502   3.435   0.914
 5861WAT    HW129302   0.551   3.510   0.879
 5861WAT    HW229303   0.412   3.452   0.888
 5861WAT    LP129304   0.526   3.376   0.886
 5861WAT    LP229305   0.508   3.433   0.984
 5862WAT     OW29306   4.864   0.137   0.427
 5862WAT    HW129307   4.793   0.151   0.363
 5862WAT    HW229308   4.829   0.071   0.486
 5862WAT    LP129309   4.921   0.114   0.395
 5862WAT    LP229310   4.878   0.196   0.461
 5863WAT     OW29311   4.118   4.057   0.141
 5863WAT    HW129312   4.029   4.075   0.111
 5863WAT    HW229313   4.115   4.076   0.235
 5863WAT    LP129314   4.135   3.990   0.130
 5863WAT    LP229315   4.164   4.099   0.109
 5864WAT     OW29316   2.035   0.639   6.432
 5864WAT    HW129317   2.067   0.610   6.518
 5864WAT    HW229318   1.951   0.681   6.450
 5864WAT    LP129319   2.080   0.684   6.403
 5864WAT    LP229320   2.027   0.584   6.389
 5865WAT     OW29321   5.535   4.766   4.624
 5865WAT    HW129322   5.602   4.700   4.606
 5865WAT    HW229323   5.468   4.719   4.673
 5865WAT    LP129324   5.562   4.818   4.662
 5865WAT    LP229325   5.509   4.791   4.564
 5866WAT     OW29326   0.626   1.778   1.832
 5866WAT    HW129327   0.648   1.747   1.744
 5866WAT    HW229328   0.677   1.722   1.890
 5866WAT    LP129329   0.643   1.845   1.840
 5866WAT    LP229330   0.557   1.770   1.844
 5867WAT     OW29331   0.434   4.702   6.569
 5867WAT    HW129332   0.509   4.762   6.559
 5867WAT    HW229333   0.441   4.670   6.658
 5867WAT    LP129334   0.374   4.736   6.559
 5867WAT    LP229335   0.439   4.649   6.523
 5868WAT     OW29336   1.919   0.504   0.342
 5868WAT    HW129337   1.920   0.409   0.350
 5868WAT    HW229338   1.885   0.520   0.254
 5868WAT    LP129339   1.878   0.533   0.390
 5868WAT    LP229340   1.984   0.530   0.348
 5869WAT     OW29341   1.063   5.983   2.904
 5869WAT    HW129342   1.135   5.973   2.841
 5869WAT    HW229343   1.105   6.018   2.983
 5869WAT    LP129344   1.015   6.027   2.880
 5869WAT    LP229345   1.034   5.921   2.918
 5870WAT     OW29346   0.677   0.353   6.337
 5870WAT    HW129347   0.721   0.279   6.294
 5870WAT    HW229348   0.597   0.366   6.286
 5870WAT    LP129349   0.662   0.337   6.403
 5870WAT    LP229350   0.718   0.410   6.335
 5871WAT     OW29351   3.918   3.269   4.699
 5871WAT    HW129352   3.928   3.339   4.763
 5871WAT    HW229353   3.900   3.315   4.616
 5871WAT    LP129354   3.977   3.232   4.694
 5871WAT    LP229355   3.865   3.227   4.716
 5872WAT     OW29356   4.282   5.096   4.604
 5872WAT    HW129357   4.247   5.165   4.549
 5872WAT    HW229358   4.349   5.139   4.658
 5872WAT    LP129359   4.232   5.068   4.644
 5872WAT    LP229360   4.312   5.045   4.565
 5873WAT     OW29361   6.781   2.056   1.813
 5873WAT    HW129362   6.867   2.043   1.854
 5873WAT    HW229363   6.802   2.084   1.724
 5873WAT    LP129364   6.745   1.997   1.812
 5873WAT    LP229365   6.745   2.106   1.846
 5874WAT     OW29366   3.441   1.939   4.726
 5874WAT    HW129367   3.429   1.881   4.801
 5874WAT    HW229368   3.497   2.010   4.760
 5874WAT    LP129369   3.473   1.906   4.674
 5874WAT    LP229370   3.380   1.965   4.704
 5875WAT     OW29371   1.884   2.807   1.719
 5875WAT    HW129372   1.924   2.810   1.806
 5875WAT    HW229373   1.867   2.714   1.703
 5875WAT    LP129374   1.825   2.844   1.718
 5875WAT    LP229375   1.929   2.833   1.671
 5876WAT     OW29376   6.413   1.079   6.056
 5876WAT    HW129377   6.346   1.089   5.988
 5876WAT    HW229378   6.485   1.032   6.013
 5876WAT    LP129379   6.435   1.141   6.079
 5876WAT    LP229380   6.388   1.041   6.110
 5877WAT     OW29381   4.330   3.718   1.833
 5877WAT    HW129382   4.234   3.709   1.831
 5877WAT    HW229383   4.347   3.778   1.905
 5877WAT    LP129384   4.360   3.656   1.844
 5877WAT    LP229385   4.353   3.745   1.772
 5878WAT     OW29386   4.197   1.628   3.675
 5878WAT    HW129387   4.257   1.553   3.680
 5878WAT    HW229388   4.110   1.591   3.684
 5878WAT    LP129389   4.210   1.674   3.726
 5878WAT    LP229390   4.204   1.660   3.613
 5879WAT     OW29391   2.172   0.974   1.354
 5879WAT    HW129392   2.170   0.887   1.313
 5879WAT    HW229393   2.234   0.966   1.426
 5879WAT    LP129394   2.194   1.022   1.308
 5879WAT    LP229395   2.109   0.991   1.378
 5880WAT     OW29396   5.113   4.830   2.641
 5880WAT    HW129397   5.187   4.860   2.589
 5880WAT    HW229398   5.065   4.771   2.584
 5880WAT    LP129399   5.135   4.796   2.699
 5880WAT    LP229400   5.073   4.884   2.660
 5881WAT     OW29401   5.506   0.461   5.513
 5881WAT    HW129402   5.532   0.537   5.565
 5881WAT    HW229403   5.523   0.487   5.422
 5881WAT    LP129404   5.545   0.406   5.530
 5881WAT    LP229405   5.439   0.446   5.522
 5882WAT     OW29406   2.570   3.970   5.438
 5882WAT    HW129407   2.626   3.900   5.472
 5882WAT    HW229408   2.628   4.023   5.384
 5882WAT    LP129409   2.518   3.943   5.398
 5882WAT    LP229410   2.542   4.007   5.490
 5883WAT     OW29411   0.731   5.643   0.442
 5883WAT    HW129412   0.649   5.691   0.436
 5883WAT    HW229413   0.799   5.709   0.428
 5883WAT    LP129414   0.738   5.613   0.505
 5883WAT    LP229415   0.735   5.594   0.392
 5884WAT     OW29416   3.597   4.963   0.533
 5884WAT    HW129417   3.562   4.920   0.610
 5884WAT    HW229418   3.564   5.052   0.538
 5884WAT    LP129419   3.667   4.962   0.533
 5884WAT    LP229420   3.574   4.931   0.474
 5885WAT     OW29421   6.619   2.638   3.529
 5885WAT    HW129422   6.549   2.689   3.569
 5885WAT    HW229423   6.672   2.703   3.482
 5885WAT    LP129424   6.658   2.606   3.577
 5885WAT    LP229425   6.593   2.591   3.484
 5886WAT     OW29426   3.266   1.477   2.270
 5886WAT    HW129427   3.264   1.396   2.219
 5886WAT    HW229428   3.178   1.513   2.262
 5886WAT    LP129429   3.281   1.463   2.337
 5886WAT    LP229430   3.313   1.521   2.245
 5887WAT     OW29431   6.206   1.133   5.845
 5887WAT    HW129432   6.290   1.118   5.801
 5887WAT    HW229433   6.153   1.181   5.780
 5887WAT    LP129434   6.175   1.073   5.862
 5887WAT    LP229435   6.214   1.172   5.903
 5888WAT     OW29436   0.219   3.704   3.982
 5888WAT    HW129437   0.295   3.758   3.962
 5888WAT    HW229438   0.233   3.623   3.933
 5888WAT    LP129439   0.215   3.691   4.051
 5888WAT    LP229440   0.160   3.735   3.961
 5889WAT     OW29441   3.084   0.517   2.872
 5889WAT    HW129442   3.118   0.441   2.824
 5889WAT    HW229443   3.150   0.585   2.859
 5889WAT    LP129444   3.022   0.537   2.845
 5889WAT    LP229445   3.076   0.502   2.940
 5890WAT     OW29446   2.694   6.082   4.953
 5890WAT    HW129447   2.616   6.053   4.999
 5890WAT    HW229448   2.688   6.177   4.952
 5890WAT    LP129449   2.752   6.061   4.986
 5890WAT    LP229450   2.695   6.057   4.887
 5891WAT     OW29451   3.645   0.403   1.268
 5891WAT    HW129452   3.600   0.472   1.318
 5891WAT    HW229453   3.590   0.326   1.280
 5891WAT    LP129454   3.649   0.421   1.201
 5891WAT    LP229455   3.709   0.393   1.293
 5892WAT     OW29456   4.452   4.803   0.202
 5892WAT    HW129457   4.483   4.716   0.226
 5892WAT    HW229458   4.469   4.856   0.280
 5892WAT    LP129459   4.487   4.828   0.147
 5892WAT    LP229460   4.384   4.802   0.188
 5893WAT     OW29461   0.219   3.189   3.133
 5893WAT    HW129462   0.123   3.189   3.136
 5893WAT    HW229463   0.240   3.137   3.055
 5893WAT    LP129464   0.244   3.254   3.127
 5893WAT    LP229465   0.245   3.159   3.190
 5894WAT     OW29466   0.009   4.120   4.801
 5894WAT    HW129467   0.069   4.135   4.729
 5894WAT    HW229468  -0.049   4.196   4.801
 5894WAT    LP129469  -0.028   4.061   4.791
 5894WAT    LP229470   0.043   4.115   4.862
 5895WAT     OW29471   4.695   4.854   0.885
 5895WAT    HW129472   4.658   4.941   0.901
 5895WAT    HW229473   4.649   4.797   0.948
 5895WAT    LP129474   4.682   4.833   0.819
 5895WAT    LP229475   4.764   4.853   0.897
 5896WAT     OW29476   3.635   3.051   2.676
 5896WAT    HW129477   3.648   2.976   2.618
 5896WAT    HW229478   3.590   3.115   2.621
 5896WAT    LP129479   3.596   3.034   2.731
 5896WAT    LP229480   3.697   3.077   2.697
 5897WAT     OW29481   2.832   1.500   1.330
 5897WAT    HW129482   2.884   1.504   1.410
 5897WAT    HW229483   2.743   1.518   1.358
 5897WAT    LP129484   2.854   1.548   1.284
 5897WAT    LP229485   2.837   1.436   1.301
 5898WAT     OW29486   1.890   0.139   0.857
 5898WAT    HW129487   1.924   0.160   0.770
 5898WAT    HW229488   1.803   0.181   0.860
 5898WAT    LP129489   1.884   0.070   0.866
 5898WAT    LP229490   1.931   0.166   0.907
 5899WAT     OW29491   1.561   3.765   2.119
 5899WAT    HW129492   1.487   3.753   2.060
 5899WAT    HW229493   1.578   3.677   2.154
 5899WAT    LP129494   1.617   3.789   2.085
 5899WAT    LP229495   1.545   3.809   2.171
 5900WAT     OW29496   5.013   6.594   4.178
 5900WAT    HW129497   5.023   6.510   4.222
 5900WAT    HW229498   4.947   6.579   4.111
 5900WAT    LP129499   4.992   6.643   4.223
 5900WAT    LP229500   5.074   6.614   4.149
 5901WAT     OW29501   2.351   4.928   0.611
 5901WAT    HW129502   2.300   4.971   0.542
 5901WAT    HW229503   2.287   4.875   0.659
 5901WAT    LP129504   2.401   4.888   0.584
 5901WAT    LP229505   2.379   4.976   0.654
 5902WAT     OW29506   0.606   6.050   4.622
 5902WAT    HW129507   0.600   6.074   4.714
 5902WAT    HW229508   0.670   6.111   4.585
 5902WAT    LP129509   0.629   5.984   4.615
 5902WAT    LP229510   0.544   6.056   4.590
 5903WAT     OW29511   2.447   4.145   5.060
 5903WAT    HW129512   2.512   4.077   5.075
 5903WAT    HW229513   2.399   4.116   4.982
 5903WAT    LP129514   2.404   4.151   5.115
 5903WAT    LP229515   2.478   4.207   5.048
 5904WAT     OW29516   3.465   3.883   4.320
 5904WAT    HW129517   3.455   3.859   4.412
 5904WAT    HW229518   3.376   3.905   4.291
 5904WAT    LP129519   3.507   3.939   4.314
 5904WAT    LP229520   3.491   3.830   4.283
 5905WAT     OW29521   5.274   0.859   1.332
 5905WAT    HW129522   5.261   0.948   1.365
 5905WAT    HW229523   5.365   0.858   1.301
 5905WAT    LP129524   5.265   0.812   1.384
 5905WAT    LP229525   5.230   0.844   1.280
 5906WAT     OW29526   2.709   5.789   3.155
 5906WAT    HW129527   2.734   5.860   3.097
 5906WAT    HW229528   2.782   5.781   3.216
 5906WAT    LP129529   2.650   5.804   3.190
 5906WAT    LP229530   2.700   5.729   3.119
 5907WAT     OW29531   2.384   0.815   4.891
 5907WAT    HW129532   2.451   0.811   4.959
 5907WAT    HW229533   2.418   0.761   4.820
 5907WAT    LP129534   2.323   0.789   4.914
 5907WAT    LP229535   2.374   0.881   4.869
 5908WAT     OW29536   3.534   5.133   0.219
 5908WAT    HW129537   3.549   5.222   0.186
 5908WAT    HW229538   3.477   5.093   0.154
 5908WAT    LP129539   3.595   5.098   0.223
 5908WAT    LP229540   3.503   5.135   0.282
 5909WAT     OW29541   2.043   3.149   3.654
 5909WAT    HW129542   2.004   3.098   3.583
 5909WAT    HW229543   2.116   3.196   3.613
 5909WAT    LP129544   1.997   3.194   3.681
 5909WAT    LP229545   2.067   3.106   3.704
 5910WAT     OW29546   3.940   4.466   2.494
 5910WAT    HW129547   3.901   4.421   2.419
 5910WAT    HW229548   3.994   4.399   2.537
 5910WAT    LP129549   3.980   4.519   2.473
 5910WAT    LP229550   3.891   4.489   2.537
 5911WAT     OW29551   1.463   3.787   4.851
 5911WAT    HW129552   1.442   3.875   4.881
 5911WAT    HW229553   1.389   3.762   4.796
 5911WAT    LP129554   1.523   3.788   4.814
 5911WAT    LP229555   1.470   3.743   4.905
 5912WAT     OW29556   2.157   3.453   2.912
 5912WAT    HW129557   2.221   3.523   2.900
 5912WAT    HW229558   2.177   3.390   2.843
 5912WAT    LP129559   2.164   3.424   2.976
 5912WAT    LP229560   2.092   3.478   2.905
 5913WAT     OW29561   0.035   2.528   3.910
 5913WAT    HW129562   0.054   2.453   3.966
 5913WAT    HW229563  -0.057   2.549   3.929
 5913WAT    LP129564   0.076   2.582   3.926
 5913WAT    LP229565   0.043   2.511   3.843
 5914WAT     OW29566   1.088   6.546   4.156
 5914WAT    HW129567   1.058   6.566   4.245
 5914WAT    HW229568   1.139   6.465   4.166
 5914WAT    LP129569   1.034   6.537   4.113
 5914WAT    LP229570   1.129   6.598   4.132
 5915WAT     OW29571   2.279   5.826   5.503
 5915WAT    HW129572   2.285   5.777   5.421
 5915WAT    HW229573   2.357   5.880   5.505
 5915WAT    LP129574   2.221   5.865   5.505
 5915WAT    LP229575   2.278   5.782   5.558
 5916WAT     OW29576   4.724   5.115   3.156
 5916WAT    HW129577   4.666   5.170   3.209
 5916WAT    HW229578   4.811   5.132   3.192
 5916WAT    LP129579   4.707   5.048   3.162
 5916WAT    LP229580   4.721   5.134   3.089
 5917WAT     OW29581   5.174   1.814   3.689
 5917WAT    HW129582   5.212   1.727   3.703
 5917WAT    HW229583   5.080   1.800   3.700
 5917WAT    LP129584   5.198   1.859   3.736
 5917WAT    LP229585   5.188   1.837   3.625
 5918WAT     OW29586   4.438   0.103   2.943
 5918WAT    HW129587   4.455   0.049   2.867
 5918WAT    HW229588   4.423   0.041   3.014
 5918WAT    LP129589   4.493   0.144   2.957
 5918WAT    LP229590   4.381   0.143   2.933
 5919WAT     OW29591   3.929   5.141   4.129
 5919WAT    HW129592   3.923   5.067   4.068
 5919WAT    HW229593   3.857   5.199   4.103
 5919WAT    LP129594   3.921   5.119   4.195
 5919WAT    LP229595   3.991   5.174   4.123
 5920WAT     OW29596   1.918   2.020   6.548
 5920WAT    HW129597   1.884   2.009   6.458
 5920WAT    HW229598   2.007   1.986   6.544
 5920WAT    LP129599   1.918   2.088   6.566
 5920WAT    LP229600   1.879   1.984   6.593
 5921WAT     OW29601   2.483   0.361   4.104
 5921WAT    HW129602   2.512   0.362   4.195
 5921WAT    HW229603   2.393   0.329   4.107
 5921WAT    LP129604   2.485   0.425   4.076
 5921WAT    LP229605   2.523   0.318   4.065
 5922WAT     OW29606   1.664   1.158   0.538
 5922WAT    HW129607   1.699   1.122   0.457
 5922WAT    HW229608   1.569   1.161   0.524
 5922WAT    LP129609   1.680   1.116   0.592
 5922WAT    LP229610   1.689   1.222   0.550
 5923WAT     OW29611   0.193   3.992   4.382
 5923WAT    HW129612   0.162   4.013   4.294
 5923WAT    HW229613   0.289   3.996   4.375
 5923WAT    LP129614   0.170   4.039   4.428
 5923WAT    LP229615   0.172   3.928   4.401
 5924WAT     OW29616   4.268   2.763   4.849
 5924WAT    HW129617   4.341   2.811   4.887
 5924WAT    HW229618   4.190   2.812   4.877
 5924WAT    LP129619   4.273   2.762   4.779
 5924WAT    LP229620   4.266   2.698   4.874
 5925WAT     OW29621   1.935   4.559   5.831
 5925WAT    HW129622   1.937   4.576   5.737
 5925WAT    HW229623   2.017   4.511   5.848
 5925WAT    LP129624   1.934   4.619   5.868
 5925WAT    LP229625   1.880   4.520   5.849
 5926WAT     OW29626   4.554   1.552   4.844
 5926WAT    HW129627   4.581   1.550   4.753
 5926WAT    HW229628   4.530   1.462   4.865
 5926WAT    LP129629   4.606   1.574   4.885
 5926WAT    LP229630   4.499   1.595   4.853
 5927WAT     OW29631   5.268   4.221   6.258
 5927WAT    HW129632   5.313   4.165   6.194
 5927WAT    HW229633   5.253   4.303   6.211
 5927WAT    LP129634   5.207   4.192   6.277
 5927WAT    LP229635   5.308   4.231   6.314
 5928WAT     OW29636   3.192   5.011   0.398
 5928WAT    HW129637   3.269   4.958   0.374
 5928WAT    HW229638   3.168   4.980   0.485
 5928WAT    LP129639   3.209   5.079   0.399
 5928WAT    LP229640   3.140   5.000   0.352
 5929WAT     OW29641   6.037   0.225   4.317
 5929WAT    HW129642   6.092   0.147   4.320
 5929WAT    HW229643   5.995   0.221   4.231
 5929WAT    LP129644   5.990   0.224   4.368
 5929WAT    LP229645   6.077   0.283   4.323
 5930WAT     OW29646   0.829   2.428   3.895
 5930WAT    HW129647   0.834   2.337   3.866
 5930WAT    HW229648   0.868   2.427   3.983
 5930WAT    LP129649   0.864   2.470   3.853
 5930WAT    LP229650   0.762   2.449   3.898
 5931WAT     OW29651   6.322   6.030   5.753
 5931WAT    HW129652   6.275   5.951   5.727
 5931WAT    HW229653   6.362   6.008   5.838
 5931WAT    LP129654   6.372   6.046   5.706
 5931WAT    LP229655   6.278   6.084   5.760
 5932WAT     OW29656   5.808   0.552   6.015
 5932WAT    HW129657   5.878   0.598   5.969
 5932WAT    HW229658   5.844   0.535   6.102
 5932WAT    LP129659   5.751   0.593   6.020
 5932WAT    LP229660   5.791   0.492   5.983
 5933WAT     OW29661   3.334   2.853   4.043
 5933WAT    HW129662   3.263   2.808   3.996
 5933WAT    HW229663   3.408   2.793   4.037
 5933WAT    LP129664   3.348   2.914   4.013
 5933WAT    LP229665   3.316   2.863   4.110
 5934WAT     OW29666   6.722   4.855   0.471
 5934WAT    HW129667   6.737   4.939   0.426
 5934WAT    HW229668   6.809   4.825   0.495
 5934WAT    LP129669   6.682   4.864   0.527
 5934WAT    LP229670   6.691   4.810   0.427
 5935WAT     OW29671   4.274   6.532   5.479
 5935WAT    HW129672   4.305   6.448   5.444
 5935WAT    HW229673   4.198   6.508   5.533
 5935WAT    LP129674   4.323   6.562   5.518
 5935WAT    LP229675   4.255   6.575   5.427
 5936WAT     OW29676   3.948   5.945   3.267
 5936WAT    HW129677   4.030   5.970   3.225
 5936WAT    HW229678   3.971   5.938   3.360
 5936WAT    LP129679   3.900   5.995   3.258
 5936WAT    LP229680   3.925   5.884   3.243
 5937WAT     OW29681   2.635   0.160   1.582
 5937WAT    HW129682   2.637   0.173   1.487
 5937WAT    HW229683   2.558   0.104   1.596
 5937WAT    LP129684   2.693   0.128   1.604
 5937WAT    LP229685   2.627   0.221   1.615
 5938WAT     OW29686   1.791   1.847   4.614
 5938WAT    HW129687   1.871   1.801   4.642
 5938WAT    HW229688   1.729   1.831   4.685
 5938WAT    LP129689   1.803   1.915   4.606
 5938WAT    LP229690   1.767   1.820   4.554
 5939WAT     OW29691   4.982   1.571   5.520
 5939WAT    HW129692   4.996   1.665   5.532
 5939WAT    HW229693   4.887   1.560   5.523
 5939WAT    LP129694   5.007   1.550   5.457
 5939WAT    LP229695   5.013   1.534   5.570
 5940WAT     OW29696   4.824   0.470   6.198
 5940WAT    HW129697   4.802   0.549   6.247
 5940WAT    HW229698   4.739   0.431   6.175
 5940WAT    LP129699   4.860   0.486   6.140
 5940WAT    LP229700   4.861   0.425   6.237
 5941WAT     OW29701   2.750   4.199   6.458
 5941WAT    HW129702   2.739   4.254   6.381
 5941WAT    HW229703   2.762   4.111   6.423
 5941WAT    LP129704   2.807   4.219   6.494
 5941WAT    LP229705   2.694   4.202   6.499
 5942WAT     OW29706   4.671   3.959   5.896
 5942WAT    HW129707   4.653   3.866   5.877
 5942WAT    HW229708   4.745   3.981   5.839
 5942WAT    LP129709   4.615   3.998   5.881
 5942WAT    LP229710   4.688   3.967   5.963
 5943WAT     OW29711   1.320   6.254   0.716
 5943WAT    HW129712   1.395   6.301   0.752
 5943WAT    HW229713   1.291   6.307   0.642
 5943WAT    LP129714   1.339   6.190   0.695
 5943WAT    LP229715   1.268   6.248   0.763
 5944WAT     OW29716   4.089   5.489   5.238
 5944WAT    HW129717   4.114   5.430   5.168
 5944WAT    HW229718   4.115   5.576   5.207
 5944WAT    LP129719   4.020   5.487   5.249
 5944WAT    LP229720   4.122   5.473   5.298
 5945WAT     OW29721   6.682   2.489   4.977
 5945WAT    HW129722   6.691   2.400   4.944
 5945WAT    HW229723   6.592   2.494   5.009
 5945WAT    LP129724   6.728   2.501   5.029
 5945WAT    LP229725   6.693   2.536   4.926
 5946WAT     OW29726   4.511   5.678   2.194
 5946WAT    HW129727   4.577   5.609   2.189
 5946WAT    HW229728   4.560   5.757   2.216
 5946WAT    LP129729   4.478   5.685   2.133
 5946WAT    LP229730   4.464   5.663   2.244
 5947WAT     OW29731   2.471   3.267   2.736
 5947WAT    HW129732   2.536   3.337   2.726
 5947WAT    HW229733   2.505   3.194   2.684
 5947WAT    LP129734   2.466   3.248   2.804
 5947WAT    LP229735   2.409   3.288   2.713
 5948WAT     OW29736   2.853   4.536   5.454
 5948WAT    HW129737   2.811   4.614   5.491
 5948WAT    HW229738   2.946   4.549   5.474
 5948WAT    LP129739   2.829   4.478   5.484
 5948WAT    LP229740   2.843   4.533   5.385
 5949WAT     OW29741   3.986   5.958   2.629
 5949WAT    HW129742   4.030   5.910   2.558
 5949WAT    HW229743   3.976   5.893   2.698
 5949WAT    LP129744   4.026   6.011   2.651
 5949WAT    LP229745   3.924   5.982   2.608
 5950WAT     OW29746   0.584   4.888   1.635
 5950WAT    HW129747   0.615   4.841   1.557
 5950WAT    HW229748   0.591   4.823   1.706
 5950WAT    LP129749   0.625   4.943   1.648
 5950WAT    LP229750   0.518   4.909   1.627
 5951WAT     OW29751   1.987   4.726   5.000
 5951WAT    HW129752   1.912   4.701   4.947
 5951WAT    HW229753   2.055   4.663   4.977
 5951WAT    LP129754   2.007   4.791   4.985
 5951WAT    LP229755   1.971   4.722   5.068
 5952WAT     OW29756   1.380   0.361   5.064
 5952WAT    HW129757   1.314   0.342   5.130
 5952WAT    HW229758   1.332   0.366   4.982
 5952WAT    LP129759   1.412   0.422   5.078
 5952WAT    LP229760   1.428   0.310   5.062
 5953WAT     OW29761   6.746   2.929   1.687
 5953WAT    HW129762   6.746   3.001   1.624
 5953WAT    HW229763   6.770   2.970   1.770
 5953WAT    LP129764   6.683   2.900   1.691
 5953WAT    LP229765   6.794   2.880   1.669
 5954WAT     OW29766   2.720   3.100   5.910
 5954WAT    HW129767   2.641   3.153   5.919
 5954WAT    HW229768   2.776   3.127   5.983
 5954WAT    LP129769   2.705   3.032   5.914
 5954WAT    LP229770   2.752   3.113   5.849
 5955WAT     OW29771   1.014   6.606   4.423
 5955WAT    HW129772   1.045   6.544   4.489
 5955WAT    HW229773   0.921   6.616   4.441
 5955WAT    LP129774   1.047   6.668   4.430
 5955WAT    LP229775   1.024   6.581   4.358
 5956WAT     OW29776   1.299   0.632   6.639
 5956WAT    HW129777   1.342   0.717   6.648
 5956WAT    HW229778   1.219   0.640   6.691
 5956WAT    LP129779   1.283   0.619   6.572
 5956WAT    LP229780   1.340   0.581   6.665
 5957WAT     OW29781   1.608   5.214   5.007
 5957WAT    HW129782   1.513   5.222   4.999
 5957WAT    HW229783   1.643   5.273   4.940
 5957WAT    LP129784   1.629   5.233   5.071
 5957WAT    LP229785   1.628   5.148   4.994
 5958WAT     OW29786   6.288   5.754   1.095
 5958WAT    HW129787   6.375   5.793   1.095
 5958WAT    HW229788   6.279   5.713   1.009
 5958WAT    LP129789   6.283   5.706   1.146
 5958WAT    LP229790   6.239   5.803   1.104
 5959WAT     OW29791   1.102   1.711   4.267
 5959WAT    HW129792   1.157   1.766   4.211
 5959WAT    HW229793   1.091   1.630   4.218
 5959WAT    LP129794   1.135   1.699   4.328
 5959WAT    LP229795   1.041   1.741   4.279
 5960WAT     OW29796   2.447   2.846   2.503
 5960WAT    HW129797   2.464   2.763   2.549
 5960WAT    HW229798   2.355   2.864   2.519
 5960WAT    LP129799   2.487   2.897   2.530
 5960WAT    LP229800   2.460   2.839   2.435
 5961WAT     OW29801   2.928   0.914   5.699
 5961WAT    HW129802   2.874   0.951   5.769
 5961WAT    HW229803   2.887   0.829   5.680
 5961WAT    LP129804   2.926   0.955   5.642
 5961WAT    LP229805   2.994   0.905   5.720
 5962WAT     OW29806   4.494   0.698   2.031
 5962WAT    HW129807   4.567   0.756   2.053
 5962WAT    HW229808   4.510   0.619   2.083
 5962WAT    LP129809   4.433   0.727   2.050
 5962WAT    LP229810   4.493   0.683   1.963
 5963WAT     OW29811   3.967   4.234   1.281
 5963WAT    HW129812   3.976   4.327   1.257
 5963WAT    HW229813   4.010   4.227   1.366
 5963WAT    LP129814   3.900   4.217   1.285
 5963WAT    LP229815   3.999   4.194   1.233
 5964WAT     OW29816   5.077   5.235   2.583
 5964WAT    HW129817   5.166   5.261   2.609
 5964WAT    HW229818   5.027   5.317   2.584
 5964WAT    LP129819   5.078   5.207   2.519
 5964WAT    LP229820   5.051   5.189   2.628
 5965WAT     OW29821   3.419   3.516   6.465
 5965WAT    HW129822   3.474   3.580   6.419
 5965WAT    HW229823   3.482   3.455   6.504
 5965WAT    LP129824   3.381   3.547   6.515
 5965WAT    LP229825   3.377   3.483   6.420
 5966WAT     OW29826   1.773   1.064   0.775
 5966WAT    HW129827   1.702   1.034   0.833
 5966WAT    HW229828   1.727   1.097   0.697
 5966WAT    LP129829   1.811   1.114   0.805
 5966WAT    LP229830   1.814   1.010   0.758
 5967WAT     OW29831   5.952   6.365   0.552
 5967WAT    HW129832   5.896   6.399   0.482
 5967WAT    HW229833   5.921   6.276   0.567
 5967WAT    LP129834   6.019   6.365   0.533
 5967WAT    LP229835   5.945   6.404   0.610
 5968WAT     OW29836   4.200   2.279   3.548
 5968WAT    HW129837   4.171   2.193   3.516
 5968WAT    HW229838   4.222   2.328   3.468
 5968WAT    LP129839   4.148   2.311   3.582
 5968WAT    LP229840   4.255   2.273   3.589
 5969WAT     OW29841   2.357   3.208   4.708
 5969WAT    HW129842   2.358   3.222   4.803
 5969WAT    HW229843   2.370   3.114   4.697
 5969WAT    LP129844   2.296   3.228   4.682
 5969WAT    LP229845   2.409   3.244   4.678
 5970WAT     OW29846   1.251   0.362   4.826
 5970WAT    HW129847   1.171   0.311   4.837
 5970WAT    HW229848   1.293   0.325   4.748
 5970WAT    LP129849   1.237   0.430   4.817
 5970WAT    LP229850   1.293   0.354   4.882
 5971WAT     OW29851   4.607   5.988   1.418
 5971WAT    HW129852   4.536   5.984   1.483
 5971WAT    HW229853   4.596   6.073   1.376
 5971WAT    LP129854   4.669   5.983   1.449
 5971WAT    LP229855   4.600   5.936   1.371
 5972WAT     OW29856   0.562   2.692   1.104
 5972WAT    HW129857   0.469   2.715   1.105
 5972WAT    HW229858   0.590   2.707   1.194
 5972WAT    LP129859   0.570   2.624   1.087
 5972WAT    LP229860   0.597   2.732   1.060
 5973WAT     OW29861   4.697   2.408   3.543
 5973WAT    HW129862   4.675   2.501   3.536
 5973WAT    HW229863   4.775   2.397   3.488
 5973WAT    LP129864   4.711   2.391   3.609
 5973WAT    LP229865   4.644   2.368   3.519
 5974WAT     OW29866   0.278   4.663   6.323
 5974WAT    HW129867   0.257   4.755   6.306
 5974WAT    HW229868   0.344   4.667   6.393
 5974WAT    LP129869   0.221   4.628   6.345
 5974WAT    LP229870   0.304   4.633   6.266
 5975WAT     OW29871   0.838   5.799   2.574
 5975WAT    HW129872   0.825   5.750   2.655
 5975WAT    HW229873   0.933   5.796   2.560
 5975WAT    LP129874   0.804   5.770   2.521
 5975WAT    LP229875   0.817   5.866   2.582
 5976WAT     OW29876   1.191   3.278   0.347
 5976WAT    HW129877   1.148   3.363   0.342
 5976WAT    HW229878   1.272   3.288   0.297
 5976WAT    LP129879   1.205   3.261   0.414
 5976WAT    LP229880   1.151   3.228   0.319
 5977WAT     OW29881   5.681   5.503   5.124
 5977WAT    HW129882   5.715   5.547   5.046
 5977WAT    HW229883   5.683   5.410   5.101
 5977WAT    LP129884   5.722   5.516   5.179
 5977WAT    LP229885   5.616   5.524   5.138
 5978WAT     OW29886   0.121   1.392   6.442
 5978WAT    HW129887   0.127   1.487   6.450
 5978WAT    HW229888   0.109   1.360   6.532
 5978WAT    LP129889   0.067   1.374   6.402
 5978WAT    LP229890   0.180   1.365   6.414
 5979WAT     OW29891   3.522   2.370   1.605
 5979WAT    HW129892   3.489   2.393   1.692
 5979WAT    HW229893   3.446   2.376   1.547
 5979WAT    LP129894   3.571   2.416   1.585
 5979WAT    LP229895   3.549   2.306   1.605
 5980WAT     OW29896   4.565   0.366   6.117
 5980WAT    HW129897   4.549   0.399   6.205
 5980WAT    HW229898   4.484   0.321   6.093
 5980WAT    LP129899   4.578   0.418   6.072
 5980WAT    LP229900   4.619   0.321   6.117
 5981WAT     OW29901   0.971   4.283   3.649
 5981WAT    HW129902   1.037   4.244   3.706
 5981WAT    HW229903   0.898   4.303   3.708
 5981WAT    LP129904   0.995   4.342   3.620
 5981WAT    LP229905   0.952   4.238   3.599
 5982WAT     OW29906   6.679   2.876   0.951
 5982WAT    HW129907   6.774   2.873   0.938
 5982WAT    HW229908   6.650   2.949   0.897
 5982WAT    LP129909   6.649   2.816   0.930
 5982WAT    LP229910   6.664   2.887   1.018
 5983WAT     OW29911   3.441   1.324   1.652
 5983WAT    HW129912   3.476   1.239   1.624
 5983WAT    HW229913   3.424   1.371   1.570
 5983WAT    LP129914   3.382   1.316   1.688
 5983WAT    LP229915   3.488   1.358   1.691
 5984WAT     OW29916   6.392   0.550   5.657
 5984WAT    HW129917   6.406   0.642   5.679
 5984WAT    HW229918   6.462   0.503   5.703
 5984WAT    LP129919   6.329   0.529   5.679
 5984WAT    LP229920   6.397   0.540   5.588
 5985WAT     OW29921   3.765   3.597   5.361
 5985WAT    HW129922   3.851   3.639   5.361
 5985WAT    HW229923   3.733   3.608   5.451
 5985WAT    LP129924   3.722   3.629   5.316
 5985WAT    LP229925   3.771   3.529   5.345
 5986WAT     OW29926   0.551   1.106   0.500
 5986WAT    HW129927   0.549   1.147   0.587
 5986WAT    HW229928   0.644   1.091   0.483
 5986WAT    LP129929   0.516   1.046   0.501
 5986WAT    LP229930   0.523   1.149   0.452
 5987WAT     OW29931   0.765   2.373   6.556
 5987WAT    HW129932   0.736   2.462   6.537
 5987WAT    HW229933   0.842   2.384   6.611
 5987WAT    LP129934   0.715   2.337   6.590
 5987WAT    LP229935   0.781   2.339   6.497
 5988WAT     OW29936   0.588   4.008   0.191
 5988WAT    HW129937   0.660   3.962   0.147
 5988WAT    HW229938   0.530   4.035   0.120
 5988WAT    LP129939   0.555   3.966   0.236
 5988WAT    LP229940   0.613   4.064   0.225
 5989WAT     OW29941   6.171   0.336   1.402
 5989WAT    HW129942   6.123   0.269   1.354
 5989WAT    HW229943   6.255   0.296   1.421
 5989WAT    LP129944   6.179   0.394   1.363
 5989WAT    LP229945   6.137   0.353   1.462
 5990WAT     OW29946   3.944   3.798   0.096
 5990WAT    HW129947   3.948   3.709   0.132
 5990WAT    HW229948   4.032   3.814   0.063
 5990WAT    LP129949   3.897   3.801   0.044
 5990WAT    LP229950   3.928   3.844   0.146
 5991WAT     OW29951   0.119   4.304   0.597
 5991WAT    HW129952   0.118   4.262   0.683
 5991WAT    HW229953   0.149   4.393   0.615
 5991WAT    LP129954   0.163   4.271   0.554
 5991WAT    LP229955   0.054   4.305   0.569
 5992WAT     OW29956   4.724   0.271   2.667
 5992WAT    HW129957   4.787   0.344   2.672
 5992WAT    HW229958   4.666   0.285   2.742
 5992WAT    LP129959   4.689   0.274   2.607
 5992WAT    LP229960   4.757   0.210   2.672
 5993WAT     OW29961   0.851   6.189   6.253
 5993WAT    HW129962   0.916   6.217   6.188
 5993WAT    HW229963   0.816   6.107   6.219
 5993WAT    LP129964   0.881   6.179   6.316
 5993WAT    LP229965   0.800   6.237   6.259
 5994WAT     OW29966   5.755   5.685   1.441
 5994WAT    HW129967   5.734   5.764   1.490
 5994WAT    HW229968   5.729   5.613   1.499
 5994WAT    LP129969   5.720   5.682   1.381
 5994WAT    LP229970   5.824   5.682   1.428
 5995WAT     OW29971   6.521   2.653   0.932
 5995WAT    HW129972   6.583   2.725   0.941
 5995WAT    HW229973   6.435   2.693   0.944
 5995WAT    LP129974   6.526   2.624   0.868
 5995WAT    LP229975   6.533   2.604   0.980
 5996WAT     OW29976   2.659   4.931   1.846
 5996WAT    HW129977   2.657   4.998   1.778
 5996WAT    HW229978   2.668   4.848   1.799
 5996WAT    LP129979   2.713   4.941   1.889
 5996WAT    LP229980   2.599   4.932   1.883
 5997WAT     OW29981   6.455   4.300   0.694
 5997WAT    HW129982   6.374   4.326   0.738
 5997WAT    HW229983   6.518   4.285   0.764
 5997WAT    LP129984   6.445   4.241   0.657
 5997WAT    LP229985   6.477   4.351   0.651
 5998WAT     OW29986   6.517   1.439   5.240
 5998WAT    HW129987   6.570   1.361   5.256
 5998WAT    HW229988   6.427   1.411   5.255
 5998WAT    LP129989   6.534   1.490   5.285
 5998WAT    LP229990   6.526   1.462   5.175
 5999WAT     OW29991   5.774   1.933   4.413
 5999WAT    HW129992   5.716   1.996   4.456
 5999WAT    HW229993   5.786   1.968   4.325
 5999WAT    LP129994   5.835   1.929   4.447
 5999WAT    LP229995   5.744   1.870   4.411
 6000WAT     OW29996   4.073   6.624   4.728
 6000WAT    HW129997   3.982   6.596   4.735
 6000WAT    HW229998   4.109   6.611   4.815
 6000WAT    LP129999   4.107   6.586   4.681
 6000WAT    LP230000   4.076   6.692   4.710
 6001WAT     OW30001   5.923   1.302   6.393
 6001WAT    HW130002   5.989   1.263   6.451
 6001WAT    HW230003   5.971   1.370   6.346
 6001WAT    LP130004   5.898   1.254   6.349
 6001WAT    LP230005   5.871   1.330   6.431
 6002WAT     OW30006   1.745   3.783   3.756
 6002WAT    HW130007   1.687   3.710   3.739
 6002WAT    HW230008   1.698   3.838   3.819
 6002WAT    LP130009   1.806   3.761   3.783
 6002WAT    LP230010   1.758   3.819   3.697
 6003WAT     OW30011   2.483   2.002   6.262
 6003WAT    HW130012   2.575   2.019   6.284
 6003WAT    HW230013   2.482   1.995   6.167
 6003WAT    LP130014   2.461   1.942   6.292
 6003WAT    LP230015   2.443   2.055   6.284
 6004WAT     OW30016   3.322   2.171   3.327
 6004WAT    HW130017   3.399   2.212   3.364
 6004WAT    HW230018   3.350   2.082   3.305
 6004WAT    LP130019   3.269   2.169   3.373
 6004WAT    LP230020   3.301   2.204   3.269
 6005WAT     OW30021   3.266   1.579   6.540
 6005WAT    HW130022   3.259   1.669   6.507
 6005WAT    HW230023   3.311   1.531   6.471
 6005WAT    LP130024   3.303   1.577   6.599
 6005WAT    LP230025   3.202   1.552   6.551
 6006WAT     OW30026   5.024   1.171   4.742
 6006WAT    HW130027   5.002   1.098   4.685
 6006WAT    HW230028   4.980   1.151   4.825
 6006WAT    LP130029   5.093   1.176   4.751
 6006WAT    LP230030   5.000   1.231   4.715
 6007WAT     OW30031   1.656   0.376   6.576
 6007WAT    HW130032   1.662   0.445   6.510
 6007WAT    HW230033   1.568   0.340   6.566
 6007WAT    LP130034   1.705   0.327   6.565
 6007WAT    LP230035   1.665   0.403   6.640
 6008WAT     OW30036   6.198   0.011   4.080
 6008WAT    HW130037   6.191   0.103   4.056
 6008WAT    HW230038   6.209   0.012   4.175
 6008WAT    LP130039   6.140  -0.024   4.063
 6008WAT    LP230040   6.253  -0.018   4.049
 6009WAT     OW30041   1.545   0.780   4.498
 6009WAT    HW130042   1.491   0.717   4.450
 6009WAT    HW230043   1.566   0.736   4.580
 6009WAT    LP130044   1.603   0.794   4.462
 6009WAT    LP230045   1.510   0.839   4.509
 6010WAT     OW30046   3.659   0.732   3.421
 6010WAT    HW130047   3.591   0.797   3.440
 6010WAT    HW230048   3.740   0.782   3.417
 6010WAT    LP130049   3.662   0.684   3.471
 6010WAT    LP230050   3.646   0.701   3.359
 6011WAT     OW30051   5.861   2.417   2.844
 6011WAT    HW130052   5.823   2.420   2.931
 6011WAT    HW230053   5.856   2.507   2.812
 6011WAT    LP130054   5.928   2.395   2.847
 6011WAT    LP230055   5.825   2.374   2.803
 6012WAT     OW30056   3.068   3.333   3.260
 6012WAT    HW130057   3.100   3.330   3.350
 6012WAT    HW230058   3.076   3.243   3.228
 6012WAT    LP130059   3.001   3.354   3.258
 6012WAT    LP230060   3.107   3.377   3.221
 6013WAT     OW30061   2.128   6.294   3.145
 6013WAT    HW130062   2.073   6.244   3.085
 6013WAT    HW230063   2.192   6.337   3.088
 6013WAT    LP130064   2.091   6.341   3.181
 6013WAT    LP230065   2.161   6.251   3.190
 6014WAT     OW30066   2.462   4.385   6.251
 6014WAT    HW130067   2.462   4.472   6.289
 6014WAT    HW230068   2.426   4.329   6.319
 6014WAT    LP130069   2.422   4.383   6.193
 6014WAT    LP230070   2.527   4.365   6.234
 6015WAT     OW30071   3.695   6.276   0.416
 6015WAT    HW130072   3.639   6.269   0.494
 6015WAT    HW230073   3.651   6.223   0.350
 6015WAT    LP130074   3.699   6.343   0.396
 6015WAT    LP230075   3.759   6.252   0.429
 6016WAT     OW30076   2.490   5.795   1.101
 6016WAT    HW130077   2.408   5.787   1.150
 6016WAT    HW230078   2.486   5.727   1.034
 6016WAT    LP130079   2.494   5.859   1.071
 6016WAT    LP230080   2.545   5.786   1.143
 6017WAT     OW30081   2.505   3.263   5.967
 6017WAT    HW130082   2.505   3.323   5.892
 6017WAT    HW230083   2.412   3.246   5.983
 6017WAT    LP130084   2.538   3.204   5.951
 6017WAT    LP230085   2.535   3.293   6.022
 6018WAT     OW30086   6.043   0.926   1.753
 6018WAT    HW130087   6.052   0.909   1.847
 6018WAT    HW230088   6.035   1.021   1.746
 6018WAT    LP130089   6.100   0.903   1.718
 6018WAT    LP230090   5.986   0.894   1.727
 6019WAT     OW30091   1.360   6.074   4.249
 6019WAT    HW130092   1.368   6.062   4.344
 6019WAT    HW230093   1.447   6.102   4.221
 6019WAT    LP130094   1.342   6.013   4.219
 6019WAT    LP230095   1.312   6.122   4.234
 6020WAT     OW30096   5.120   3.015   0.530
 6020WAT    HW130097   5.102   2.988   0.620
 6020WAT    HW230098   5.215   3.020   0.525
 6020WAT    LP130099   5.095   2.969   0.485
 6020WAT    LP230100   5.091   3.078   0.518
 6021WAT     OW30101   6.347   0.029   3.134
 6021WAT    HW130102   6.425  -0.024   3.122
 6021WAT    HW230103   6.274  -0.027   3.108
 6021WAT    LP130104   6.340   0.048   3.201
 6021WAT    LP230105   6.350   0.086   3.094
 6022WAT     OW30106   0.553   4.923   4.942
 6022WAT    HW130107   0.629   4.867   4.956
 6022WAT    HW230108   0.545   4.974   5.022
 6022WAT    LP130109   0.563   4.965   4.887
 6022WAT    LP230110   0.496   4.884   4.931
 6023WAT     OW30111   1.053   2.547   3.780
 6023WAT    HW130112   0.963   2.516   3.796
 6023WAT    HW230113   1.050   2.581   3.691
 6023WAT    LP130114   1.070   2.597   3.825
 6023WAT    LP230115   1.098   2.494   3.785
 6024WAT     OW30116   2.561   1.460   0.024
 6024WAT    HW130117   2.638   1.447  -0.030
 6024WAT    HW230118   2.492   1.483  -0.037
 6024WAT    LP130119   2.545   1.401   0.059
 6024WAT    LP230120   2.572   1.512   0.070
 6025WAT     OW30121   0.831   2.784   4.136
 6025WAT    HW130122   0.899   2.837   4.093
 6025WAT    HW230123   0.874   2.749   4.214
 6025WAT    LP130124   0.777   2.825   4.154
 6025WAT    LP230125   0.809   2.733   4.095
 6026WAT     OW30126   4.075   4.953   4.725
 6026WAT    HW130127   4.044   5.015   4.791
 6026WAT    HW230128   4.153   4.994   4.688
 6026WAT    LP130129   4.091   4.892   4.755
 6026WAT    LP230130   4.027   4.943   4.676
 6027WAT     OW30131   4.224   3.112   4.959
 6027WAT    HW130132   4.303   3.151   4.921
 6027WAT    HW230133   4.168   3.092   4.883
 6027WAT    LP130134   4.239   3.053   4.994
 6027WAT    LP230135   4.192   3.157   5.002
 6028WAT     OW30136   0.854   3.185   4.851
 6028WAT    HW130137   0.840   3.174   4.757
 6028WAT    HW230138   0.851   3.280   4.865
 6028WAT    LP130139   0.804   3.153   4.888
 6028WAT    LP230140   0.917   3.160   4.869
 6029WAT     OW30141   4.972   5.884   3.821
 6029WAT    HW130142   4.971   5.803   3.872
 6029WAT    HW230143   4.886   5.885   3.779
 6029WAT    LP130144   4.980   5.939   3.862
 6029WAT    LP230145   5.023   5.882   3.773
 6030WAT     OW30146   4.336   2.972   3.360
 6030WAT    HW130147   4.398   3.012   3.421
 6030WAT    HW230148   4.347   2.878   3.372
 6030WAT    LP130149   4.270   2.991   3.375
 6030WAT    LP230150   4.350   2.991   3.294
 6031WAT     OW30151   6.786   1.621   1.961
 6031WAT    HW130152   6.843   1.669   2.021
 6031WAT    HW230153   6.736   1.689   1.916
 6031WAT    LP130154   6.824   1.584   1.916
 6031WAT    LP230155   6.744   1.578   1.996
 6032WAT     OW30156   4.318   1.435   5.633
 6032WAT    HW130157   4.353   1.505   5.578
 6032WAT    HW230158   4.395   1.400   5.679
 6032WAT    LP130159   4.271   1.460   5.679
 6032WAT    LP230160   4.288   1.385   5.594
 6033WAT     OW30161   0.888   5.749   4.692
 6033WAT    HW130162   0.870   5.665   4.734
 6033WAT    HW230163   0.849   5.740   4.604
 6033WAT    LP130164   0.857   5.801   4.727
 6033WAT    LP230165   0.956   5.760   4.688
 6034WAT     OW30166   4.273   4.400   5.284
 6034WAT    HW130167   4.191   4.439   5.314
 6034WAT    HW230168   4.289   4.441   5.199
 6034WAT    LP130169   4.325   4.415   5.329
 6034WAT    LP230170   4.267   4.331   5.277
 6035WAT     OW30171   1.490   4.308   5.309
 6035WAT    HW130172   1.574   4.269   5.335
 6035WAT    HW230173   1.514   4.379   5.250
 6035WAT    LP130174   1.450   4.261   5.276
 6035WAT    LP230175   1.456   4.333   5.365
 6036WAT     OW30176   2.279   0.262   5.247
 6036WAT    HW130177   2.260   0.255   5.154
 6036WAT    HW230178   2.266   0.174   5.282
 6036WAT    LP130179   2.345   0.284   5.257
 6036WAT    LP230180   2.235   0.308   5.278
 6037WAT     OW30181   6.189   5.034   6.238
 6037WAT    HW130182   6.235   4.961   6.280
 6037WAT    HW230183   6.124   5.061   6.302
 6037WAT    LP130184   6.233   5.086   6.223
 6037WAT    LP230185   6.158   5.012   6.179
 6038WAT     OW30186   6.452   1.101   5.733
 6038WAT    HW130187   6.511   1.168   5.767
 6038WAT    HW230188   6.455   1.113   5.638
 6038WAT    LP130189   6.475   1.037   5.751
 6038WAT    LP230190   6.387   1.110   5.757
 6039WAT     OW30191   0.248   6.211   4.554
 6039WAT    HW130192   0.198   6.250   4.482
 6039WAT    HW230193   0.301   6.143   4.513
 6039WAT    LP130194   0.288   6.259   4.585
 6039WAT    LP230195   0.204   6.183   4.602
 6040WAT     OW30196   0.957   3.696   2.711
 6040WAT    HW130197   0.927   3.611   2.679
 6040WAT    HW230198   1.052   3.687   2.719
 6040WAT    LP130199   0.942   3.747   2.666
 6040WAT    LP230200   0.929   3.711   2.773
 6041WAT     OW30201   4.971   0.197   0.906
 6041WAT    HW130202   5.027   0.133   0.863
 6041WAT    HW230203   5.032   0.262   0.942
 6041WAT    LP130204   4.927   0.227   0.860
 6041WAT    LP230205   4.934   0.167   0.957
 6042WAT     OW30206   5.377   6.526   6.575
 6042WAT    HW130207   5.331   6.606   6.550
 6042WAT    HW230208   5.414   6.546   6.661
 6042WAT    LP130209   5.332   6.472   6.579
 6042WAT    LP230210   5.428   6.511   6.530
 6043WAT     OW30211   3.025   5.598   6.613
 6043WAT    HW130212   3.050   5.526   6.556
 6043WAT    HW230213   3.108   5.636   6.641
 6043WAT    LP130214   2.987   5.645   6.578
 6043WAT    LP230215   2.989   5.575   6.668
 6044WAT     OW30216   1.924   3.310   2.424
 6044WAT    HW130217   1.889   3.355   2.501
 6044WAT    HW230218   1.927   3.377   2.356
 6044WAT    LP130219   1.989   3.285   2.437
 6044WAT    LP230220   1.883   3.257   2.405
 6045WAT     OW30221   0.054   0.599   3.119
 6045WAT    HW130222   0.103   0.533   3.069
 6045WAT    HW230223  -0.023   0.616   3.066
 6045WAT    LP130224   0.037   0.573   3.182
 6045WAT    LP230225   0.092   0.657   3.127
 6046WAT     OW30226   4.713   1.648   0.117
 6046WAT    HW130227   4.656   1.605   0.182
 6046WAT    HW230228   4.657   1.715   0.077
 6046WAT    LP130229   4.768   1.677   0.148
 6046WAT    LP230230   4.734   1.602   0.069
 6047WAT     OW30231   5.374   5.445   5.461
 6047WAT    HW130232   5.443   5.425   5.524
 6047WAT    HW230233   5.416   5.500   5.395
 6047WAT    LP130234   5.348   5.386   5.432
 6047WAT    LP230235   5.322   5.480   5.492
 6048WAT     OW30236   2.947   1.313   5.379
 6048WAT    HW130237   2.937   1.336   5.471
 6048WAT    HW230238   2.887   1.372   5.333
 6048WAT    LP130239   3.013   1.324   5.357
 6048WAT    LP230240   2.930   1.247   5.368
 6049WAT     OW30241   1.013   5.897   3.506
 6049WAT    HW130242   0.939   5.953   3.480
 6049WAT    HW230243   0.992   5.811   3.471
 6049WAT    LP130244   1.073   5.921   3.480
 6049WAT    LP230245   1.018   5.895   3.576
 6050WAT     OW30246   5.298   0.981   6.480
 6050WAT    HW130247   5.377   0.958   6.431
 6050WAT    HW230248   5.228   0.930   6.440
 6050WAT    LP130249   5.306   0.965   6.548
 6050WAT    LP230250   5.285   1.050   6.474
 6051WAT     OW30251   4.834   5.586   6.410
 6051WAT    HW130252   4.757   5.565   6.358
 6051WAT    HW230253   4.854   5.506   6.459
 6051WAT    LP130254   4.888   5.604   6.369
 6051WAT    LP230255   4.820   5.639   6.454
 6052WAT     OW30256   6.103   6.066   1.733
 6052WAT    HW130257   6.015   6.089   1.702
 6052WAT    HW230258   6.116   5.975   1.703
 6052WAT    LP130259   6.151   6.108   1.705
 6052WAT    LP230260   6.106   6.069   1.803
 6053WAT     OW30261   6.149   1.139   0.814
 6053WAT    HW130262   6.233   1.109   0.778
 6053WAT    HW230263   6.167   1.153   0.907
 6053WAT    LP130264   6.129   1.198   0.783
 6053WAT    LP230265   6.100   1.090   0.805
 6054WAT     OW30266   0.555   2.531   2.029
 6054WAT    HW130267   0.531   2.622   2.050
 6054WAT    HW230268   0.531   2.521   1.937
 6054WAT    LP130269   0.624   2.521   2.038
 6054WAT    LP230270   0.520   2.486   2.069
 6055WAT     OW30271   2.841   2.602   4.133
 6055WAT    HW130272   2.886   2.536   4.186
 6055WAT    HW230273   2.748   2.577   4.137
 6055WAT    LP130274   2.850   2.666   4.159
 6055WAT    LP230275   2.864   2.600   4.067
 6056WAT     OW30276   6.167   3.386   5.724
 6056WAT    HW130277   6.177   3.408   5.632
 6056WAT    HW230278   6.115   3.305   5.724
 6056WAT    LP130279   6.229   3.375   5.754
 6056WAT    LP230280   6.133   3.437   5.759
 6057WAT     OW30281   2.088   0.287   5.833
 6057WAT    HW130282   2.062   0.275   5.742
 6057WAT    HW230283   2.006   0.298   5.881
 6057WAT    LP130284   2.123   0.231   5.857
 6057WAT    LP230285   2.129   0.344   5.840
 6058WAT     OW30286   0.196   5.799   4.062
 6058WAT    HW130287   0.181   5.869   4.126
 6058WAT    HW230288   0.145   5.826   3.985
 6058WAT    LP130289   0.264   5.794   4.047
 6058WAT    LP230290   0.173   5.738   4.086
 6059WAT     OW30291   0.596   4.611   2.778
 6059WAT    HW130292   0.522   4.560   2.810
 6059WAT    HW230293   0.588   4.609   2.682
 6059WAT    LP130294   0.593   4.677   2.801
 6059WAT    LP230295   0.657   4.583   2.798
 6060WAT     OW30296   0.939   2.764   6.127
 6060WAT    HW130297   0.883   2.794   6.199
 6060WAT    HW230298   0.921   2.827   6.057
 6060WAT    LP130299   1.006   2.766   6.145
 6060WAT    LP230300   0.921   2.700   6.107
 6061WAT     OW30301   3.784   5.560   4.412
 6061WAT    HW130302   3.703   5.609   4.426
 6061WAT    HW230303   3.757   5.483   4.362
 6061WAT    LP130304   3.830   5.598   4.376
 6061WAT    LP230305   3.812   5.541   4.473
 6062WAT     OW30306   2.545   5.203   2.349
 6062WAT    HW130307   2.584   5.157   2.423
 6062WAT    HW230308   2.616   5.206   2.284
 6062WAT    LP130309   2.490   5.168   2.324
 6062WAT    LP230310   2.526   5.268   2.367
 6063WAT     OW30311   4.907   1.750   4.686
 6063WAT    HW130312   4.869   1.724   4.602
 6063WAT    HW230313   4.899   1.845   4.687
 6063WAT    LP130314   4.873   1.721   4.739
 6063WAT    LP230315   4.975   1.731   4.689
 6064WAT     OW30316   1.744   0.707   1.573
 6064WAT    HW130317   1.674   0.683   1.633
 6064WAT    HW230318   1.719   0.793   1.540
 6064WAT    LP130319   1.806   0.710   1.607
 6064WAT    LP230320   1.749   0.660   1.521
 6065WAT     OW30321   6.178   0.651   2.913
 6065WAT    HW130322   6.176   0.556   2.916
 6065WAT    HW230323   6.247   0.676   2.974
 6065WAT    LP130324   6.192   0.674   2.849
 6065WAT    LP230325   6.116   0.677   2.934
 6066WAT     OW30326   6.711   4.863   1.860
 6066WAT    HW130327   6.804   4.868   1.837
 6066WAT    HW230328   6.691   4.950   1.895
 6066WAT    LP130329   6.673   4.850   1.803
 6066WAT    LP230330   6.700   4.814   1.908
 6067WAT     OW30331   2.296   4.078   4.089
 6067WAT    HW130332   2.371   4.132   4.114
 6067WAT    HW230333   2.220   4.130   4.114
 6067WAT    LP130334   2.297   4.066   4.020
 6067WAT    LP230335   2.297   4.017   4.123
 6068WAT     OW30336   3.245   4.632   1.739
 6068WAT    HW130337   3.306   4.636   1.813
 6068WAT    HW230338   3.190   4.709   1.748
 6068WAT    LP130339   3.280   4.633   1.678
 6068WAT    LP230340   3.207   4.573   1.742
 6069WAT     OW30341   2.423   3.800   2.312
 6069WAT    HW130342   2.507   3.790   2.356
 6069WAT    HW230343   2.388   3.883   2.346
 6069WAT    LP130344   2.431   3.803   2.243
 6069WAT    LP230345   2.380   3.747   2.328
 6070WAT     OW30346   6.211   1.799   3.420
 6070WAT    HW130347   6.225   1.867   3.486
 6070WAT    HW230348   6.237   1.839   3.337
 6070WAT    LP130349   6.251   1.743   3.434
 6070WAT    LP230350   6.144   1.780   3.418
 6071WAT     OW30351   0.820   6.005   3.895
 6071WAT    HW130352   0.890   5.952   3.857
 6071WAT    HW230353   0.755   6.012   3.826
 6071WAT    LP130354   0.793   5.974   3.952
 6071WAT    LP230355   0.844   6.069   3.913
 6072WAT     OW30356   3.152   1.023   0.751
 6072WAT    HW130357   3.094   0.956   0.712
 6072WAT    HW230358   3.206   1.052   0.678
 6072WAT    LP130359   3.114   1.076   0.777
 6072WAT    LP230360   3.191   0.995   0.801
 6073WAT     OW30361   0.477   1.007   1.859
 6073WAT    HW130362   0.515   1.071   1.799
 6073WAT    HW230363   0.461   1.057   1.940
 6073WAT    LP130364   0.417   0.982   1.834
 6073WAT    LP230365   0.522   0.955   1.871
 6074WAT     OW30366   0.809   4.317   1.495
 6074WAT    HW130367   0.859   4.373   1.435
 6074WAT    HW230368   0.779   4.377   1.563
 6074WAT    LP130369   0.754   4.288   1.462
 6074WAT    LP230370   0.850   4.267   1.522
 6075WAT     OW30371   0.267   2.504   3.323
 6075WAT    HW130372   0.313   2.451   3.258
 6075WAT    HW230373   0.329   2.513   3.395
 6075WAT    LP130374   0.251   2.567   3.296
 6075WAT    LP230375   0.209   2.472   3.344
 6076WAT     OW30376   1.387   2.189   0.544
 6076WAT    HW130377   1.310   2.142   0.577
 6076WAT    HW230378   1.363   2.212   0.454
 6076WAT    LP130379   1.399   2.246   0.582
 6076WAT    LP230380   1.443   2.147   0.545
 6077WAT     OW30381   1.691   3.715   5.630
 6077WAT    HW130382   1.770   3.770   5.627
 6077WAT    HW230383   1.681   3.693   5.723
 6077WAT    LP130384   1.635   3.750   5.607
 6077WAT    LP230385   1.700   3.657   5.592
 6078WAT     OW30386   3.262   0.710   0.388
 6078WAT    HW130387   3.202   0.654   0.339
 6078WAT    HW230388   3.235   0.700   0.480
 6078WAT    LP130389   3.328   0.690   0.379
 6078WAT    LP230390   3.255   0.777   0.368
 6079WAT     OW30391   2.508   5.375   2.667
 6079WAT    HW130392   2.502   5.426   2.747
 6079WAT    HW230393   2.461   5.294   2.686
 6079WAT    LP130394   2.477   5.409   2.614
 6079WAT    LP230395   2.574   5.362   2.650
 6080WAT     OW30396   3.064   4.658   4.045
 6080WAT    HW130397   2.991   4.717   4.062
 6080WAT    HW230398   3.099   4.687   3.960
 6080WAT    LP130399   3.113   4.664   4.094
 6080WAT    LP230400   3.042   4.592   4.041
 6081WAT     OW30401   3.095   0.935   5.484
 6081WAT    HW130402   3.149   0.857   5.500
 6081WAT    HW230403   3.033   0.935   5.556
 6081WAT    LP130404   3.134   0.993   5.485
 6081WAT    LP230405   3.062   0.930   5.423
 6082WAT     OW30406   6.637   3.931   4.687
 6082WAT    HW130407   6.681   3.898   4.609
 6082WAT    HW230408   6.704   3.983   4.732
 6082WAT    LP130409   6.582   3.972   4.669
 6082WAT    LP230410   6.615   3.879   4.728
 6083WAT     OW30411   5.007   2.039   2.190
 6083WAT    HW130412   5.078   2.017   2.251
 6083WAT    HW230413   4.928   2.002   2.231
 6083WAT    LP130414   5.001   2.108   2.183
 6083WAT    LP230415   5.018   2.009   2.128
 6084WAT     OW30416   6.283   2.363   0.344
 6084WAT    HW130417   6.311   2.407   0.264
 6084WAT    HW230418   6.189   2.382   0.350
 6084WAT    LP130419   6.293   2.294   0.339
 6084WAT    LP230420   6.317   2.388   0.399
 6085WAT     OW30421   0.798   6.479   5.588
 6085WAT    HW130422   0.893   6.482   5.582
 6085WAT    HW230423   0.768   6.487   5.497
 6085WAT    LP130424   0.776   6.419   5.616
 6085WAT    LP230425   0.774   6.533   5.626
 6086WAT     OW30426   5.490   6.029   1.356
 6086WAT    HW130427   5.403   6.038   1.318
 6086WAT    HW230428   5.549   6.030   1.281
 6086WAT    LP130429   5.504   6.083   1.399
 6086WAT    LP230430   5.496   5.969   1.392
 6087WAT     OW30431   2.490   6.482   1.309
 6087WAT    HW130432   2.418   6.424   1.335
 6087WAT    HW230433   2.568   6.427   1.314
 6087WAT    LP130434   2.480   6.505   1.243
 6087WAT    LP230435   2.495   6.536   1.352
 6088WAT     OW30436   2.114   4.026   4.677
 6088WAT    HW130437   2.114   3.976   4.595
 6088WAT    HW230438   2.047   3.984   4.731
 6088WAT    LP130439   2.177   4.021   4.708
 6088WAT    LP230440   2.099   4.093   4.665
 6089WAT     OW30441   1.996   5.854   5.532
 6089WAT    HW130442   2.092   5.854   5.533
 6089WAT    HW230443   1.972   5.762   5.531
 6089WAT    LP130444   1.971   5.886   5.589
 6089WAT    LP230445   1.972   5.887   5.475
 6090WAT     OW30446   1.359   4.207   5.896
 6090WAT    HW130447   1.392   4.182   5.810
 6090WAT    HW230448   1.418   4.165   5.958
 6090WAT    LP130449   1.362   4.277   5.903
 6090WAT    LP230450   1.294   4.185   5.905
 6091WAT     OW30451   1.417   5.272   2.329
 6091WAT    HW130452   1.408   5.194   2.384
 6091WAT    HW230453   1.357   5.336   2.369
 6091WAT    LP130454   1.483   5.296   2.330
 6091WAT    LP230455   1.398   5.259   2.263
 6092WAT     OW30456   5.291   4.904   2.438
 6092WAT    HW130457   5.348   4.979   2.453
 6092WAT    HW230458   5.341   4.848   2.378
 6092WAT    LP130459   5.277   4.870   2.497
 6092WAT    LP230460   5.231   4.924   2.408
 6093WAT     OW30461   4.808   2.186   3.682
 6093WAT    HW130462   4.751   2.257   3.651
 6093WAT    HW230463   4.860   2.227   3.751
 6093WAT    LP130464   4.770   2.133   3.708
 6093WAT    LP230465   4.849   2.163   3.631
 6094WAT     OW30466   1.115   1.596   4.951
 6094WAT    HW130467   1.070   1.653   5.013
 6094WAT    HW230468   1.204   1.588   4.986
 6094WAT    LP130469   1.084   1.533   4.948
 6094WAT    LP230470   1.116   1.625   4.887
 6095WAT     OW30471   5.732   5.903   1.607
 6095WAT    HW130472   5.672   5.928   1.677
 6095WAT    HW230473   5.800   5.971   1.607
 6095WAT    LP130474   5.761   5.840   1.621
 6095WAT    LP230475   5.699   5.900   1.545
 6096WAT     OW30476   0.713   5.297   2.361
 6096WAT    HW130477   0.679   5.373   2.315
 6096WAT    HW230478   0.637   5.257   2.402
 6096WAT    LP130479   0.743   5.252   2.315
 6096WAT    LP230480   0.760   5.316   2.409
 6097WAT     OW30481   6.779   5.844   5.859
 6097WAT    HW130482   6.873   5.826   5.858
 6097WAT    HW230483   6.774   5.939   5.870
 6097WAT    LP130484   6.749   5.824   5.799
 6097WAT    LP230485   6.748   5.811   5.912
 6098WAT     OW30486   4.766   3.679   1.471
 6098WAT    HW130487   4.788   3.670   1.564
 6098WAT    HW230488   4.829   3.742   1.438
 6098WAT    LP130489   4.773   3.617   1.439
 6098WAT    LP230490   4.700   3.702   1.464
 6099WAT     OW30491   6.422   3.345   3.372
 6099WAT    HW130492   6.342   3.291   3.371
 6099WAT    HW230493   6.450   3.349   3.281
 6099WAT    LP130494   6.408   3.409   3.397
 6099WAT    LP230495   6.471   3.314   3.412
 6100WAT     OW30496   6.480   6.089   6.214
 6100WAT    HW130497   6.551   6.154   6.213
 6100WAT    HW230498   6.501   6.032   6.288
 6100WAT    LP130499   6.418   6.120   6.223
 6100WAT    LP230500   6.480   6.052   6.154
 6101WAT     OW30501   6.161   2.254   3.823
 6101WAT    HW130502   6.166   2.174   3.875
 6101WAT    HW230503   6.205   2.231   3.741
 6101WAT    LP130504   6.095   2.272   3.812
 6101WAT    LP230505   6.195   2.306   3.856
 6102WAT     OW30506   6.251   1.061   4.107
 6102WAT    HW130507   6.303   1.137   4.132
 6102WAT    HW230508   6.166   1.075   4.148
 6102WAT    LP130509   6.245   1.057   4.037
 6102WAT    LP230510   6.281   1.002   4.131
 6103WAT     OW30511   6.214   3.559   3.882
 6103WAT    HW130512   6.301   3.524   3.903
 6103WAT    HW230513   6.232   3.650   3.856
 6103WAT    LP130514   6.185   3.523   3.830
 6103WAT    LP230515   6.173   3.557   3.939
 6104WAT     OW30516   5.077   0.926   2.029
 6104WAT    HW130517   5.044   0.854   2.083
 6104WAT    HW230518   5.157   0.955   2.073
 6104WAT    LP130519   5.092   0.904   1.964
 6104WAT    LP230520   5.030   0.978   2.025
 6105WAT     OW30521   0.421   1.850   2.000
 6105WAT    HW130522   0.483   1.816   1.935
 6105WAT    HW230523   0.472   1.913   2.051
 6105WAT    LP130524   0.367   1.881   1.969
 6105WAT    LP230525   0.398   1.798   2.041
 6106WAT     OW30526   5.910   4.524   4.119
 6106WAT    HW130527   5.868   4.565   4.043
 6106WAT    HW230528   5.947   4.443   4.085
 6106WAT    LP130529   5.960   4.565   4.145
 6106WAT    LP230530   5.863   4.511   4.169
 6107WAT     OW30531   0.054   1.092   1.624
 6107WAT    HW130532   0.138   1.050   1.608
 6107WAT    HW230533   0.015   1.041   1.696
 6107WAT    LP130534   0.063   1.159   1.644
 6107WAT    LP230535   0.014   1.089   1.567
 6108WAT     OW30536   0.221   0.711   3.660
 6108WAT    HW130537   0.190   0.795   3.626
 6108WAT    HW230538   0.142   0.664   3.684
 6108WAT    LP130539   0.257   0.677   3.611
 6108WAT    LP230540   0.262   0.721   3.717
 6109WAT     OW30541   0.303   6.353   1.609
 6109WAT    HW130542   0.391   6.351   1.572
 6109WAT    HW230543   0.252   6.406   1.548
 6109WAT    LP130544   0.277   6.288   1.614
 6109WAT    LP230545   0.303   6.383   1.673
 6110WAT     OW30546   1.003   3.490   0.612
 6110WAT    HW130547   1.082   3.487   0.666
 6110WAT    HW230548   0.951   3.562   0.649
 6110WAT    LP130549   1.020   3.504   0.545
 6110WAT    LP230550   0.968   3.430   0.615
 6111WAT     OW30551   2.857   5.466   4.202
 6111WAT    HW130552   2.799   5.491   4.130
 6111WAT    HW230553   2.822   5.383   4.233
 6111WAT    LP130554   2.923   5.459   4.180
 6111WAT    LP230555   2.855   5.514   4.254
 6112WAT     OW30556   5.134   4.188   3.126
 6112WAT    HW130557   5.190   4.246   3.075
 6112WAT    HW230558   5.174   4.187   3.213
 6112WAT    LP130559   5.069   4.212   3.129
 6112WAT    LP230560   5.134   4.123   3.099
 6113WAT     OW30561   6.685   6.348   5.958
 6113WAT    HW130562   6.730   6.432   5.946
 6113WAT    HW230563   6.594   6.367   5.938
 6113WAT    LP130564   6.711   6.301   5.913
 6113WAT    LP230565   6.692   6.325   6.024
 6114WAT     OW30566   1.804   2.793   6.213
 6114WAT    HW130567   1.833   2.725   6.152
 6114WAT    HW230568   1.730   2.755   6.259
 6114WAT    LP130569   1.856   2.809   6.258
 6114WAT    LP230570   1.785   2.851   6.178
 6115WAT     OW30571   4.329   2.029   0.049
 6115WAT    HW130572   4.233   2.035   0.043
 6115WAT    HW230573   4.359   2.057  -0.037
 6115WAT    LP130574   4.353   2.072   0.098
 6115WAT    LP230575   4.349   1.963   0.062
 6116WAT     OW30576   6.358   6.350   5.495
 6116WAT    HW130577   6.277   6.322   5.538
 6116WAT    HW230578   6.425   6.293   5.532
 6116WAT    LP130579   6.353   6.341   5.426
 6116WAT    LP230580   6.371   6.417   5.509
 6117WAT     OW30581   5.653   3.980   1.771
 6117WAT    HW130582   5.699   4.056   1.807
 6117WAT    HW230583   5.637   4.004   1.679
 6117WAT    LP130584   5.692   3.923   1.776
 6117WAT    LP230585   5.592   3.970   1.804
 6118WAT     OW30586   3.080   3.186   6.640
 6118WAT    HW130587   3.106   3.155   6.726
 6118WAT    HW230588   3.155   3.166   6.584
 6118WAT    LP130589   3.023   3.151   6.618
 6118WAT    LP230590   3.066   3.254   6.641
 6119WAT     OW30591   6.593   2.434   3.340
 6119WAT    HW130592   6.678   2.390   3.354
 6119WAT    HW230593   6.590   2.502   3.407
 6119WAT    LP130594   6.590   2.462   3.276
 6119WAT    LP230595   6.541   2.388   3.349
 6120WAT     OW30596   2.662   0.043   0.513
 6120WAT    HW130597   2.700   0.057   0.599
 6120WAT    HW230598   2.619  -0.042   0.519
 6120WAT    LP130599   2.615   0.093   0.498
 6120WAT    LP230600   2.711   0.042   0.464
 6121WAT     OW30601   1.466   0.876   1.866
 6121WAT    HW130602   1.526   0.926   1.921
 6121WAT    HW230603   1.436   0.939   1.800
 6121WAT    LP130604   1.500   0.823   1.835
 6121WAT    LP230605   1.412   0.852   1.903
 6122WAT     OW30606   5.023   1.846   4.001
 6122WAT    HW130607   5.004   1.808   3.916
 6122WAT    HW230608   5.062   1.774   4.052
 6122WAT    LP130609   5.069   1.898   3.995
 6122WAT    LP230610   4.965   1.869   4.032
 6123WAT     OW30611   6.784   3.245   0.931
 6123WAT    HW130612   6.847   3.246   0.860
 6123WAT    HW230613   6.711   3.192   0.898
 6123WAT    LP130614   6.811   3.216   0.988
 6123WAT    LP230615   6.762   3.310   0.947
 6124WAT     OW30616   6.319   1.547   0.740
 6124WAT    HW130617   6.245   1.530   0.798
 6124WAT    HW230618   6.332   1.642   0.745
 6124WAT    LP130619   6.376   1.513   0.762
 6124WAT    LP230620   6.304   1.528   0.675
 6125WAT     OW30621   5.244   0.992   0.605
 6125WAT    HW130622   5.162   0.944   0.598
 6125WAT    HW230623   5.310   0.924   0.619
 6125WAT    LP130624   5.257   1.027   0.545
 6125WAT    LP230625   5.243   1.036   0.658
 6126WAT     OW30626   1.153   2.908   2.378
 6126WAT    HW130627   1.082   2.902   2.442
 6126WAT    HW230628   1.229   2.872   2.423
 6126WAT    LP130629   1.138   2.871   2.321
 6126WAT    LP230630   1.164   2.975   2.360
 6127WAT     OW30631   3.409   0.047   2.132
 6127WAT    HW130632   3.474   0.047   2.062
 6127WAT    HW230633   3.460   0.031   2.211
 6127WAT    LP130634   3.376   0.109   2.135
 6127WAT    LP230635   3.362  -0.004   2.122
 6128WAT     OW30636   2.651   6.455   4.708
 6128WAT    HW130637   2.688   6.388   4.651
 6128WAT    HW230638   2.644   6.412   4.794
 6128WAT    LP130639   2.693   6.511   4.712
 6128WAT    LP230640   2.588   6.475   4.685
 6129WAT     OW30641   2.057   0.419   1.099
 6129WAT    HW130642   1.995   0.459   1.038
 6129WAT    HW230643   2.143   0.445   1.066
 6129WAT    LP130644   2.047   0.443   1.164
 6129WAT    LP230645   2.050   0.349   1.099
 6130WAT     OW30646   5.896   1.686   1.434
 6130WAT    HW130647   5.819   1.663   1.486
 6130WAT    HW230648   5.961   1.715   1.498
 6130WAT    LP130649   5.920   1.630   1.399
 6130WAT    LP230650   5.881   1.737   1.389
 6131WAT     OW30651   5.572   2.779   3.517
 6131WAT    HW130652   5.595   2.867   3.486
 6131WAT    HW230653   5.570   2.787   3.612
 6131WAT    LP130654   5.510   2.760   3.492
 6131WAT    LP230655   5.620   2.732   3.497
 6132WAT     OW30656   4.905   2.563   4.088
 6132WAT    HW130657   4.923   2.592   3.999
 6132WAT    HW230658   4.886   2.643   4.137
 6132WAT    LP130659   4.850   2.519   4.089
 6132WAT    LP230660   4.961   2.530   4.115
 6133WAT     OW30661   3.379   3.741   5.735
 6133WAT    HW130662   3.362   3.715   5.826
 6133WAT    HW230663   3.293   3.759   5.699
 6133WAT    LP130664   3.419   3.798   5.733
 6133WAT    LP230665   3.410   3.689   5.701
 6134WAT     OW30666   5.121   2.441   4.222
 6134WAT    HW130667   5.051   2.486   4.174
 6134WAT    HW230668   5.199   2.454   4.168
 6134WAT    LP130669   5.130   2.469   4.285
 6134WAT    LP230670   5.106   2.373   4.228
 6135WAT     OW30671   5.350   6.465   5.075
 6135WAT    HW130672   5.321   6.457   5.166
 6135WAT    HW230673   5.424   6.405   5.068
 6135WAT    LP130674   5.299   6.447   5.031
 6135WAT    LP230675   5.370   6.531   5.061
 6136WAT     OW30676   5.225   5.965   3.733
 6136WAT    HW130677   5.138   5.929   3.752
 6136WAT    HW230678   5.207   6.046   3.685
 6136WAT    LP130679   5.260   5.978   3.792
 6136WAT    LP230680   5.262   5.920   3.693
 6137WAT     OW30681   5.513   3.828   1.368
 6137WAT    HW130682   5.479   3.763   1.429
 6137WAT    HW230683   5.602   3.800   1.350
 6137WAT    LP130684   5.475   3.828   1.309
 6137WAT    LP230685   5.512   3.892   1.396
 6138WAT     OW30686   3.313   3.139   6.510
 6138WAT    HW130687   3.333   3.048   6.490
 6138WAT    HW230688   3.374   3.162   6.581
 6138WAT    LP130689   3.323   3.180   6.455
 6138WAT    LP230690   3.247   3.145   6.532
 6139WAT     OW30691   6.231   1.122   1.074
 6139WAT    HW130692   6.210   1.029   1.074
 6139WAT    HW230693   6.207   1.152   1.162
 6139WAT    LP130694   6.299   1.133   1.061
 6139WAT    LP230695   6.193   1.156   1.025
 6140WAT     OW30696   2.441   2.513   4.321
 6140WAT    HW130697   2.495   2.541   4.247
 6140WAT    HW230698   2.394   2.592   4.347
 6140WAT    LP130699   2.397   2.463   4.302
 6140WAT    LP230700   2.481   2.491   4.374
 6141WAT     OW30701   2.490   0.240   0.450
 6141WAT    HW130702   2.496   0.240   0.355
 6141WAT    HW230703   2.544   0.166   0.477
 6141WAT    LP130704   2.515   0.300   0.477
 6141WAT    LP230705   2.424   0.231   0.471
 6142WAT     OW30706   5.227   6.198   0.149
 6142WAT    HW130707   5.320   6.184   0.164
 6142WAT    HW230708   5.204   6.137   0.079
 6142WAT    LP130709   5.190   6.185   0.207
 6142WAT    LP230710   5.215   6.264   0.129
 6143WAT     OW30711   6.674   5.076   4.422
 6143WAT    HW130712   6.727   5.026   4.483
 6143WAT    HW230713   6.672   5.022   4.343
 6143WAT    LP130714   6.609   5.085   4.447
 6143WAT    LP230715   6.703   5.138   4.408
 6144WAT     OW30716   4.025   0.192   1.996
 6144WAT    HW130717   4.012   0.232   1.910
 6144WAT    HW230718   3.962   0.235   2.053
 6144WAT    LP130719   4.013   0.123   1.993
 6144WAT    LP230720   4.091   0.203   2.018
 6145WAT     OW30721   2.198   2.377   1.104
 6145WAT    HW130722   2.240   2.435   1.040
 6145WAT    HW230723   2.250   2.297   1.100
 6145WAT    LP130724   2.201   2.405   1.168
 6145WAT    LP230725   2.132   2.365   1.086
 6146WAT     OW30726   6.398   3.150   2.921
 6146WAT    HW130727   6.305   3.156   2.898
 6146WAT    HW230728   6.430   3.240   2.913
 6146WAT    LP130729   6.405   3.127   2.987
 6146WAT    LP230730   6.432   3.107   2.877
 6147WAT     OW30731   5.046   2.321   5.379
 6147WAT    HW130732   5.115   2.266   5.417
 6147WAT    HW230733   4.970   2.307   5.436
 6147WAT    LP130734   5.065   2.388   5.378
 6147WAT    LP230735   5.031   2.300   5.314
 6148WAT     OW30736   6.686   0.817   1.291
 6148WAT    HW130737   6.673   0.722   1.290
 6148WAT    HW230738   6.682   0.841   1.383
 6148WAT    LP130739   6.748   0.834   1.263
 6148WAT    LP230740   6.635   0.849   1.255
 6149WAT     OW30741   4.481   1.721   1.661
 6149WAT    HW130742   4.419   1.668   1.611
 6149WAT    HW230743   4.555   1.733   1.602
 6149WAT    LP130744   4.453   1.782   1.679
 6149WAT    LP230745   4.502   1.687   1.719
 6150WAT     OW30746   0.484   2.312   2.177
 6150WAT    HW130747   0.493   2.340   2.268
 6150WAT    HW230748   0.507   2.389   2.126
 6150WAT    LP130749   0.527   2.258   2.163
 6150WAT    LP230750   0.417   2.292   2.164
 6151WAT     OW30751   4.783   5.589   0.898
 6151WAT    HW130752   4.854   5.632   0.946
 6151WAT    HW230753   4.825   5.515   0.854
 6151WAT    LP130754   4.734   5.566   0.943
 6151WAT    LP230755   4.755   5.632   0.852
 6152WAT     OW30756   2.167   1.832   5.288
 6152WAT    HW130757   2.140   1.785   5.209
 6152WAT    HW230758   2.128   1.782   5.360
 6152WAT    LP130759   2.237   1.833   5.293
 6152WAT    LP230760   2.142   1.897   5.287
 6153WAT     OW30761   5.806   4.704   0.879
 6153WAT    HW130762   5.834   4.718   0.789
 6153WAT    HW230763   5.733   4.642   0.873
 6153WAT    LP130764   5.858   4.677   0.918
 6153WAT    LP230765   5.785   4.764   0.908
 6154WAT     OW30766   4.912   0.556   0.967
 6154WAT    HW130767   4.954   0.630   0.923
 6154WAT    HW230768   4.985   0.499   0.992
 6154WAT    LP130769   4.877   0.578   1.024
 6154WAT    LP230770   4.868   0.523   0.924
 6155WAT     OW30771   2.237   3.819   5.048
 6155WAT    HW130772   2.315   3.769   5.024
 6155WAT    HW230773   2.255   3.850   5.137
 6155WAT    LP130774   2.228   3.873   5.005
 6155WAT    LP230775   2.180   3.779   5.047
 6156WAT     OW30776   0.976   3.497   4.162
 6156WAT    HW130777   1.064   3.461   4.156
 6156WAT    HW230778   0.921   3.438   4.111
 6156WAT    LP130779   0.955   3.499   4.229
 6156WAT    LP230780   0.974   3.562   4.135
 6157WAT     OW30781   5.848   6.210   0.971
 6157WAT    HW130782   5.901   6.289   0.986
 6157WAT    HW230783   5.912   6.144   0.943
 6157WAT    LP130784   5.817   6.191   1.031
 6157WAT    LP230785   5.800   6.221   0.922
 6158WAT     OW30786   1.246   6.376   2.695
 6158WAT    HW130787   1.226   6.407   2.606
 6158WAT    HW230788   1.162   6.375   2.740
 6158WAT    LP130789   1.274   6.312   2.693
 6158WAT    LP230790   1.291   6.420   2.726
 6159WAT     OW30791   1.996   0.776   1.070
 6159WAT    HW130792   2.071   0.747   1.122
 6159WAT    HW230793   1.965   0.697   1.026
 6159WAT    LP130794   1.946   0.802   1.111
 6159WAT    LP230795   2.016   0.824   1.023
 6160WAT     OW30796   0.634   0.726   0.070
 6160WAT    HW130797   0.605   0.637   0.090
 6160WAT    HW230798   0.564   0.764   0.017
 6160WAT    LP130799   0.643   0.763   0.129
 6160WAT    LP230800   0.694   0.725   0.034
 6161WAT     OW30801   0.868   0.258   2.116
 6161WAT    HW130802   0.893   0.350   2.130
 6161WAT    HW230803   0.776   0.254   2.143
 6161WAT    LP130804   0.874   0.241   2.048
 6161WAT    LP230805   0.907   0.215   2.154
 6162WAT     OW30806   1.388   5.187   3.410
 6162WAT    HW130807   1.320   5.230   3.460
 6162WAT    HW230808   1.395   5.100   3.449
 6162WAT    LP130809   1.370   5.182   3.342
 6162WAT    LP230810   1.449   5.221   3.415
 6163WAT     OW30811   5.768   3.528   1.436
 6163WAT    HW130812   5.766   3.621   1.413
 6163WAT    HW230813   5.812   3.525   1.521
 6163WAT    LP130814   5.703   3.502   1.440
 6163WAT    LP230815   5.805   3.492   1.388
 6164WAT     OW30816   1.266   3.057   3.106
 6164WAT    HW130817   1.337   3.068   3.042
 6164WAT    HW230818   1.278   3.129   3.168
 6164WAT    LP130819   1.204   3.061   3.075
 6164WAT    LP230820   1.272   2.995   3.138
 6165WAT     OW30821   2.412   0.520   5.236
 6165WAT    HW130822   2.472   0.512   5.161
 6165WAT    HW230823   2.379   0.432   5.250
 6165WAT    LP130824   2.446   0.544   5.292
 6165WAT    LP230825   2.360   0.564   5.220
 6166WAT     OW30826   1.968   6.276   4.813
 6166WAT    HW130827   1.894   6.332   4.834
 6166WAT    HW230828   1.931   6.188   4.810
 6166WAT    LP130829   1.995   6.293   4.751
 6166WAT    LP230830   2.017   6.280   4.862
 6167WAT     OW30831   1.264   3.427   1.088
 6167WAT    HW130832   1.241   3.432   1.180
 6167WAT    HW230833   1.215   3.352   1.054
 6167WAT    LP130834   1.246   3.486   1.054
 6167WAT    LP230835   1.333   3.417   1.080
 6168WAT     OW30836   1.929   3.503   2.228
 6168WAT    HW130837   1.973   3.470   2.149
 6168WAT    HW230838   1.949   3.596   2.229
 6168WAT    LP130839   1.860   3.492   2.224
 6168WAT    LP230840   1.955   3.472   2.285
 6169WAT     OW30841   1.318   2.456   0.198
 6169WAT    HW130842   1.292   2.365   0.214
 6169WAT    HW230843   1.405   2.463   0.239
 6169WAT    LP130844   1.322   2.469   0.130
 6169WAT    LP230845   1.273   2.501   0.228
 6170WAT     OW30846   5.082   5.675   0.620
 6170WAT    HW130847   5.041   5.596   0.586
 6170WAT    HW230848   5.023   5.746   0.593
 6170WAT    LP130849   5.087   5.673   0.690
 6170WAT    LP230850   5.146   5.684   0.593
 6171WAT     OW30851   0.369   0.179   1.772
 6171WAT    HW130852   0.387   0.272   1.780
 6171WAT    HW230853   0.442   0.136   1.815
 6171WAT    LP130854   0.308   0.162   1.803
 6171WAT    LP230855   0.366   0.160   1.704
 6172WAT     OW30856   4.742   2.577   0.191
 6172WAT    HW130857   4.777   2.520   0.259
 6172WAT    HW230858   4.663   2.533   0.161
 6172WAT    LP130859   4.727   2.640   0.217
 6172WAT    LP230860   4.788   2.584   0.138
 6173WAT     OW30861   3.259   3.913   5.322
 6173WAT    HW130862   3.334   3.955   5.281
 6173WAT    HW230863   3.291   3.827   5.349
 6173WAT    LP130864   3.238   3.950   5.378
 6173WAT    LP230865   3.206   3.907   5.276
 6174WAT     OW30866   3.219   3.268   0.427
 6174WAT    HW130867   3.151   3.334   0.442
 6174WAT    HW230868   3.235   3.230   0.513
 6174WAT    LP130869   3.197   3.219   0.382
 6174WAT    LP230870   3.277   3.298   0.402
 6175WAT     OW30871   6.146   3.006   5.843
 6175WAT    HW130872   6.081   3.072   5.818
 6175WAT    HW230873   6.154   3.015   5.938
 6175WAT    LP130874   6.124   2.942   5.826
 6175WAT    LP230875   6.208   3.018   5.812
 6176WAT     OW30876   6.636   1.472   4.980
 6176WAT    HW130877   6.718   1.423   4.988
 6176WAT    HW230878   6.603   1.478   5.070
 6176WAT    LP130879   6.647   1.536   4.954
 6176WAT    LP230880   6.590   1.438   4.939
 6177WAT     OW30881   1.473   5.750   6.360
 6177WAT    HW130882   1.564   5.734   6.333
 6177WAT    HW230883   1.478   5.760   6.455
 6177WAT    LP130884   1.448   5.808   6.330
 6177WAT    LP230885   1.432   5.695   6.343
 6178WAT     OW30886   2.121   1.703   6.445
 6178WAT    HW130887   2.204   1.657   6.457
 6178WAT    HW230888   2.113   1.759   6.522
 6178WAT    LP130889   2.122   1.741   6.386
 6178WAT    LP230890   2.068   1.657   6.442
 6179WAT     OW30891   1.621   5.258   5.704
 6179WAT    HW130892   1.577   5.228   5.625
 6179WAT    HW230893   1.658   5.179   5.743
 6179WAT    LP130894   1.672   5.304   5.689
 6179WAT    LP230895   1.576   5.288   5.749
 6180WAT     OW30896   3.193   5.678   2.655
 6180WAT    HW130897   3.124   5.704   2.716
 6180WAT    HW230898   3.273   5.711   2.694
 6180WAT    LP130899   3.195   5.608   2.649
 6180WAT    LP230900   3.182   5.707   2.592
 6181WAT     OW30901   1.358   4.481   5.932
 6181WAT    HW130902   1.367   4.386   5.924
 6181WAT    HW230903   1.266   4.498   5.916
 6181WAT    LP130904   1.377   4.503   5.996
 6181WAT    LP230905   1.398   4.514   5.884
 6182WAT     OW30906   4.227   2.265   5.335
 6182WAT    HW130907   4.293   2.329   5.309
 6182WAT    HW230908   4.277   2.190   5.365
 6182WAT    LP130909   4.187   2.290   5.386
 6182WAT    LP230910   4.186   2.248   5.280
 6183WAT     OW30911   6.262   0.689   6.061
 6183WAT    HW130912   6.232   0.739   6.136
 6183WAT    HW230913   6.357   0.698   6.063
 6183WAT    LP130914   6.243   0.622   6.067
 6183WAT    LP230915   6.236   0.715   6.001
 6184WAT     OW30916   3.307   3.348   1.186
 6184WAT    HW130917   3.390   3.392   1.203
 6184WAT    HW230918   3.242   3.403   1.230
 6184WAT    LP130919   3.294   3.344   1.118
 6184WAT    LP230920   3.307   3.283   1.213
 6185WAT     OW30921   6.416   3.982   1.543
 6185WAT    HW130922   6.323   3.967   1.560
 6185WAT    HW230923   6.428   3.959   1.451
 6185WAT    LP130924   6.433   4.049   1.554
 6185WAT    LP230925   6.455   3.941   1.585
 6186WAT     OW30926   4.564   2.942   2.692
 6186WAT    HW130927   4.566   3.033   2.723
 6186WAT    HW230928   4.500   2.943   2.620
 6186WAT    LP130929   4.627   2.923   2.668
 6186WAT    LP230930   4.544   2.899   2.743
 6187WAT     OW30931   4.824   4.003   3.405
 6187WAT    HW130932   4.847   4.071   3.341
 6187WAT    HW230933   4.735   4.024   3.432
 6187WAT    LP130934   4.828   3.940   3.376
 6187WAT    LP230935   4.868   4.006   3.460
 6188WAT     OW30936   5.312   6.570   0.944
 6188WAT    HW130937   5.252   6.498   0.964
 6188WAT    HW230938   5.392   6.527   0.915
 6188WAT    LP130939   5.285   6.611   0.893
 6188WAT    LP230940   5.324   6.609   1.001
 6189WAT     OW30941   2.725   4.326   6.206
 6189WAT    HW130942   2.631   4.346   6.211
 6189WAT    HW230943   2.742   4.314   6.113
 6189WAT    LP130944   2.763   4.378   6.233
 6189WAT    LP230945   2.739   4.267   6.242
 6190WAT     OW30946   6.308   4.329   1.081
 6190WAT    HW130947   6.398   4.358   1.096
 6190WAT    HW230948   6.288   4.361   0.993
 6190WAT    LP130949   6.304   4.259   1.083
 6190WAT    LP230950   6.265   4.357   1.128
 6191WAT     OW30951   1.617   1.379   3.780
 6191WAT    HW130952   1.597   1.287   3.794
 6191WAT    HW230953   1.636   1.413   3.867
 6191WAT    LP130954   1.672   1.387   3.737
 6191WAT    LP230955   1.561   1.413   3.752
 6192WAT     OW30956   4.314   1.638   5.974
 6192WAT    HW130957   4.374   1.565   5.991
 6192WAT    HW230958   4.363   1.697   5.918
 6192WAT    LP130959   4.256   1.615   5.942
 6192WAT    LP230960   4.296   1.669   6.034
 6193WAT     OW30961   2.576   3.582   3.864
 6193WAT    HW130962   2.589   3.595   3.958
 6193WAT    HW230963   2.527   3.500   3.857
 6193WAT    LP130964   2.540   3.635   3.836
 6193WAT    LP230965   2.638   3.576   3.831
 6194WAT     OW30966   4.550   5.025   2.494
 6194WAT    HW130967   4.462   5.060   2.508
 6194WAT    HW230968   4.600   5.051   2.572
 6194WAT    LP130969   4.549   4.955   2.487
 6194WAT    LP230970   4.579   5.053   2.436
 6195WAT     OW30971   2.878   4.753   0.531
 6195WAT    HW130972   2.819   4.745   0.456
 6195WAT    HW230973   2.936   4.678   0.525
 6195WAT    LP130974   2.914   4.813   0.528
 6195WAT    LP230975   2.841   4.751   0.591
 6196WAT     OW30976   1.362   1.559   3.831
 6196WAT    HW130977   1.445   1.607   3.842
 6196WAT    HW230978   1.334   1.539   3.921
 6196WAT    LP130979   1.315   1.599   3.799
 6196WAT    LP230980   1.372   1.500   3.795
 6197WAT     OW30981   4.528   6.478   3.902
 6197WAT    HW130982   4.543   6.384   3.889
 6197WAT    HW230983   4.543   6.517   3.816
 6197WAT    LP130984   4.462   6.490   3.923
 6197WAT    LP230985   4.573   6.504   3.949
 6198WAT     OW30986   0.657   2.617   6.478
 6198WAT    HW130987   0.618   2.581   6.398
 6198WAT    HW230988   0.701   2.697   6.449
 6198WAT    LP130989   0.607   2.633   6.525
 6198WAT    LP230990   0.703   2.572   6.506
 6199WAT     OW30991   6.074   1.396   1.425
 6199WAT    HW130992   6.125   1.453   1.482
 6199WAT    HW230993   6.081   1.436   1.338
 6199WAT    LP130994   6.100   1.331   1.424
 6199WAT    LP230995   6.007   1.394   1.445
 6200WAT     OW30996   5.356   2.930   4.144
 6200WAT    HW130997   5.279   2.987   4.139
 6200WAT    HW230998   5.425   2.979   4.100
 6200WAT    LP130999   5.372   2.917   4.211
 6200WAT    LP231000   5.344   2.869   4.111
 6201WAT     OW31001   1.954   0.031   2.454
 6201WAT    HW131002   1.940  -0.033   2.523
 6201WAT    HW231003   1.990   0.108   2.498
 6201WAT    LP131004   1.999   0.007   2.406
 6201WAT    LP231005   1.893   0.047   2.422
 6202WAT     OW31006   0.281   1.389   1.436
 6202WAT    HW131007   0.230   1.422   1.362
 6202WAT    HW231008   0.218   1.382   1.508
 6202WAT    LP131009   0.308   1.326   1.421
 6202WAT    LP231010   0.332   1.433   1.453
 6203WAT     OW31011   6.226   3.740   5.914
 6203WAT    HW131012   6.184   3.815   5.871
 6203WAT    HW231013   6.290   3.708   5.851
 6203WAT    LP131014   6.258   3.761   5.973
 6203WAT    LP231015   6.179   3.691   5.929
 6204WAT     OW31016   6.150   0.435   5.745
 6204WAT    HW131017   6.144   0.347   5.709
 6204WAT    HW231018   6.234   0.468   5.715
 6204WAT    LP131019   6.097   0.475   5.721
 6204WAT    LP231020   6.148   0.433   5.815
 6205WAT     OW31021   0.713   0.040   3.542
 6205WAT    HW131022   0.624   0.046   3.577
 6205WAT    HW231023   0.766   0.090   3.604
 6205WAT    LP131024   0.734  -0.026   3.539
 6205WAT    LP231025   0.716   0.069   3.478
 6206WAT     OW31026   5.101   2.592   5.360
 6206WAT    HW131027   5.083   2.498   5.368
 6206WAT    HW231028   5.163   2.611   5.431
 6206WAT    LP131029   5.129   2.607   5.298
 6206WAT    LP231030   5.042   2.629   5.368
 6207WAT     OW31031   6.666   4.192   6.396
 6207WAT    HW131032   6.735   4.136   6.359
 6207WAT    HW231033   6.696   4.212   6.485
 6207WAT    LP131034   6.659   4.251   6.359
 6207WAT    LP231035   6.605   4.158   6.398
 6208WAT     OW31036   4.726   0.357   1.212
 6208WAT    HW131037   4.672   0.365   1.290
 6208WAT    HW231038   4.804   0.410   1.231
 6208WAT    LP131039   4.744   0.290   1.201
 6208WAT    LP231040   4.693   0.382   1.156
 6209WAT     OW31041   0.446   1.141   2.103
 6209WAT    HW131042   0.417   1.227   2.132
 6209WAT    HW231043   0.490   1.104   2.180
 6209WAT    LP131044   0.392   1.101   2.084
 6209WAT    LP231045   0.491   1.147   2.050
 6210WAT     OW31046   2.820   0.024   6.467
 6210WAT    HW131047   2.903   0.005   6.422
 6210WAT    HW231048   2.792   0.108   6.430
 6210WAT    LP131049   2.773  -0.025   6.454
 6210WAT    LP231050   2.830   0.030   6.536
 6211WAT     OW31051   4.575   2.439   0.585
 6211WAT    HW131052   4.496   2.479   0.548
 6211WAT    HW231053   4.609   2.383   0.515
 6211WAT    LP131054   4.621   2.488   0.603
 6211WAT    LP231055   4.558   2.401   0.642
 6212WAT     OW31056   0.993   5.903   5.097
 6212WAT    HW131057   0.919   5.880   5.152
 6212WAT    HW231058   0.954   5.940   5.018
 6212WAT    LP131059   1.033   5.951   5.129
 6212WAT    LP231060   1.032   5.847   5.082
 6213WAT     OW31061   6.278   2.652   1.356
 6213WAT    HW131062   6.369   2.650   1.386
 6213WAT    HW231063   6.254   2.560   1.345
 6213WAT    LP131064   6.237   2.683   1.404
 6213WAT    LP231065   6.272   2.687   1.296
 6214WAT     OW31066   6.454   2.019   4.809
 6214WAT    HW131067   6.401   1.940   4.809
 6214WAT    HW231068   6.443   2.056   4.897
 6214WAT    LP131069   6.521   2.004   4.797
 6214WAT    LP231070   6.431   2.065   4.761
 6215WAT     OW31071   5.998   0.770   2.506
 6215WAT    HW131072   5.916   0.774   2.556
 6215WAT    HW231073   5.987   0.693   2.450
 6215WAT    LP131074   6.006   0.827   2.468
 6215WAT    LP231075   6.052   0.761   2.549
 6216WAT     OW31076   5.809   3.004   6.380
 6216WAT    HW131077   5.750   3.076   6.403
 6216WAT    HW231078   5.758   2.924   6.399
 6216WAT    LP131079   5.826   3.007   6.312
 6216WAT    LP231080   5.867   3.006   6.419
 6217WAT     OW31081   4.247   1.088   3.207
 6217WAT    HW131082   4.254   1.083   3.302
 6217WAT    HW231083   4.269   1.000   3.176
 6217WAT    LP131084   4.182   1.106   3.187
 6217WAT    LP231085   4.292   1.135   3.181
 6218WAT     OW31086   0.050   1.335   5.968
 6218WAT    HW131087   0.093   1.419   5.984
 6218WAT    HW231088   0.037   1.298   6.056
 6218WAT    LP131089  -0.012   1.345   5.936
 6218WAT    LP231090   0.090   1.294   5.929
 6219WAT     OW31091   0.902   2.883   1.204
 6219WAT    HW131092   0.977   2.843   1.160
 6219WAT    HW231093   0.889   2.831   1.283
 6219WAT    LP131094   0.916   2.950   1.220
 6219WAT    LP231095   0.845   2.880   1.163
 6220WAT     OW31096   2.993   3.197   1.045
 6220WAT    HW131097   2.914   3.147   1.066
 6220WAT    HW231098   2.966   3.289   1.050
 6220WAT    LP131099   3.044   3.184   1.092
 6220WAT    LP231100   3.016   3.181   0.981
 6221WAT     OW31101   2.040   1.932   0.540
 6221WAT    HW131102   2.065   1.987   0.614
 6221WAT    HW231103   1.960   1.888   0.568
 6221WAT    LP131104   2.028   1.970   0.483
 6221WAT    LP231105   2.090   1.885   0.526
 6222WAT     OW31106   0.773   1.892   0.723
 6222WAT    HW131107   0.811   1.978   0.702
 6222WAT    HW231108   0.849   1.833   0.725
 6222WAT    LP131109   0.742   1.894   0.786
 6222WAT    LP231110   0.727   1.872   0.675
 6223WAT     OW31111   1.877   6.247   4.227
 6223WAT    HW131112   1.852   6.299   4.304
 6223WAT    HW231113   1.795   6.206   4.198
 6223WAT    LP131114   1.903   6.288   4.177
 6223WAT    LP231115   1.924   6.198   4.244
 6224WAT     OW31116   1.035   1.798   5.124
 6224WAT    HW131117   0.953   1.794   5.174
 6224WAT    HW231118   1.104   1.804   5.190
 6224WAT    LP131119   1.042   1.741   5.085
 6224WAT    LP231120   1.035   1.855   5.083
 6225WAT     OW31121   0.985   5.047   1.554
 6225WAT    HW131122   1.021   5.119   1.605
 6225WAT    HW231123   1.051   5.028   1.488
 6225WAT    LP131124   0.973   4.991   1.595
 6225WAT    LP231125   0.925   5.067   1.523
 6226WAT     OW31126   2.947   0.322   3.507
 6226WAT    HW131127   2.992   0.255   3.557
 6226WAT    HW231128   2.861   0.284   3.487
 6226WAT    LP131129   2.939   0.381   3.544
 6226WAT    LP231130   2.981   0.336   3.448
 6227WAT     OW31131   2.858   2.546   1.290
 6227WAT    HW131132   2.949   2.517   1.292
 6227WAT    HW231133   2.816   2.501   1.364
 6227WAT    LP131134   2.854   2.616   1.298
 6227WAT    LP231135   2.827   2.528   1.230
 6228WAT     OW31136   5.719   4.241   4.848
 6228WAT    HW131137   5.713   4.214   4.940
 6228WAT    HW231138   5.731   4.336   4.852
 6228WAT    LP131139   5.774   4.210   4.817
 6228WAT    LP231140   5.660   4.225   4.813
 6229WAT     OW31141   4.540   0.706   3.104
 6229WAT    HW131142   4.613   0.766   3.087
 6229WAT    HW231143   4.568   0.656   3.181
 6229WAT    LP131144   4.482   0.742   3.118
 6229WAT    LP231145   4.530   0.664   3.050
 6230WAT     OW31146   3.582   5.329   1.154
 6230WAT    HW131147   3.581   5.423   1.134
 6230WAT    HW231148   3.535   5.289   1.081
 6230WAT    LP131149   3.648   5.306   1.157
 6230WAT    LP231150   3.550   5.316   1.214
 6231WAT     OW31151   0.551   5.357   1.112
 6231WAT    HW131152   0.593   5.346   1.197
 6231WAT    HW231153   0.555   5.271   1.071
 6231WAT    LP131154   0.484   5.377   1.120
 6231WAT    LP231155   0.585   5.404   1.073
 6232WAT     OW31156   2.905   6.505   4.907
 6232WAT    HW131157   2.896   6.551   4.824
 6232WAT    HW231158   2.931   6.573   4.969
 6232WAT    LP131159   2.844   6.477   4.926
 6232WAT    LP231160   2.954   6.455   4.903
 6233WAT     OW31161   0.962   1.100   3.413
 6233WAT    HW131162   0.931   1.170   3.355
 6233WAT    HW231163   1.055   1.118   3.426
 6233WAT    LP131164   0.927   1.101   3.474
 6233WAT    LP231165   0.953   1.037   3.382
 6234WAT     OW31166   3.569   2.427   5.221
 6234WAT    HW131167   3.511   2.489   5.177
 6234WAT    HW231168   3.511   2.372   5.273
 6234WAT    LP131169   3.604   2.388   5.174
 6234WAT    LP231170   3.615   2.460   5.262
 6235WAT     OW31171   0.058   6.125   4.903
 6235WAT    HW131172   0.015   6.061   4.960
 6235WAT    HW231173   0.093   6.191   4.964
 6235WAT    LP131174   0.109   6.095   4.866
 6235WAT    LP231175   0.012   6.155   4.860
 6236WAT     OW31176   1.513   6.212   5.376
 6236WAT    HW131177   1.588   6.201   5.435
 6236WAT    HW231178   1.547   6.264   5.303
 6236WAT    LP131179   1.491   6.150   5.353
 6236WAT    LP231180   1.461   6.245   5.408
 6237WAT     OW31181   1.246   1.652   6.395
 6237WAT    HW131182   1.166   1.634   6.445
 6237WAT    HW231183   1.215   1.680   6.309
 6237WAT    LP131184   1.284   1.702   6.425
 6237WAT    LP231185   1.285   1.594   6.389
 6238WAT     OW31186   0.983   3.294   1.702
 6238WAT    HW131187   1.026   3.245   1.633
 6238WAT    HW231188   0.973   3.231   1.774
 6238WAT    LP131189   1.023   3.348   1.722
 6238WAT    LP231190   0.920   3.318   1.681
 6239WAT     OW31191   4.617   4.849   2.831
 6239WAT    HW131192   4.640   4.931   2.788
 6239WAT    HW231193   4.680   4.785   2.798
 6239WAT    LP131194   4.622   4.855   2.901
 6239WAT    LP231195   4.552   4.830   2.814
 6240WAT     OW31196   6.386   0.813   4.151
 6240WAT    HW131197   6.325   0.771   4.212
 6240WAT    HW231198   6.346   0.898   4.132
 6240WAT    LP131199   6.449   0.821   4.180
 6240WAT    LP231200   6.392   0.775   4.092
 6241WAT     OW31201   5.866   1.617   6.163
 6241WAT    HW131202   5.960   1.632   6.174
 6241WAT    HW231203   5.861   1.549   6.095
 6241WAT    LP131204   5.838   1.594   6.223
 6241WAT    LP231205   5.834   1.675   6.142
 6242WAT     OW31206   0.244   5.694   0.551
 6242WAT    HW131207   0.184   5.663   0.483
 6242WAT    HW231208   0.247   5.623   0.615
 6242WAT    LP131209   0.308   5.705   0.524
 6242WAT    LP231210   0.220   5.753   0.580
 6243WAT     OW31211   0.578   0.980   3.272
 6243WAT    HW131212   0.502   1.006   3.325
 6243WAT    HW231213   0.624   1.062   3.255
 6243WAT    LP131214   0.618   0.936   3.307
 6243WAT    LP231215   0.557   0.951   3.212
 6244WAT     OW31216   3.842   5.523   6.030
 6244WAT    HW131217   3.843   5.589   6.099
 6244WAT    HW231218   3.927   5.480   6.035
 6244WAT    LP131219   3.790   5.477   6.040
 6244WAT    LP231220   3.833   5.553   5.967
 6245WAT     OW31221   0.828   1.094   0.495
 6245WAT    HW131222   0.862   1.178   0.467
 6245WAT    HW231223   0.893   1.030   0.464
 6245WAT    LP131224   0.823   1.091   0.565
 6245WAT    LP231225   0.765   1.081   0.466
 6246WAT     OW31226   2.750   3.581   1.290
 6246WAT    HW131227   2.783   3.648   1.351
 6246WAT    HW231228   2.673   3.621   1.250
 6246WAT    LP131229   2.798   3.566   1.242
 6246WAT    LP231230   2.732   3.523   1.325
 6247WAT     OW31231   0.947   3.492   6.525
 6247WAT    HW131232   0.941   3.443   6.443
 6247WAT    HW231233   0.862   3.479   6.567
 6247WAT    LP131234   0.998   3.466   6.566
 6247WAT    LP231235   0.959   3.560   6.513
 6248WAT     OW31236   5.895   0.701   2.892
 6248WAT    HW131237   5.874   0.608   2.897
 6248WAT    HW231238   5.990   0.705   2.904
 6248WAT    LP131239   5.877   0.728   2.830
 6248WAT    LP231240   5.862   0.737   2.943
 6249WAT     OW31241   1.178   1.256   6.438
 6249WAT    HW131242   1.101   1.281   6.387
 6249WAT    HW231243   1.245   1.236   6.372
 6249WAT    LP131244   1.199   1.309   6.478
 6249WAT    LP231245   1.164   1.200   6.478
 6250WAT     OW31246   5.669   1.595   1.983
 6250WAT    HW131247   5.604   1.643   1.932
 6250WAT    HW231248   5.752   1.635   1.960
 6250WAT    LP131249   5.656   1.603   2.052
 6250WAT    LP231250   5.668   1.527   1.967
 6251WAT     OW31251   1.221   2.166   4.632
 6251WAT    HW131252   1.150   2.102   4.625
 6251WAT    HW231253   1.242   2.169   4.725
 6251WAT    LP131254   1.277   2.144   4.595
 6251WAT    LP231255   1.201   2.228   4.608
 6252WAT     OW31256   3.662   4.928   2.159
 6252WAT    HW131257   3.699   4.840   2.155
 6252WAT    HW231258   3.695   4.971   2.081
 6252WAT    LP131259   3.592   4.925   2.158
 6252WAT    LP231260   3.684   4.961   2.217
 6253WAT     OW31261   2.867   4.455   4.365
 6253WAT    HW131262   2.864   4.542   4.404
 6253WAT    HW231263   2.917   4.402   4.427
 6253WAT    LP131264   2.802   4.430   4.356
 6253WAT    LP231265   2.900   4.458   4.303
 6254WAT     OW31266   3.818   5.034   5.938
 6254WAT    HW131267   3.793   5.126   5.946
 6254WAT    HW231268   3.735   4.986   5.943
 6254WAT    LP131269   3.850   5.021   5.877
 6254WAT    LP231270   3.860   5.015   5.991
 6255WAT     OW31271   5.192   1.102   3.719
 6255WAT    HW131272   5.144   1.065   3.645
 6255WAT    HW231273   5.124   1.145   3.772
 6255WAT    LP131274   5.223   1.051   3.756
 6255WAT    LP231275   5.240   1.148   3.698
 6256WAT     OW31276   4.221   0.104   1.336
 6256WAT    HW131277   4.145   0.128   1.282
 6256WAT    HW231278   4.263   0.188   1.356
 6256WAT    LP131279   4.200   0.072   1.394
 6256WAT    LP231280   4.264   0.063   1.300
 6257WAT     OW31281   3.818   4.089   3.262
 6257WAT    HW131282   3.789   4.043   3.341
 6257WAT    HW231283   3.787   4.179   3.274
 6257WAT    LP131284   3.888   4.087   3.258
 6257WAT    LP231285   3.791   4.061   3.205
 6258WAT     OW31286   5.187   2.583   2.158
 6258WAT    HW131287   5.165   2.579   2.065
 6258WAT    HW231288   5.283   2.576   2.159
 6258WAT    LP131289   5.166   2.643   2.186
 6258WAT    LP231290   5.158   2.529   2.192
 6259WAT     OW31291   4.667   2.349   5.938
 6259WAT    HW131292   4.628   2.273   5.896
 6259WAT    HW231293   4.594   2.408   5.955
 6259WAT    LP131294   4.699   2.331   5.997
 6259WAT    LP231295   4.714   2.380   5.895
 6260WAT     OW31296   3.327   5.856   5.273
 6260WAT    HW131297   3.307   5.826   5.185
 6260WAT    HW231298   3.282   5.940   5.281
 6260WAT    LP131299   3.303   5.810   5.321
 6260WAT    LP231300   3.396   5.863   5.282
 6261WAT     OW31301   6.618   6.427   0.676
 6261WAT    HW131302   6.603   6.521   0.671
 6261WAT    HW231303   6.712   6.417   0.665
 6261WAT    LP131304   6.597   6.401   0.737
 6261WAT    LP231305   6.583   6.394   0.624
 6262WAT     OW31306   4.082   5.253   5.649
 6262WAT    HW131307   4.078   5.161   5.677
 6262WAT    HW231308   3.991   5.282   5.651
 6262WAT    LP131309   4.121   5.290   5.692
 6262WAT    LP231310   4.108   5.257   5.584
 6263WAT     OW31311   1.752   4.883   0.827
 6263WAT    HW131312   1.699   4.901   0.750
 6263WAT    HW231313   1.832   4.933   0.814
 6263WAT    LP131314   1.719   4.904   0.885
 6263WAT    LP231315   1.766   4.815   0.832
 6264WAT     OW31316   6.534   5.952   1.731
 6264WAT    HW131317   6.610   6.009   1.742
 6264WAT    HW231318   6.488   5.957   1.815
 6264WAT    LP131319   6.492   5.975   1.679
 6264WAT    LP231320   6.554   5.886   1.718
 6265WAT     OW31321   6.190   0.827   2.695
 6265WAT    HW131322   6.139   0.790   2.623
 6265WAT    HW231323   6.191   0.759   2.762
 6265WAT    LP131324   6.255   0.842   2.674
 6265WAT    LP231325   6.160   0.885   2.719
 6266WAT     OW31326   4.466   6.679   4.838
 6266WAT    HW131327   4.450   6.747   4.773
 6266WAT    HW231328   4.538   6.711   4.891
 6266WAT    LP131329   4.408   6.669   4.877
 6266WAT    LP231330   4.483   6.618   4.807
 6267WAT     OW31331   3.034   4.332   1.361
 6267WAT    HW131332   3.060   4.416   1.398
 6267WAT    HW231333   3.027   4.274   1.437
 6267WAT    LP131334   2.972   4.338   1.328
 6267WAT    LP231335   3.082   4.309   1.316
 6268WAT     OW31336   2.177   3.703   6.112
 6268WAT    HW131337   2.233   3.778   6.091
 6268WAT    HW231338   2.199   3.682   6.203
 6268WAT    LP131339   2.110   3.720   6.106
 6268WAT    LP231340   2.192   3.649   6.070
 6269WAT     OW31341   3.060   1.228   3.256
 6269WAT    HW131342   3.133   1.289   3.248
 6269WAT    HW231343   2.986   1.274   3.216
 6269WAT    LP131344   3.073   1.168   3.222
 6269WAT    LP231345   3.046   1.214   3.324
 6270WAT     OW31346   5.581   1.617   3.386
 6270WAT    HW131347   5.552   1.708   3.393
 6270WAT    HW231348   5.538   1.573   3.459
 6270WAT    LP131349   5.560   1.589   3.325
 6270WAT    LP231350   5.650   1.612   3.391
 6271WAT     OW31351   0.193   0.291   0.430
 6271WAT    HW131352   0.277   0.249   0.450
 6271WAT    HW231353   0.216   0.373   0.387
 6271WAT    LP131354   0.154   0.250   0.388
 6271WAT    LP231355   0.157   0.303   0.489
 6272WAT     OW31356   2.938   5.983   2.773
 6272WAT    HW131357   2.939   5.973   2.677
 6272WAT    HW231358   2.971   5.900   2.806
 6272WAT    LP131359   2.980   6.036   2.792
 6272WAT    LP231360   2.873   5.995   2.796
 6273WAT     OW31361   0.519   6.267   5.246
 6273WAT    HW131362   0.427   6.272   5.271
 6273WAT    HW231363   0.518   6.278   5.151
 6273WAT    LP131364   0.556   6.318   5.276
 6273WAT    LP231365   0.546   6.205   5.263
 6274WAT     OW31366   0.968   1.765   1.870
 6274WAT    HW131367   1.020   1.692   1.836
 6274WAT    HW231368   0.894   1.724   1.914
 6274WAT    LP131369   1.006   1.803   1.916
 6274WAT    LP231370   0.946   1.807   1.819
 6275WAT     OW31371   1.078   5.418   3.922
 6275WAT    HW131372   1.047   5.329   3.907
 6275WAT    HW231373   1.007   5.474   3.892
 6275WAT    LP131374   1.091   5.429   3.990
 6275WAT    LP231375   1.136   5.431   3.885
 6276WAT     OW31376   2.746   2.139   5.091
 6276WAT    HW131377   2.699   2.119   5.173
 6276WAT    HW231378   2.687   2.108   5.022
 6276WAT    LP131379   2.758   2.207   5.085
 6276WAT    LP231380   2.807   2.104   5.089
 6277WAT     OW31381   0.656   1.868   5.827
 6277WAT    HW131382   0.750   1.886   5.824
 6277WAT    HW231383   0.615   1.951   5.800
 6277WAT    LP131384   0.639   1.817   5.783
 6277WAT    LP231385   0.636   1.851   5.892
 6278WAT     OW31386   1.527   5.422   3.374
 6278WAT    HW131387   1.476   5.485   3.425
 6278WAT    HW231388   1.478   5.340   3.379
 6278WAT    LP131389   1.533   5.443   3.307
 6278WAT    LP231390   1.591   5.414   3.401
 6279WAT     OW31391   4.576   0.598   4.259
 6279WAT    HW131392   4.554   0.658   4.187
 6279WAT    HW231393   4.507   0.533   4.258
 6279WAT    LP131394   4.639   0.568   4.247
 6279WAT    LP231395   4.578   0.632   4.320
 6280WAT     OW31396   5.050   3.465   0.597
 6280WAT    HW131397   5.018   3.389   0.549
 6280WAT    HW231398   5.053   3.436   0.688
 6280WAT    LP131399   5.113   3.485   0.574
 6280WAT    LP231400   5.005   3.519   0.590
 6281WAT     OW31401   3.378   4.656   6.576
 6281WAT    HW131402   3.435   4.618   6.509
 6281WAT    HW231403   3.340   4.580   6.621
 6281WAT    LP131404   3.416   4.695   6.620
 6281WAT    LP231405   3.328   4.695   6.547
 6282WAT     OW31406   0.730   3.051   1.068
 6282WAT    HW131407   0.782   3.131   1.070
 6282WAT    HW231408   0.785   2.986   1.113
 6282WAT    LP131409   0.670   3.060   1.102
 6282WAT    LP231410   0.718   3.031   1.002
 6283WAT     OW31411   0.061   2.868   5.457
 6283WAT    HW131412  -0.013   2.840   5.402
 6283WAT    HW231413   0.132   2.809   5.433
 6283WAT    LP131414   0.078   2.934   5.444
 6283WAT    LP231415   0.044   2.860   5.525
 6284WAT     OW31416   4.513   1.186   4.626
 6284WAT    HW131417   4.574   1.234   4.571
 6284WAT    HW231418   4.426   1.215   4.597
 6284WAT    LP131419   4.520   1.117   4.616
 6284WAT    LP231420   4.523   1.201   4.693
 6285WAT     OW31421   6.753   5.644   4.757
 6285WAT    HW131422   6.794   5.730   4.748
 6285WAT    HW231423   6.690   5.654   4.828
 6285WAT    LP131424   6.722   5.625   4.698
 6285WAT    LP231425   6.801   5.596   4.775
 6286WAT     OW31426   2.392   5.417   2.412
 6286WAT    HW131427   2.415   5.417   2.505
 6286WAT    HW231428   2.439   5.342   2.376
 6286WAT    LP131429   2.323   5.409   2.404
 6286WAT    LP231430   2.412   5.476   2.381
 6287WAT     OW31431   4.438   2.166   4.096
 6287WAT    HW131432   4.378   2.139   4.026
 6287WAT    HW231433   4.480   2.245   4.062
 6287WAT    LP131434   4.402   2.180   4.155
 6287WAT    LP231435   4.485   2.116   4.109
 6288WAT     OW31436   0.355   0.346   0.782
 6288WAT    HW131437   0.326   0.402   0.854
 6288WAT    HW231438   0.367   0.405   0.708
 6288WAT    LP131439   0.415   0.314   0.799
 6288WAT    LP231440   0.307   0.297   0.768
 6289WAT     OW31441   4.517   3.359   4.530
 6289WAT    HW131442   4.517   3.441   4.482
 6289WAT    HW231443   4.543   3.383   4.619
 6289WAT    LP131444   4.454   3.329   4.530
 6289WAT    LP231445   4.564   3.314   4.502
 6290WAT     OW31446   5.776   2.095   5.331
 6290WAT    HW131447   5.785   2.116   5.424
 6290WAT    HW231448   5.736   2.007   5.330
 6290WAT    LP131449   5.734   2.141   5.299
 6290WAT    LP231450   5.838   2.094   5.299
 6291WAT     OW31451   2.066   1.229   2.306
 6291WAT    HW131452   2.029   1.197   2.388
 6291WAT    HW231453   2.136   1.288   2.332
 6291WAT    LP131454   2.091   1.176   2.268
 6291WAT    LP231455   2.018   1.263   2.268
 6292WAT     OW31456   3.562   4.000   0.888
 6292WAT    HW131457   3.641   3.946   0.890
 6292WAT    HW231458   3.490   3.937   0.883
 6292WAT    LP131459   3.557   4.038   0.947
 6292WAT    LP231460   3.562   4.043   0.833
 6293WAT     OW31461   0.716   3.055   1.962
 6293WAT    HW131462   0.795   3.105   1.946
 6293WAT    HW231463   0.732   3.009   2.044
 6293WAT    LP131464   0.660   3.098   1.968
 6293WAT    LP231465   0.704   3.009   1.910
 6294WAT     OW31466   0.832   0.637   5.094
 6294WAT    HW131467   0.799   0.596   5.174
 6294WAT    HW231468   0.806   0.729   5.102
 6294WAT    LP131469   0.902   0.632   5.091
 6294WAT    LP231470   0.804   0.608   5.037
 6295WAT     OW31471   2.951   1.889   1.048
 6295WAT    HW131472   2.894   1.952   1.094
 6295WAT    HW231473   2.923   1.804   1.080
 6295WAT    LP131474   2.941   1.894   0.979
 6295WAT    LP231475   3.018   1.901   1.063
 6296WAT     OW31476   3.264   5.577   4.781
 6296WAT    HW131477   3.171   5.579   4.803
 6296WAT    HW231478   3.304   5.526   4.852
 6296WAT    LP131479   3.274   5.546   4.720
 6296WAT    LP231480   3.290   5.642   4.779
 6297WAT     OW31481   0.947   6.500   2.286
 6297WAT    HW131482   0.969   6.588   2.258
 6297WAT    HW231483   0.934   6.507   2.380
 6297WAT    LP131484   0.889   6.477   2.254
 6297WAT    LP231485   1.000   6.456   2.272
 6298WAT     OW31486   2.653   2.842   5.858
 6298WAT    HW131487   2.675   2.933   5.878
 6298WAT    HW231488   2.701   2.791   5.924
 6298WAT    LP131489   2.584   2.831   5.863
 6298WAT    LP231490   2.675   2.824   5.794
 6299WAT     OW31491   6.696   4.575   3.938
 6299WAT    HW131492   6.708   4.583   4.033
 6299WAT    HW231493   6.780   4.544   3.905
 6299WAT    LP131494   6.645   4.529   3.924
 6299WAT    LP231495   6.679   4.637   3.910
 6300WAT     OW31496   4.884   4.071   0.951
 6300WAT    HW131497   4.978   4.056   0.964
 6300WAT    HW231498   4.842   4.021   1.021
 6300WAT    LP131499   4.869   4.140   0.958
 6300WAT    LP231500   4.864   4.049   0.888
 6301WAT     OW31501   4.032   6.600   5.249
 6301WAT    HW131502   4.068   6.515   5.223
 6301WAT    HW231503   4.108   6.657   5.253
 6301WAT    LP131504   3.986   6.623   5.202
 6301WAT    LP231505   4.001   6.595   5.311
 6302WAT     OW31506   0.305   5.130   0.683
 6302WAT    HW131507   0.380   5.071   0.675
 6302WAT    HW231508   0.342   5.217   0.669
 6302WAT    LP131509   0.257   5.115   0.635
 6302WAT    LP231510   0.277   5.125   0.747
 6303WAT     OW31511   3.852   3.823   1.755
 6303WAT    HW131512   3.799   3.827   1.835
 6303WAT    HW231513   3.792   3.790   1.688
 6303WAT    LP131514   3.876   3.886   1.739
 6303WAT    LP231515   3.906   3.779   1.764
 6304WAT     OW31516   5.578   4.729   2.062
 6304WAT    HW131517   5.664   4.689   2.072
 6304WAT    HW231518   5.548   4.702   1.975
 6304WAT    LP131519   5.534   4.706   2.111
 6304WAT    LP231520   5.582   4.799   2.065
 6305WAT     OW31521   2.929   5.161   0.645
 6305WAT    HW131522   2.979   5.081   0.629
 6305WAT    HW231523   2.903   5.155   0.737
 6305WAT    LP131524   2.969   5.217   0.635
 6305WAT    LP231525   2.873   5.164   0.603
 6306WAT     OW31526   0.156   3.511   2.632
 6306WAT    HW131527   0.068   3.548   2.644
 6306WAT    HW231528   0.201   3.574   2.576
 6306WAT    LP131529   0.189   3.505   2.693
 6306WAT    LP231530   0.152   3.449   2.601
 6307WAT     OW31531   2.226   0.739   1.224
 6307WAT    HW131532   2.311   0.775   1.199
 6307WAT    HW231533   2.246   0.658   1.271
 6307WAT    LP131534   2.191   0.784   1.266
 6307WAT    LP231535   2.187   0.726   1.167
 6308WAT     OW31536   5.545   3.003   2.838
 6308WAT    HW131537   5.616   2.960   2.885
 6308WAT    HW231538   5.582   3.086   2.809
 6308WAT    LP131539   5.524   2.964   2.784
 6308WAT    LP231540   5.490   3.014   2.881
 6309WAT     OW31541   4.074   4.327   3.864
 6309WAT    HW131542   4.031   4.393   3.917
 6309WAT    HW231543   4.165   4.354   3.860
 6309WAT    LP131544   4.068   4.264   3.893
 6309WAT    LP231545   4.046   4.325   3.800
 6310WAT     OW31546   4.515   2.947   6.587
 6310WAT    HW131547   4.437   2.910   6.545
 6310WAT    HW231548   4.506   2.923   6.679
 6310WAT    LP131549   4.573   2.919   6.560
 6310WAT    LP231550   4.517   3.016   6.579
 6311WAT     OW31551   0.719   3.725   1.720
 6311WAT    HW131552   0.715   3.633   1.694
 6311WAT    HW231553   0.784   3.728   1.790
 6311WAT    LP131554   0.740   3.765   1.666
 6311WAT    LP231555   0.657   3.747   1.742
 6312WAT     OW31556   4.293   5.764   6.264
 6312WAT    HW131557   4.356   5.786   6.333
 6312WAT    HW231558   4.229   5.836   6.266
 6312WAT    LP131559   4.325   5.761   6.202
 6312WAT    LP231560   4.262   5.703   6.278
 6313WAT     OW31561   2.297   4.709   1.732
 6313WAT    HW131562   2.242   4.687   1.656
 6313WAT    HW231563   2.341   4.790   1.706
 6313WAT    LP131564   2.258   4.719   1.789
 6313WAT    LP231565   2.344   4.658   1.744
 6314WAT     OW31566   0.724   1.645   0.195
 6314WAT    HW131567   0.735   1.555   0.226
 6314WAT    HW231568   0.659   1.639   0.126
 6314WAT    LP131569   0.702   1.687   0.247
 6314WAT    LP231570   0.785   1.670   0.170
 6315WAT     OW31571   6.432   5.942   5.985
 6315WAT    HW131572   6.376   5.874   6.023
 6315WAT    HW231573   6.458   5.996   6.060
 6315WAT    LP131574   6.488   5.913   5.955
 6315WAT    LP231575   6.397   5.980   5.938
 6316WAT     OW31576   3.549   6.579   0.715
 6316WAT    HW131577   3.639   6.591   0.687
 6316WAT    HW231578   3.500   6.563   0.634
 6316WAT    LP131579   3.543   6.524   0.758
 6316WAT    LP231580   3.524   6.636   0.747
 6317WAT     OW31581   5.640   0.590   4.350
 6317WAT    HW131582   5.613   0.682   4.344
 6317WAT    HW231583   5.573   0.542   4.302
 6317WAT    LP131584   5.703   0.581   4.320
 6317WAT    LP231585   5.643   0.569   4.417
 6318WAT     OW31586   5.842   1.541   4.335
 6318WAT    HW131587   5.817   1.588   4.256
 6318WAT    HW231588   5.817   1.450   4.317
 6318WAT    LP131589   5.911   1.546   4.347
 6318WAT    LP231590   5.807   1.565   4.391
 6319WAT     OW31591   3.561   1.955   1.035
 6319WAT    HW131592   3.499   1.935   0.964
 6319WAT    HW231593   3.507   1.997   1.102
 6319WAT    LP131594   3.589   1.896   1.060
 6319WAT    LP231595   3.611   1.998   1.013
 6320WAT     OW31596   3.861   4.547   4.604
 6320WAT    HW131597   3.906   4.535   4.520
 6320WAT    HW231598   3.923   4.596   4.658
 6320WAT    LP131599   3.802   4.582   4.595
 6320WAT    LP231600   3.847   4.485   4.634
 6321WAT     OW31601   0.529   3.103   1.255
 6321WAT    HW131602   0.589   3.072   1.187
 6321WAT    HW231603   0.582   3.108   1.334
 6321WAT    LP131604   0.503   3.165   1.238
 6321WAT    LP231605   0.476   3.057   1.264
 6322WAT     OW31606   1.412   0.246   6.549
 6322WAT    HW131607   1.321   0.259   6.577
 6322WAT    HW231608   1.429   0.153   6.568
 6322WAT    LP131609   1.419   0.259   6.480
 6322WAT    LP231610   1.455   0.287   6.585
 6323WAT     OW31611   0.393   2.465   0.890
 6323WAT    HW131612   0.345   2.533   0.844
 6323WAT    HW231613   0.365   2.474   0.981
 6323WAT    LP131614   0.377   2.401   0.866
 6323WAT    LP231615   0.462   2.475   0.884
 6324WAT     OW31616   0.026   6.307   2.382
 6324WAT    HW131617   0.002   6.229   2.431
 6324WAT    HW231618   0.118   6.321   2.402
 6324WAT    LP131619   0.017   6.297   2.313
 6324WAT    LP231620  -0.012   6.363   2.402
 6325WAT     OW31621   5.164   2.986   6.220
 6325WAT    HW131622   5.255   3.000   6.195
 6325WAT    HW231623   5.155   3.032   6.303
 6325WAT    LP131624   5.121   3.012   6.172
 6325WAT    LP231625   5.151   2.918   6.229
 6326WAT     OW31626   2.134   1.044   4.263
 6326WAT    HW131627   2.167   1.011   4.180
 6326WAT    HW231628   2.039   1.045   4.252
 6326WAT    LP131629   2.152   1.002   4.316
 6326WAT    LP231630   2.157   1.109   4.276
 6327WAT     OW31631   6.261   6.594   3.485
 6327WAT    HW131632   6.226   6.611   3.572
 6327WAT    HW231633   6.195   6.538   3.443
 6327WAT    LP131634   6.268   6.654   3.449
 6327WAT    LP231635   6.322   6.562   3.488
 6328WAT     OW31636   2.740   3.395   4.084
 6328WAT    HW131637   2.691   3.475   4.100
 6328WAT    HW231638   2.713   3.336   4.154
 6328WAT    LP131639   2.724   3.369   4.021
 6328WAT    LP231640   2.809   3.407   4.087
 6329WAT     OW31641   3.614   0.588   2.461
 6329WAT    HW131642   3.593   0.628   2.545
 6329WAT    HW231643   3.706   0.610   2.446
 6329WAT    LP131644   3.605   0.518   2.464
 6329WAT    LP231645   3.573   0.614   2.410
 6330WAT     OW31646   3.436   4.419   3.028
 6330WAT    HW131647   3.346   4.405   2.999
 6330WAT    HW231648   3.431   4.412   3.124
 6330WAT    LP131649   3.478   4.370   3.002
 6330WAT    LP231650   3.458   4.482   3.009
 6331WAT     OW31651   6.051   2.806   2.159
 6331WAT    HW131652   6.110   2.767   2.094
 6331WAT    HW231653   6.039   2.738   2.225
 6331WAT    LP131654   6.081   2.863   2.188
 6331WAT    LP231655   5.990   2.824   2.130
 6332WAT     OW31656   3.868   6.663   1.610
 6332WAT    HW131657   3.858   6.631   1.521
 6332WAT    HW231658   3.962   6.671   1.623
 6332WAT    LP131659   3.836   6.725   1.617
 6332WAT    LP231660   3.840   6.618   1.656
 6333WAT     OW31661   1.717   5.959   0.286
 6333WAT    HW131662   1.750   6.047   0.301
 6333WAT    HW231663   1.638   5.954   0.339
 6333WAT    LP131664   1.702   5.949   0.218
 6333WAT    LP231665   1.764   5.911   0.306
 6334WAT     OW31666   1.447   4.888   2.711
 6334WAT    HW131667   1.525   4.920   2.754
 6334WAT    HW231668   1.445   4.794   2.731
 6334WAT    LP131669   1.389   4.919   2.736
 6334WAT    LP231670   1.450   4.898   2.642
 6335WAT     OW31671   4.638   5.128   1.572
 6335WAT    HW131672   4.598   5.119   1.658
 6335WAT    HW231673   4.711   5.187   1.586
 6335WAT    LP131674   4.660   5.066   1.548
 6335WAT    LP231675   4.592   5.155   1.526
 6336WAT     OW31676   6.558   5.861   0.030
 6336WAT    HW131677   6.632   5.825   0.081
 6336WAT    HW231678   6.493   5.791   0.029
 6336WAT    LP131679   6.532   5.918   0.062
 6336WAT    LP231680   6.578   5.877  -0.034
 6337WAT     OW31681   4.617   0.817   1.578
 6337WAT    HW131682   4.568   0.825   1.496
 6337WAT    HW231683   4.674   0.741   1.564
 6337WAT    LP131684   4.654   0.875   1.589
 6337WAT    LP231685   4.573   0.806   1.631
 6338WAT     OW31686   3.484   5.210   0.473
 6338WAT    HW131687   3.398   5.250   0.466
 6338WAT    HW231688   3.503   5.179   0.385
 6338WAT    LP131689   3.532   5.256   0.494
 6338WAT    LP231690   3.482   5.156   0.518
 6339WAT     OW31691   6.366   3.238   0.942
 6339WAT    HW131692   6.294   3.193   0.984
 6339WAT    HW231693   6.415   3.279   1.013
 6339WAT    LP131694   6.407   3.192   0.908
 6339WAT    LP231695   6.343   3.286   0.897
 6340WAT     OW31696   4.294   1.080   4.955
 6340WAT    HW131697   4.350   1.157   4.944
 6340WAT    HW231698   4.215   1.100   4.906
 6340WAT    LP131699   4.325   1.023   4.930
 6340WAT    LP231700   4.279   1.070   5.023
 6341WAT     OW31701   1.846   3.188   2.857
 6341WAT    HW131702   1.894   3.185   2.774
 6341WAT    HW231703   1.866   3.104   2.899
 6341WAT    LP131704   1.867   3.241   2.896
 6341WAT    LP231705   1.777   3.193   2.845
 6342WAT     OW31706   5.431   0.878   5.511
 6342WAT    HW131707   5.483   0.806   5.545
 6342WAT    HW231708   5.428   0.941   5.582
 6342WAT    LP131709   5.461   0.906   5.454
 6342WAT    LP231710   5.366   0.856   5.494
 6343WAT     OW31711   2.540   2.247   2.389
 6343WAT    HW131712   2.635   2.241   2.393
 6343WAT    HW231713   2.514   2.179   2.327
 6343WAT    LP131714   2.512   2.236   2.452
 6343WAT    LP231715   2.520   2.310   2.366
 6344WAT     OW31716   6.631   4.702   3.710
 6344WAT    HW131717   6.661   4.669   3.794
 6344WAT    HW231718   6.578   4.631   3.673
 6344WAT    LP131719   6.593   4.760   3.718
 6344WAT    LP231720   6.686   4.716   3.668
 6345WAT     OW31721   2.522   2.401   4.773
 6345WAT    HW131722   2.430   2.422   4.791
 6345WAT    HW231723   2.518   2.326   4.713
 6345WAT    LP131724   2.555   2.455   4.743
 6345WAT    LP231725   2.555   2.383   4.832
 6346WAT     OW31726   2.840   2.771   0.078
 6346WAT    HW131727   2.751   2.752   0.046
 6346WAT    HW231728   2.869   2.846   0.026
 6346WAT    LP131729   2.838   2.788   0.146
 6346WAT    LP231730   2.882   2.716   0.069
 6347WAT     OW31731   5.929   3.248   2.447
 6347WAT    HW131732   5.886   3.196   2.379
 6347WAT    HW231733   6.007   3.283   2.405
 6347WAT    LP131734   5.887   3.300   2.468
 6347WAT    LP231735   5.946   3.208   2.502
 6348WAT     OW31736   5.875   3.160   1.412
 6348WAT    HW131737   5.949   3.197   1.364
 6348WAT    HW231738   5.831   3.236   1.451
 6348WAT    LP131739   5.831   3.126   1.369
 6348WAT    LP231740   5.897   3.116   1.462
 6349WAT     OW31741   0.606   1.885   3.187
 6349WAT    HW131742   0.696   1.885   3.218
 6349WAT    HW231743   0.609   1.834   3.106
 6349WAT    LP131744   0.563   1.854   3.234
 6349WAT    LP231745   0.583   1.950   3.175
 6350WAT     OW31746   1.900   3.213   6.130
 6350WAT    HW131747   1.986   3.203   6.172
 6350WAT    HW231748   1.847   3.258   6.196
 6350WAT    LP131749   1.905   3.251   6.072
 6350WAT    LP231750   1.873   3.150   6.115
 6351WAT     OW31751   0.430   0.375   6.210
 6351WAT    HW131752   0.393   0.288   6.195
 6351WAT    HW231753   0.368   0.416   6.270
 6351WAT    LP131754   0.493   0.370   6.239
 6351WAT    LP231755   0.434   0.411   6.150
 6352WAT     OW31756   2.986   0.372   6.168
 6352WAT    HW131757   3.074   0.403   6.187
 6352WAT    HW231758   2.996   0.316   6.091
 6352WAT    LP131759   2.960   0.335   6.222
 6352WAT    LP231760   2.943   0.426   6.154
 6353WAT     OW31761   4.380   2.233   2.514
 6353WAT    HW131762   4.335   2.262   2.594
 6353WAT    HW231763   4.351   2.142   2.502
 6353WAT    LP131764   4.360   2.272   2.459
 6353WAT    LP231765   4.449   2.236   2.521
 6354WAT     OW31766   1.239   1.159   3.418
 6354WAT    HW131767   1.255   1.237   3.472
 6354WAT    HW231768   1.285   1.089   3.465
 6354WAT    LP131769   1.171   1.146   3.414
 6354WAT    LP231770   1.266   1.168   3.354
 6355WAT     OW31771   6.446   2.796   2.855
 6355WAT    HW131772   6.424   2.846   2.777
 6355WAT    HW231773   6.507   2.851   2.903
 6355WAT    LP131774   6.388   2.784   2.894
 6355WAT    LP231775   6.475   2.735   2.838
 6356WAT     OW31776   4.648   5.810   4.644
 6356WAT    HW131777   4.615   5.877   4.583
 6356WAT    HW231778   4.575   5.796   4.705
 6356WAT    LP131779   4.664   5.751   4.610
 6356WAT    LP231780   4.704   5.834   4.678
 6357WAT     OW31781   2.640   3.484   0.339
 6357WAT    HW131782   2.708   3.417   0.332
 6357WAT    HW231783   2.684   3.557   0.382
 6357WAT    LP131784   2.617   3.502   0.276
 6357WAT    LP231785   2.587   3.461   0.378
 6358WAT     OW31786   2.638   0.436   1.019
 6358WAT    HW131787   2.714   0.387   1.052
 6358WAT    HW231788   2.609   0.488   1.094
 6358WAT    LP131789   2.656   0.477   0.966
 6358WAT    LP231790   2.588   0.392   0.998
 6359WAT     OW31791   2.519   4.891   6.596
 6359WAT    HW131792   2.465   4.935   6.529
 6359WAT    HW231793   2.462   4.822   6.630
 6359WAT    LP131794   2.576   4.864   6.567
 6359WAT    LP231795   2.536   4.936   6.646
 6360WAT     OW31796   6.461   4.300   1.656
 6360WAT    HW131797   6.447   4.391   1.628
 6360WAT    HW231798   6.373   4.262   1.655
 6360WAT    LP131799   6.502   4.266   1.611
 6360WAT    LP231800   6.488   4.297   1.720
 6361WAT     OW31801   4.448   2.873   0.324
 6361WAT    HW131802   4.543   2.863   0.320
 6361WAT    HW231803   4.431   2.960   0.288
 6361WAT    LP131804   4.416   2.823   0.287
 6361WAT    LP231805   4.426   2.870   0.391
 6362WAT     OW31806   3.514   0.964   5.921
 6362WAT    HW131807   3.565   0.885   5.907
 6362WAT    HW231808   3.431   0.934   5.958
 6362WAT    LP131809   3.546   1.007   5.966
 6362WAT    LP231810   3.503   0.998   5.860
 6363WAT     OW31811   0.308   5.933   6.627
 6363WAT    HW131812   0.243   5.863   6.627
 6363WAT    HW231813   0.363   5.914   6.703
 6363WAT    LP131814   0.346   5.931   6.568
 6363WAT    LP231815   0.277   5.995   6.633
 6364WAT     OW31816   0.796   4.849   2.214
 6364WAT    HW131817   0.886   4.884   2.211
 6364WAT    HW231818   0.746   4.908   2.158
 6364WAT    LP131819   0.794   4.784   2.190
 6364WAT    LP231820   0.772   4.850   2.280
 6365WAT     OW31821   3.962   1.864   6.034
 6365WAT    HW131822   3.958   1.834   5.943
 6365WAT    HW231823   3.960   1.959   6.029
 6365WAT    LP131824   3.908   1.839   6.071
 6365WAT    LP231825   4.022   1.842   6.064
 6366WAT     OW31826   4.981   5.586   5.099
 6366WAT    HW131827   5.057   5.617   5.148
 6366WAT    HW231828   4.926   5.663   5.087
 6366WAT    LP131829   5.000   5.559   5.037
 6366WAT    LP231830   4.947   5.537   5.135
 6367WAT     OW31831   1.636   0.252   0.837
 6367WAT    HW131832   1.625   0.332   0.889
 6367WAT    HW231833   1.604   0.276   0.750
 6367WAT    LP131834   1.703   0.233   0.834
 6367WAT    LP231835   1.598   0.200   0.864
 6368WAT     OW31836   3.831   6.674   1.129
 6368WAT    HW131837   3.855   6.627   1.050
 6368WAT    HW231838   3.738   6.693   1.119
 6368WAT    LP131839   3.842   6.635   1.186
 6368WAT    LP231840   3.868   6.734   1.135
 6369WAT     OW31841   0.021   3.123   1.886
 6369WAT    HW131842   0.109   3.115   1.848
 6369WAT    HW231843   0.036   3.157   1.974
 6369WAT    LP131844  -0.018   3.168   1.848
 6369WAT    LP231845  -0.011   3.061   1.888
 6370WAT     OW31846   3.193   1.654   4.918
 6370WAT    HW131847   3.275   1.698   4.941
 6370WAT    HW231848   3.221   1.567   4.888
 6370WAT    LP131849   3.151   1.648   4.973
 6370WAT    LP231850   3.160   1.688   4.867
 6371WAT     OW31851   4.006   5.926   5.031
 6371WAT    HW131852   4.008   5.903   4.938
 6371WAT    HW231853   3.916   5.907   5.058
 6371WAT    LP131854   4.051   5.887   5.068
 6371WAT    LP231855   4.021   5.994   5.040
 6372WAT     OW31856   6.735   1.762   5.779
 6372WAT    HW131857   6.762   1.824   5.712
 6372WAT    HW231858   6.814   1.748   5.831
 6372WAT    LP131859   6.684   1.788   5.819
 6372WAT    LP231860   6.714   1.702   5.750
 6373WAT     OW31861   1.907   4.643   0.798
 6373WAT    HW131862   1.838   4.708   0.812
 6373WAT    HW231863   1.860   4.563   0.773
 6373WAT    LP131864   1.950   4.662   0.747
 6373WAT    LP231865   1.943   4.633   0.857
 6374WAT     OW31866   0.145   0.002   0.595
 6374WAT    HW131867   0.175   0.039   0.678
 6374WAT    HW231868   0.204   0.040   0.529
 6374WAT    LP131869   0.150  -0.067   0.596
 6374WAT    LP231870   0.079   0.021   0.582
 6375WAT     OW31871   5.418   5.512   3.736
 6375WAT    HW131872   5.370   5.482   3.813
 6375WAT    HW231873   5.470   5.586   3.767
 6375WAT    LP131874   5.459   5.461   3.711
 6375WAT    LP231875   5.373   5.533   3.686
 6376WAT     OW31876   1.636   5.947   5.126
 6376WAT    HW131877   1.678   5.926   5.209
 6376WAT    HW231878   1.544   5.957   5.147
 6376WAT    LP131879   1.662   6.006   5.099
 6376WAT    LP231880   1.646   5.895   5.080
 6377WAT     OW31881   3.835   5.395   5.263
 6377WAT    HW131882   3.926   5.426   5.262
 6377WAT    HW231883   3.783   5.475   5.257
 6377WAT    LP131884   3.822   5.353   5.209
 6377WAT    LP231885   3.822   5.361   5.323
 6378WAT     OW31886   1.242   4.366   2.412
 6378WAT    HW131887   1.260   4.273   2.423
 6378WAT    HW231888   1.325   4.403   2.384
 6378WAT    LP131889   1.192   4.376   2.364
 6378WAT    LP231890   1.222   4.395   2.473
 6379WAT     OW31891   1.057   0.375   5.632
 6379WAT    HW131892   1.052   0.427   5.712
 6379WAT    HW231893   1.148   0.344   5.629
 6379WAT    LP131894   1.013   0.322   5.634
 6379WAT    LP231895   1.043   0.415   5.576
 6380WAT     OW31896   3.474   3.247   2.257
 6380WAT    HW131897   3.555   3.283   2.222
 6380WAT    HW231898   3.463   3.163   2.212
 6380WAT    LP131899   3.479   3.237   2.326
 6380WAT    LP231900   3.420   3.289   2.244
 6381WAT     OW31901   6.786   4.480   3.094
 6381WAT    HW131902   6.759   4.413   3.032
 6381WAT    HW231903   6.743   4.560   3.064
 6381WAT    LP131904   6.766   4.464   3.159
 6381WAT    LP231905   6.856   4.488   3.093
 6382WAT     OW31906   2.187   2.386   2.557
 6382WAT    HW131907   2.211   2.370   2.466
 6382WAT    HW231908   2.165   2.479   2.560
 6382WAT    LP131909   2.132   2.347   2.575
 6382WAT    LP231910   2.241   2.372   2.600
 6383WAT     OW31911   4.782   2.361   1.248
 6383WAT    HW131912   4.852   2.410   1.292
 6383WAT    HW231913   4.756   2.416   1.175
 6383WAT    LP131914   4.806   2.299   1.226
 6383WAT    LP231915   4.728   2.351   1.292
 6384WAT     OW31916   5.850   5.301   6.317
 6384WAT    HW131917   5.756   5.287   6.313
 6384WAT    HW231918   5.861   5.371   6.383
 6384WAT    LP131919   5.883   5.243   6.337
 6384WAT    LP231920   5.875   5.322   6.255
 6385WAT     OW31921   3.232   0.982   4.149
 6385WAT    HW131922   3.184   0.965   4.068
 6385WAT    HW231923   3.289   0.906   4.160
 6385WAT    LP131924   3.269   1.041   4.144
 6385WAT    LP231925   3.187   0.988   4.203
 6386WAT     OW31926   3.590   4.868   5.703
 6386WAT    HW131927   3.582   4.887   5.796
 6386WAT    HW231928   3.675   4.825   5.694
 6386WAT    LP131929   3.538   4.826   5.682
 6386WAT    LP231930   3.588   4.928   5.666
 6387WAT     OW31931   2.280   5.413   2.956
 6387WAT    HW131932   2.345   5.386   3.021
 6387WAT    HW231933   2.238   5.332   2.928
 6387WAT    LP131934   2.233   5.456   2.986
 6387WAT    LP231935   2.311   5.445   2.902
 6388WAT     OW31936   0.979   0.902   1.243
 6388WAT    HW131937   0.947   0.905   1.333
 6388WAT    HW231938   0.912   0.948   1.193
 6388WAT    LP131939   1.040   0.934   1.237
 6388WAT    LP231940   0.985   0.836   1.221
 6389WAT     OW31941   4.111   5.371   2.171
 6389WAT    HW131942   4.065   5.296   2.133
 6389WAT    HW231943   4.190   5.381   2.118
 6389WAT    LP131944   4.071   5.428   2.168
 6389WAT    LP231945   4.128   5.358   2.238
 6390WAT     OW31946   5.696   1.730   6.543
 6390WAT    HW131947   5.776   1.695   6.582
 6390WAT    HW231948   5.629   1.718   6.610
 6390WAT    LP131949   5.704   1.798   6.527
 6390WAT    LP231950   5.680   1.695   6.485
 6391WAT     OW31951   1.002   4.668   3.380
 6391WAT    HW131952   0.912   4.646   3.354
 6391WAT    HW231953   1.001   4.763   3.392
 6391WAT    LP131954   1.018   4.635   3.440
 6391WAT    LP231955   1.047   4.649   3.330
 6392WAT     OW31956   1.074   2.197   2.760
 6392WAT    HW131957   1.088   2.207   2.666
 6392WAT    HW231958   1.102   2.107   2.779
 6392WAT    LP131959   1.113   2.243   2.796
 6392WAT    LP231960   1.007   2.206   2.776
 6393WAT     OW31961   1.570   2.474   3.832
 6393WAT    HW131962   1.598   2.401   3.887
 6393WAT    HW231963   1.510   2.524   3.888
 6393WAT    LP131964   1.625   2.514   3.815
 6393WAT    LP231965   1.538   2.452   3.774
 6394WAT     OW31966   2.835   4.869   5.059
 6394WAT    HW131967   2.909   4.810   5.046
 6394WAT    HW231968   2.840   4.895   5.151
 6394WAT    LP131969   2.840   4.925   5.018
 6394WAT    LP231970   2.774   4.836   5.046
 6395WAT     OW31971   1.316   5.008   1.897
 6395WAT    HW131972   1.352   5.060   1.968
 6395WAT    HW231973   1.221   5.018   1.905
 6395WAT    LP131974   1.338   5.032   1.835
 6395WAT    LP231975   1.334   4.941   1.904
 6396WAT     OW31976   0.169   2.723   4.734
 6396WAT    HW131977   0.078   2.695   4.740
 6396WAT    HW231978   0.181   2.747   4.642
 6396WAT    LP131979   0.181   2.778   4.776
 6396WAT    LP231980   0.212   2.671   4.751
 6397WAT     OW31981   6.579   5.151   5.770
 6397WAT    HW131982   6.493   5.146   5.727
 6397WAT    HW231983   6.595   5.245   5.778
 6397WAT    LP131984   6.578   5.120   5.832
 6397WAT    LP231985   6.628   5.121   5.730
 6398WAT     OW31986   1.621   3.733   1.555
 6398WAT    HW131987   1.619   3.644   1.590
 6398WAT    HW231988   1.601   3.724   1.462
 6398WAT    LP131989   1.573   3.773   1.587
 6398WAT    LP231990   1.685   3.761   1.564
 6399WAT     OW31991   5.420   0.505   1.280
 6399WAT    HW131992   5.451   0.546   1.200
 6399WAT    HW231993   5.383   0.422   1.252
 6399WAT    LP131994   5.472   0.495   1.326
 6399WAT    LP231995   5.370   0.545   1.311
 6400WAT     OW31996   4.987   5.781   3.421
 6400WAT    HW131997   4.981   5.713   3.354
 6400WAT    HW231998   4.967   5.735   3.503
 6400WAT    LP131999   5.051   5.808   3.422
 6400WAT    LP232000   4.940   5.831   3.409
 6401WAT     OW32001   5.508   0.184   0.846
 6401WAT    HW132002   5.539   0.132   0.772
 6401WAT    HW232003   5.584   0.190   0.904
 6401WAT    LP132004   5.489   0.248   0.824
 6401WAT    LP232005   5.455   0.153   0.878
 6402WAT     OW32006   5.490   5.131   3.683
 6402WAT    HW132007   5.395   5.124   3.677
 6402WAT    HW232008   5.512   5.210   3.633
 6402WAT    LP132009   5.510   5.138   3.750
 6402WAT    LP232010   5.522   5.075   3.655
 6403WAT     OW32011   1.463   5.919   0.414
 6403WAT    HW132012   1.409   5.933   0.335
 6403WAT    HW232013   1.408   5.950   0.486
 6403WAT    LP132014   1.478   5.851   0.421
 6403WAT    LP232015   1.522   5.956   0.410
 6404WAT     OW32016   5.966   4.791   3.845
 6404WAT    HW132017   6.002   4.838   3.920
 6404WAT    HW232018   5.892   4.743   3.881
 6404WAT    LP132019   5.945   4.836   3.796
 6404WAT    LP232020   6.014   4.748   3.818
 6405WAT     OW32021   6.107   2.665   4.466
 6405WAT    HW132022   6.154   2.746   4.486
 6405WAT    HW232023   6.154   2.598   4.515
 6405WAT    LP132024   6.040   2.669   4.488
 6405WAT    LP232025   6.108   2.651   4.398
 6406WAT     OW32026   1.336   1.455   5.593
 6406WAT    HW132027   1.371   1.497   5.672
 6406WAT    HW232028   1.407   1.460   5.529
 6406WAT    LP132029   1.319   1.388   5.607
 6406WAT    LP232030   1.279   1.489   5.570
 6407WAT     OW32031   4.368   2.684   2.138
 6407WAT    HW132032   4.358   2.637   2.055
 6407WAT    HW232033   4.284   2.730   2.149
 6407WAT    LP132034   4.378   2.640   2.191
 6407WAT    LP232035   4.421   2.730   2.135
 6408WAT     OW32036   6.452   0.829   1.134
 6408WAT    HW132037   6.522   0.848   1.196
 6408WAT    HW232038   6.483   0.863   1.050
 6408WAT    LP132039   6.441   0.760   1.129
 6408WAT    LP232040   6.392   0.861   1.153
 6409WAT     OW32041   0.892   3.576   1.429
 6409WAT    HW132042   0.842   3.540   1.502
 6409WAT    HW232043   0.978   3.594   1.465
 6409WAT    LP132044   0.896   3.529   1.377
 6409WAT    LP232045   0.862   3.635   1.405
 6410WAT     OW32046   5.472   5.607   5.267
 6410WAT    HW132047   5.528   5.563   5.202
 6410WAT    HW232048   5.528   5.674   5.306
 6410WAT    LP132049   5.416   5.636   5.236
 6410WAT    LP232050   5.451   5.561   5.316
 6411WAT     OW32051   4.460   2.826   5.759
 6411WAT    HW132052   4.480   2.892   5.692
 6411WAT    HW232053   4.400   2.765   5.716
 6411WAT    LP132054   4.518   2.793   5.780
 6411WAT    LP232055   4.429   2.855   5.815
 6412WAT     OW32056   5.420   1.201   5.437
 6412WAT    HW132057   5.368   1.121   5.431
 6412WAT    HW232058   5.498   1.175   5.486
 6412WAT    LP132059   5.438   1.224   5.373
 6412WAT    LP232060   5.385   1.252   5.471
 6413WAT     OW32061   2.456   1.844   5.252
 6413WAT    HW132062   2.365   1.830   5.278
 6413WAT    HW232063   2.503   1.769   5.289
 6413WAT    LP132064   2.463   1.845   5.183
 6413WAT    LP232065   2.481   1.904   5.279
 6414WAT     OW32066   5.631   1.503   5.148
 6414WAT    HW132067   5.589   1.418   5.165
 6414WAT    HW232068   5.672   1.492   5.062
 6414WAT    LP132069   5.583   1.554   5.145
 6414WAT    LP232070   5.678   1.518   5.197
 6415WAT     OW32071   5.995   3.240   6.253
 6415WAT    HW132072   5.955   3.310   6.201
 6415WAT    HW232073   5.922   3.200   6.299
 6415WAT    LP132074   6.026   3.193   6.211
 6415WAT    LP232075   6.042   3.266   6.298
 6416WAT     OW32076   2.208   6.428   2.907
 6416WAT    HW132077   2.261   6.503   2.879
 6416WAT    HW232078   2.121   6.465   2.923
 6416WAT    LP132079   2.206   6.379   2.857
 6416WAT    LP232080   2.234   6.401   2.966
 6417WAT     OW32081   3.571   5.891   4.551
 6417WAT    HW132082   3.562   5.823   4.485
 6417WAT    HW232083   3.601   5.968   4.503
 6417WAT    LP132084   3.509   5.904   4.582
 6417WAT    LP232085   3.617   5.873   4.600
 6418WAT     OW32086   6.285   5.701   5.358
 6418WAT    HW132087   6.197   5.677   5.389
 6418WAT    HW232088   6.341   5.630   5.390
 6418WAT    LP132089   6.286   5.703   5.288
 6418WAT    LP232090   6.305   5.762   5.384
 6419WAT     OW32091   3.449   2.766   3.213
 6419WAT    HW132092   3.399   2.801   3.287
 6419WAT    HW232093   3.445   2.836   3.147
 6419WAT    LP132094   3.515   2.753   3.231
 6419WAT    LP232095   3.419   2.708   3.189
 6420WAT     OW32096   2.968   3.041   2.011
 6420WAT    HW132097   2.936   3.131   1.997
 6420WAT    HW232098   2.888   2.988   2.013
 6420WAT    LP132099   3.009   3.021   1.958
 6420WAT    LP232100   3.003   3.036   2.071
 6421WAT     OW32101   3.657   5.923   2.396
 6421WAT    HW132102   3.734   5.867   2.396
 6421WAT    HW232103   3.588   5.869   2.436
 6421WAT    LP132104   3.668   5.981   2.434
 6421WAT    LP232105   3.639   5.941   2.330
 6422WAT     OW32106   2.671   1.380   1.050
 6422WAT    HW132107   2.603   1.345   1.108
 6422WAT    HW232108   2.753   1.348   1.088
 6422WAT    LP132109   2.663   1.355   0.985
 6422WAT    LP232110   2.669   1.450   1.050
 6423WAT     OW32111   4.049   2.840   3.930
 6423WAT    HW132112   4.046   2.899   3.855
 6423WAT    HW232113   4.116   2.776   3.908
 6423WAT    LP132114   4.067   2.875   3.988
 6423WAT    LP232115   3.987   2.809   3.940
 6424WAT     OW32116   5.378   3.704   5.288
 6424WAT    HW132117   5.402   3.747   5.206
 6424WAT    HW232118   5.283   3.694   5.284
 6424WAT    LP132119   5.409   3.641   5.293
 6424WAT    LP232120   5.397   3.743   5.343
 6425WAT     OW32121   1.995   0.831   2.976
 6425WAT    HW132122   1.982   0.750   3.025
 6425WAT    HW232123   1.992   0.804   2.884
 6425WAT    LP132124   1.945   0.877   2.990
 6425WAT    LP232125   2.058   0.859   2.991
 6426WAT     OW32126   6.588   0.402   5.779
 6426WAT    HW132127   6.632   0.429   5.860
 6426WAT    HW232128   6.551   0.317   5.798
 6426WAT    LP132129   6.538   0.448   5.762
 6426WAT    LP232130   6.634   0.398   5.726
 6427WAT     OW32131   1.014   3.775   3.366
 6427WAT    HW132132   1.002   3.856   3.416
 6427WAT    HW232133   1.042   3.804   3.279
 6427WAT    LP132134   1.063   3.735   3.395
 6427WAT    LP232135   0.954   3.740   3.362
 6428WAT     OW32136   6.153   3.398   0.231
 6428WAT    HW132137   6.155   3.364   0.321
 6428WAT    HW232138   6.220   3.466   0.230
 6428WAT    LP132139   6.169   3.347   0.186
 6428WAT    LP232140   6.090   3.424   0.216
 6429WAT     OW32141   1.937   2.972   2.994
 6429WAT    HW132142   1.962   2.880   2.994
 6429WAT    HW232143   2.014   3.018   3.028
 6429WAT    LP132144   1.921   2.993   2.929
 6429WAT    LP232145   1.882   2.983   3.036
 6430WAT     OW32146   5.548   4.541   1.225
 6430WAT    HW132147   5.497   4.527   1.146
 6430WAT    HW232148   5.491   4.593   1.282
 6430WAT    LP132149   5.564   4.480   1.256
 6430WAT    LP232150   5.607   4.576   1.211
 6431WAT     OW32151   4.749   0.393   5.469
 6431WAT    HW132152   4.678   0.345   5.513
 6431WAT    HW232153   4.782   0.453   5.536
 6431WAT    LP132154   4.799   0.349   5.449
 6431WAT    LP232155   4.725   0.428   5.414
 6432WAT     OW32156   3.347   5.048   3.589
 6432WAT    HW132157   3.270   4.996   3.568
 6432WAT    HW232158   3.404   4.989   3.638
 6432WAT    LP132159   3.379   5.070   3.531
 6432WAT    LP232160   3.330   5.104   3.629
 6433WAT     OW32161   1.909   6.021   6.466
 6433WAT    HW132162   1.864   6.012   6.382
 6433WAT    HW232163   1.839   6.012   6.531
 6433WAT    LP132164   1.956   5.970   6.475
 6433WAT    LP232165   1.940   6.083   6.472
 6434WAT     OW32166   3.424   4.562   1.518
 6434WAT    HW132167   3.374   4.591   1.595
 6434WAT    HW232168   3.407   4.630   1.452
 6434WAT    LP132169   3.492   4.559   1.533
 6434WAT    LP232170   3.401   4.500   1.496
 6435WAT     OW32171   5.408   3.195   6.315
 6435WAT    HW132172   5.352   3.142   6.371
 6435WAT    HW232173   5.365   3.281   6.313
 6435WAT    LP132174   5.472   3.201   6.343
 6435WAT    LP232175   5.412   3.168   6.251
 6436WAT     OW32176   6.611   5.909   3.864
 6436WAT    HW132177   6.598   5.960   3.945
 6436WAT    HW232178   6.549   5.837   3.871
 6436WAT    LP132179   6.596   5.949   3.808
 6436WAT    LP232180   6.676   5.886   3.860
 6437WAT     OW32181   1.675   3.174   2.382
 6437WAT    HW132182   1.700   3.085   2.357
 6437WAT    HW232183   1.757   3.222   2.388
 6437WAT    LP132184   1.633   3.202   2.333
 6437WAT    LP232185   1.641   3.174   2.443
 6438WAT     OW32186   0.825   0.106   0.451
 6438WAT    HW132187   0.760   0.066   0.509
 6438WAT    HW232188   0.809   0.200   0.457
 6438WAT    LP132189   0.890   0.090   0.471
 6438WAT    LP232190   0.815   0.084   0.385
 6439WAT     OW32191   3.752   4.222   4.578
 6439WAT    HW132192   3.739   4.145   4.634
 6439WAT    HW232193   3.825   4.269   4.618
 6439WAT    LP132194   3.768   4.203   4.513
 6439WAT    LP232195   3.695   4.262   4.577
 6440WAT     OW32196   2.878   5.106   2.403
 6440WAT    HW132197   2.928   5.025   2.411
 6440WAT    HW232198   2.810   5.099   2.470
 6440WAT    LP132199   2.919   5.162   2.415
 6440WAT    LP232200   2.850   5.112   2.339
 6441WAT     OW32201   2.236   3.229   6.006
 6441WAT    HW132202   2.217   3.139   5.980
 6441WAT    HW232203   2.204   3.235   6.096
 6441WAT    LP132204   2.305   3.241   6.003
 6441WAT    LP232205   2.203   3.274   5.965
 6442WAT     OW32206   0.169   6.505   1.425
 6442WAT    HW132207   0.102   6.569   1.450
 6442WAT    HW232208   0.152   6.487   1.333
 6442WAT    LP132209   0.233   6.533   1.433
 6442WAT    LP232210   0.164   6.447   1.463
 6443WAT     OW32211   1.472   2.620   4.978
 6443WAT    HW132212   1.461   2.588   4.889
 6443WAT    HW232213   1.383   2.634   5.010
 6443WAT    LP132214   1.505   2.573   5.018
 6443WAT    LP232215   1.508   2.680   4.979
 6444WAT     OW32216   4.990   2.528   0.949
 6444WAT    HW132217   5.014   2.586   0.877
 6444WAT    HW232218   5.035   2.445   0.930
 6444WAT    LP132219   5.011   2.554   1.010
 6444WAT    LP232220   4.920   2.518   0.951
 6445WAT     OW32221   2.693   4.910   0.286
 6445WAT    HW132222   2.654   4.981   0.234
 6445WAT    HW232223   2.785   4.934   0.294
 6445WAT    LP132224   2.663   4.906   0.349
 6445WAT    LP232225   2.686   4.849   0.252
 6446WAT     OW32226   2.644   3.552   5.419
 6446WAT    HW132227   2.674   3.627   5.470
 6446WAT    HW232228   2.715   3.488   5.427
 6446WAT    LP132229   2.584   3.526   5.445
 6446WAT    LP232230   2.635   3.570   5.352
 6447WAT     OW32231   1.043   4.902   4.307
 6447WAT    HW132232   0.989   4.883   4.384
 6447WAT    HW232233   0.983   4.943   4.245
 6447WAT    LP132234   1.095   4.947   4.324
 6447WAT    LP232235   1.071   4.844   4.281
 6448WAT     OW32236   1.290   5.578   0.341
 6448WAT    HW132237   1.301   5.522   0.264
 6448WAT    HW232238   1.233   5.649   0.311
 6448WAT    LP132239   1.260   5.543   0.394
 6448WAT    LP232240   1.352   5.604   0.362
 6449WAT     OW32241   3.164   3.855   2.068
 6449WAT    HW132242   3.121   3.797   2.005
 6449WAT    HW232243   3.151   3.813   2.153
 6449WAT    LP132244   3.232   3.861   2.053
 6449WAT    LP232245   3.134   3.919   2.067
 6450WAT     OW32246   3.993   0.032   3.849
 6450WAT    HW132247   4.004   0.060   3.941
 6450WAT    HW232248   4.024   0.107   3.798
 6450WAT    LP132249   4.031  -0.025   3.836
 6450WAT    LP232250   3.925   0.020   3.836
 6451WAT     OW32251   3.251   2.825   5.102
 6451WAT    HW132252   3.278   2.890   5.167
 6451WAT    HW232253   3.294   2.852   5.021
 6451WAT    LP132254   3.271   2.761   5.121
 6451WAT    LP232255   3.181   2.826   5.094
 6452WAT     OW32256   6.685   0.317   6.246
 6452WAT    HW132257   6.607   0.267   6.221
 6452WAT    HW232258   6.754   0.252   6.254
 6452WAT    LP132259   6.700   0.365   6.196
 6452WAT    LP232260   6.674   0.350   6.307
 6453WAT     OW32261   6.513   6.632   5.633
 6453WAT    HW132262   6.487   6.649   5.543
 6453WAT    HW232263   6.552   6.545   5.632
 6453WAT    LP132264   6.560   6.680   5.655
 6453WAT    LP232265   6.458   6.634   5.676
 6454WAT     OW32266   0.093   2.530   0.609
 6454WAT    HW132267   0.032   2.508   0.680
 6454WAT    HW232268   0.037   2.544   0.533
 6454WAT    LP132269   0.128   2.589   0.625
 6454WAT    LP232270   0.138   2.478   0.598
 6455WAT     OW32271   4.220   3.862   5.833
 6455WAT    HW132272   4.177   3.914   5.901
 6455WAT    HW232273   4.149   3.813   5.791
 6455WAT    LP132274   4.253   3.903   5.787
 6455WAT    LP232275   4.266   3.818   5.862
 6456WAT     OW32276   4.297   1.118   1.420
 6456WAT    HW132277   4.249   1.052   1.470
 6456WAT    HW232278   4.306   1.191   1.480
 6456WAT    LP132279   4.360   1.093   1.400
 6456WAT    LP232280   4.261   1.137   1.363
 6457WAT     OW32281   1.939   0.876   0.678
 6457WAT    HW132282   1.890   0.797   0.700
 6457WAT    HW232283   1.887   0.948   0.716
 6457WAT    LP132284   2.003   0.874   0.706
 6457WAT    LP232285   1.944   0.884   0.609
 6458WAT     OW32286   6.577   1.183   4.309
 6458WAT    HW132287   6.601   1.245   4.378
 6458WAT    HW232288   6.504   1.224   4.263
 6458WAT    LP132289   6.631   1.173   4.265
 6458WAT    LP232290   6.558   1.121   4.336
 6459WAT     OW32291   4.278   2.069   3.210
 6459WAT    HW132292   4.275   2.021   3.127
 6459WAT    HW232293   4.359   2.041   3.251
 6459WAT    LP132294   4.278   2.138   3.198
 6459WAT    LP232295   4.222   2.053   3.249
 6460WAT     OW32296   4.398   5.042   6.341
 6460WAT    HW132297   4.311   5.049   6.302
 6460WAT    HW232298   4.422   4.950   6.331
 6460WAT    LP132299   4.444   5.083   6.306
 6460WAT    LP232300   4.397   5.061   6.408
 6461WAT     OW32301   2.980   4.814   0.890
 6461WAT    HW132302   2.894   4.844   0.858
 6461WAT    HW232303   2.977   4.719   0.880
 6461WAT    LP132304   3.031   4.841   0.851
 6461WAT    LP232305   2.989   4.832   0.957
 6462WAT     OW32306   0.211   5.722   2.841
 6462WAT    HW132307   0.177   5.647   2.890
 6462WAT    HW232308   0.246   5.780   2.908
 6462WAT    LP132309   0.261   5.701   2.797
 6462WAT    LP232310   0.160   5.753   2.805
 6463WAT     OW32311   1.306   5.922   1.855
 6463WAT    HW132312   1.317   5.838   1.898
 6463WAT    HW232313   1.216   5.922   1.822
 6463WAT    LP132314   1.316   5.975   1.900
 6463WAT    LP232315   1.352   5.929   1.802
 6464WAT     OW32316   4.755   0.868   0.539
 6464WAT    HW132317   4.733   0.939   0.600
 6464WAT    HW232318   4.714   0.893   0.457
 6464WAT    LP132319   4.825   0.863   0.532
 6464WAT    LP232320   4.729   0.807   0.562
 6465WAT     OW32321   1.149   0.169   0.962
 6465WAT    HW132322   1.059   0.148   0.987
 6465WAT    HW232323   1.161   0.261   0.987
 6465WAT    LP132324   1.195   0.129   0.995
 6465WAT    LP232325   1.158   0.162   0.893
 6466WAT     OW32326   4.822   6.413   4.751
 6466WAT    HW132327   4.830   6.362   4.831
 6466WAT    HW232328   4.729   6.436   4.746
 6466WAT    LP132329   4.862   6.470   4.754
 6466WAT    LP232330   4.840   6.375   4.695
 6467WAT     OW32331   1.752   4.929   1.573
 6467WAT    HW132332   1.807   4.851   1.581
 6467WAT    HW232333   1.696   4.910   1.498
 6467WAT    LP132334   1.714   4.939   1.630
 6467WAT    LP232335   1.791   4.986   1.561
 6468WAT     OW32336   0.120   5.608   4.241
 6468WAT    HW132337   0.027   5.603   4.219
 6468WAT    HW232338   0.159   5.659   4.170
 6468WAT    LP132339   0.129   5.640   4.302
 6468WAT    LP232340   0.148   5.544   4.244
 6469WAT     OW32341   1.401   1.701   2.437
 6469WAT    HW132342   1.407   1.755   2.358
 6469WAT    HW232343   1.492   1.684   2.460
 6469WAT    LP132344   1.369   1.736   2.488
 6469WAT    LP232345   1.367   1.642   2.424
 6470WAT     OW32346   4.790   3.149   3.372
 6470WAT    HW132347   4.868   3.159   3.317
 6470WAT    HW232348   4.723   3.202   3.330
 6470WAT    LP132349   4.771   3.081   3.375
 6470WAT    LP232350   4.803   3.172   3.437
 6471WAT     OW32351   2.869   5.648   0.976
 6471WAT    HW132352   2.799   5.663   0.913
 6471WAT    HW232353   2.831   5.587   1.040
 6471WAT    LP132354   2.925   5.620   0.946
 6471WAT    LP232355   2.888   5.708   1.008
 6472WAT     OW32356   6.115   0.666   1.979
 6472WAT    HW132357   6.084   0.600   2.041
 6472WAT    HW232358   6.069   0.746   2.005
 6472WAT    LP132359   6.184   0.675   1.984
 6472WAT    LP232360   6.098   0.648   1.914
 6473WAT     OW32361   0.867   6.624   6.042
 6473WAT    HW132362   0.791   6.567   6.031
 6473WAT    HW232363   0.843   6.685   6.112
 6473WAT    LP132364   0.924   6.587   6.060
 6473WAT    LP232365   0.881   6.659   5.982
 6474WAT     OW32366   4.354   5.205   3.451
 6474WAT    HW132367   4.328   5.130   3.505
 6474WAT    HW232368   4.297   5.276   3.480
 6474WAT    LP132369   4.421   5.222   3.462
 6474WAT    LP232370   4.344   5.191   3.383
 6475WAT     OW32371   3.828   0.958   3.141
 6475WAT    HW132372   3.832   0.907   3.061
 6475WAT    HW232373   3.735   0.977   3.154
 6475WAT    LP132374   3.854   0.922   3.195
 6475WAT    LP232375   3.865   1.018   3.134
 6476WAT     OW32376   1.043   2.250   5.571
 6476WAT    HW132377   1.081   2.308   5.505
 6476WAT    HW232378   1.067   2.162   5.542
 6476WAT    LP132379   1.070   2.263   5.634
 6476WAT    LP232380   0.973   2.257   5.573
 6477WAT     OW32381   2.867   1.370   3.095
 6477WAT    HW132382   2.941   1.401   3.043
 6477WAT    HW232383   2.790   1.398   3.047
 6477WAT    LP132384   2.869   1.300   3.101
 6477WAT    LP232385   2.868   1.399   3.159
 6478WAT     OW32386   4.144   2.849   2.123
 6478WAT    HW132387   4.103   2.904   2.190
 6478WAT    HW232388   4.203   2.907   2.076
 6478WAT    LP132389   4.180   2.797   2.154
 6478WAT    LP232390   4.096   2.822   2.080
 6479WAT     OW32391   0.837   6.319   1.447
 6479WAT    HW132392   0.892   6.382   1.492
 6479WAT    HW232393   0.860   6.328   1.355
 6479WAT    LP132394   0.850   6.253   1.469
 6479WAT    LP232395   0.769   6.334   1.457
 6480WAT     OW32396   5.865   0.245   2.710
 6480WAT    HW132397   5.771   0.228   2.708
 6480WAT    HW232398   5.906   0.159   2.720
 6480WAT    LP132399   5.886   0.275   2.650
 6480WAT    LP232400   5.882   0.287   2.764
 6481WAT     OW32401   6.493   2.825   1.658
 6481WAT    HW132402   6.583   2.844   1.683
 6481WAT    HW232403   6.500   2.762   1.587
 6481WAT    LP132404   6.457   2.798   1.712
 6481WAT    LP232405   6.460   2.884   1.636
 6482WAT     OW32406   1.333   5.830   4.118
 6482WAT    HW132407   1.337   5.917   4.157
 6482WAT    HW232408   1.284   5.778   4.182
 6482WAT    LP132409   1.300   5.832   4.057
 6482WAT    LP232410   1.397   5.804   4.109
 6483WAT     OW32411   0.871   0.511   6.459
 6483WAT    HW132412   0.795   0.474   6.413
 6483WAT    HW232413   0.945   0.492   6.402
 6483WAT    LP132414   0.864   0.580   6.467
 6483WAT    LP232415   0.879   0.481   6.521
 6484WAT     OW32416   6.034   1.116   0.251
 6484WAT    HW132417   6.044   1.208   0.225
 6484WAT    HW232418   6.124   1.083   0.256
 6484WAT    LP132419   6.003   1.111   0.313
 6484WAT    LP232420   5.998   1.080   0.203
 6485WAT     OW32421   5.123   4.697   2.879
 6485WAT    HW132422   5.092   4.767   2.936
 6485WAT    HW232423   5.132   4.738   2.793
 6485WAT    LP132424   5.185   4.673   2.901
 6485WAT    LP232425   5.077   4.644   2.877
 6486WAT     OW32426   6.159   3.317   0.498
 6486WAT    HW132427   6.192   3.364   0.575
 6486WAT    HW232428   6.194   3.228   0.508
 6486WAT    LP132429   6.089   3.316   0.498
 6486WAT    LP232430   6.183   3.346   0.439
 6487WAT     OW32431   4.967   3.730   0.606
 6487WAT    HW132432   4.984   3.637   0.617
 6487WAT    HW232433   4.877   3.741   0.637
 6487WAT    LP132434   5.011   3.768   0.645
 6487WAT    LP232435   4.972   3.749   0.539
 6488WAT     OW32436   2.533   5.108   3.593
 6488WAT    HW132437   2.467   5.100   3.525
 6488WAT    HW232438   2.507   5.044   3.659
 6488WAT    LP132439   2.597   5.093   3.567
 6488WAT    LP232440   2.534   5.173   3.620
 6489WAT     OW32441   3.143   5.152   2.777
 6489WAT    HW132442   3.163   5.244   2.760
 6489WAT    HW232443   3.172   5.106   2.699
 6489WAT    LP132444   3.177   5.129   2.834
 6489WAT    LP232445   3.074   5.144   2.787
 6490WAT     OW32446   4.865   6.432   5.574
 6490WAT    HW132447   4.856   6.340   5.549
 6490WAT    HW232448   4.958   6.443   5.594
 6490WAT    LP132449   4.846   6.474   5.522
 6490WAT    LP232450   4.826   6.446   5.631
 6491WAT     OW32451   2.958   0.305   0.682
 6491WAT    HW132452   2.884   0.257   0.719
 6491WAT    HW232453   3.034   0.250   0.701
 6491WAT    LP132454   2.951   0.314   0.613
 6491WAT    LP232455   2.965   0.368   0.713
 6492WAT     OW32456   5.421   0.498   3.581
 6492WAT    HW132457   5.325   0.499   3.585
 6492WAT    HW232458   5.447   0.446   3.657
 6492WAT    LP132459   5.443   0.468   3.522
 6492WAT    LP232460   5.446   0.562   3.585
 6493WAT     OW32461   4.697   5.087   2.725
 6493WAT    HW132462   4.680   5.157   2.787
 6493WAT    HW232463   4.792   5.076   2.726
 6493WAT    LP132464   4.665   5.028   2.744
 6493WAT    LP232465   4.676   5.105   2.661
 6494WAT     OW32466   5.954   6.227   3.598
 6494WAT    HW132467   5.898   6.256   3.526
 6494WAT    HW232468   5.919   6.272   3.675
 6494WAT    LP132469   5.950   6.157   3.606
 6494WAT    LP232470   6.021   6.245   3.586
 6495WAT     OW32471   4.467   5.656   3.841
 6495WAT    HW132472   4.423   5.741   3.841
 6495WAT    HW232473   4.396   5.592   3.838
 6495WAT    LP132474   4.509   5.650   3.785
 6495WAT    LP232475   4.505   5.648   3.899
 6496WAT     OW32476   4.015   6.208   4.989
 6496WAT    HW132477   4.011   6.114   5.007
 6496WAT    HW232478   4.057   6.246   5.066
 6496WAT    LP132479   4.052   6.221   4.931
 6496WAT    LP232480   3.950   6.234   4.981
 6497WAT     OW32481   3.048   6.665   6.330
 6497WAT    HW132482   3.115   6.729   6.308
 6497WAT    HW232483   3.012   6.637   6.245
 6497WAT    LP132484   3.075   6.611   6.364
 6497WAT    LP232485   2.998   6.694   6.369
 6498WAT     OW32486   4.517   0.158   2.515
 6498WAT    HW132487   4.604   0.195   2.534
 6498WAT    HW232488   4.457   0.231   2.527
 6498WAT    LP132489   4.514   0.135   2.449
 6498WAT    LP232490   4.502   0.106   2.559
 6499WAT     OW32491   3.744   4.935   1.487
 6499WAT    HW132492   3.706   5.018   1.459
 6499WAT    HW232493   3.752   4.884   1.407
 6499WAT    LP132494   3.807   4.946   1.516
 6499WAT    LP232495   3.703   4.903   1.533
 6500WAT     OW32496   2.401   3.398   1.961
 6500WAT    HW132497   2.352   3.477   1.940
 6500WAT    HW232498   2.375   3.335   1.894
 6500WAT    LP132499   2.470   3.410   1.958
 6500WAT    LP232500   2.384   3.375   2.025
 6501WAT     OW32501   0.828   5.215   2.014
 6501WAT    HW132502   0.763   5.150   2.042
 6501WAT    HW232503   0.776   5.294   1.996
 6501WAT    LP132504   0.875   5.227   2.064
 6501WAT    LP232505   0.861   5.194   1.956
 6502WAT     OW32506   3.867   0.319   4.225
 6502WAT    HW132507   3.789   0.332   4.280
 6502WAT    HW232508   3.843   0.357   4.140
 6502WAT    LP132509   3.922   0.352   4.252
 6502WAT    LP232510   3.881   0.251   4.218
 6503WAT     OW32511   1.808   2.707   1.360
 6503WAT    HW132512   1.853   2.622   1.367
 6503WAT    HW232513   1.871   2.770   1.394
 6503WAT    LP132514   1.792   2.721   1.294
 6503WAT    LP232515   1.750   2.707   1.399
 6504WAT     OW32516   5.351   5.262   5.016
 6504WAT    HW132517   5.345   5.265   5.111
 6504WAT    HW232518   5.274   5.310   4.986
 6504WAT    LP132519   5.410   5.293   4.993
 6504WAT    LP232520   5.349   5.196   4.993
 6505WAT     OW32521   2.494   0.195   2.360
 6505WAT    HW132522   2.559   0.235   2.302
 6505WAT    HW232523   2.415   0.248   2.348
 6505WAT    LP132524   2.482   0.129   2.342
 6505WAT    LP232525   2.515   0.197   2.427
 6506WAT     OW32526   0.297   4.589   1.816
 6506WAT    HW132527   0.273   4.498   1.832
 6506WAT    HW232528   0.239   4.618   1.746
 6506WAT    LP132529   0.288   4.628   1.874
 6506WAT    LP232530   0.364   4.594   1.795
 6507WAT     OW32531   1.716   4.273   2.265
 6507WAT    HW132532   1.795   4.326   2.278
 6507WAT    HW232533   1.723   4.240   2.176
 6507WAT    LP132534   1.715   4.220   2.312
 6507WAT    LP232535   1.659   4.312   2.273
 6508WAT     OW32536   4.698   0.515   3.700
 6508WAT    HW132537   4.607   0.495   3.682
 6508WAT    HW232538   4.736   0.432   3.729
 6508WAT    LP132539   4.731   0.538   3.643
 6508WAT    LP232540   4.704   0.563   3.751
 6509WAT     OW32541   5.650   3.345   5.959
 6509WAT    HW132542   5.570   3.397   5.952
 6509WAT    HW232543   5.687   3.346   5.871
 6509WAT    LP132544   5.694   3.374   6.005
 6509WAT    LP232545   5.635   3.280   5.979
 6510WAT     OW32546   2.613   4.676   1.391
 6510WAT    HW132547   2.539   4.735   1.379
 6510WAT    HW232548   2.666   4.688   1.312
 6510WAT    LP132549   2.649   4.693   1.448
 6510WAT    LP232550   2.591   4.609   1.396
 6511WAT     OW32551   2.856   4.598   5.877
 6511WAT    HW132552   2.780   4.656   5.881
 6511WAT    HW232553   2.931   4.655   5.897
 6511WAT    LP132554   2.851   4.547   5.924
 6511WAT    LP232555   2.863   4.570   5.813
 6512WAT     OW32556   5.241   0.070   6.537
 6512WAT    HW132557   5.201   0.075   6.450
 6512WAT    HW232558   5.299   0.145   6.541
 6512WAT    LP132559   5.192   0.074   6.587
 6512WAT    LP232560   5.276   0.010   6.544
 6513WAT     OW32561   2.065   4.940   6.094
 6513WAT    HW132562   2.146   4.934   6.145
 6513WAT    HW232563   2.089   4.905   6.008
 6513WAT    LP132564   2.014   4.902   6.122
 6513WAT    LP232565   2.044   5.006   6.088
 6514WAT     OW32566   2.546   3.283   1.258
 6514WAT    HW132567   2.478   3.314   1.318
 6514WAT    HW232568   2.575   3.362   1.212
 6514WAT    LP132569   2.599   3.255   1.294
 6514WAT    LP232570   2.520   3.236   1.213
 6515WAT     OW32571   5.443   0.988   2.487
 6515WAT    HW132572   5.450   0.946   2.401
 6515WAT    HW232573   5.418   1.079   2.468
 6515WAT    LP132574   5.395   0.957   2.526
 6515WAT    LP232575   5.505   0.986   2.520
 6516WAT     OW32576   3.545   1.103   2.408
 6516WAT    HW132577   3.506   1.022   2.440
 6516WAT    HW232578   3.520   1.108   2.316
 6516WAT    LP132579   3.520   1.158   2.444
 6516WAT    LP232580   3.615   1.101   2.414
 6517WAT     OW32581   1.103   4.092   1.748
 6517WAT    HW132582   1.046   4.116   1.821
 6517WAT    HW232583   1.047   4.098   1.671
 6517WAT    LP132584   1.156   4.137   1.743
 6517WAT    LP232585   1.127   4.027   1.756
 6518WAT     OW32586   3.930   5.650   3.585
 6518WAT    HW132587   3.956   5.603   3.664
 6518WAT    HW232588   3.851   5.605   3.554
 6518WAT    LP132589   3.916   5.717   3.600
 6518WAT    LP232590   3.981   5.647   3.537
 6519WAT     OW32591   2.831   0.737   6.585
 6519WAT    HW132592   2.765   0.685   6.632
 6519WAT    HW232593   2.889   0.769   6.654
 6519WAT    LP132594   2.866   0.696   6.540
 6519WAT    LP232595   2.801   0.790   6.551
 6520WAT     OW32596   5.296   4.693   3.216
 6520WAT    HW132597   5.339   4.667   3.135
 6520WAT    HW232598   5.217   4.639   3.220
 6520WAT    LP132599   5.337   4.679   3.271
 6520WAT    LP232600   5.280   4.761   3.215
 6521WAT     OW32601   1.809   2.395   2.811
 6521WAT    HW132602   1.723   2.356   2.796
 6521WAT    HW232603   1.868   2.345   2.755
 6521WAT    LP132604   1.809   2.463   2.793
 6521WAT    LP232605   1.828   2.389   2.878
 6522WAT     OW32606   5.536   0.839   4.304
 6522WAT    HW132607   5.452   0.832   4.349
 6522WAT    HW232608   5.516   0.883   4.222
 6522WAT    LP132609   5.581   0.877   4.342
 6522WAT    LP232610   5.563   0.775   4.293
 6523WAT     OW32611   6.421   0.980   1.765
 6523WAT    HW132612   6.462   1.040   1.827
 6523WAT    HW232613   6.393   0.906   1.818
 6523WAT    LP132614   6.367   1.010   1.733
 6523WAT    LP232615   6.468   0.959   1.716
 6524WAT     OW32616   4.128   3.932   3.486
 6524WAT    HW132617   4.163   4.021   3.494
 6524WAT    HW232618   4.057   3.927   3.550
 6524WAT    LP132619   4.105   3.920   3.421
 6524WAT    LP232620   4.178   3.885   3.501
 6525WAT     OW32621   2.741   5.988   2.430
 6525WAT    HW132622   2.741   6.061   2.368
 6525WAT    HW232623   2.829   5.989   2.469
 6525WAT    LP132624   2.692   5.996   2.479
 6525WAT    LP232625   2.730   5.927   2.396
 6526WAT     OW32626   3.783   2.569   1.996
 6526WAT    HW132627   3.831   2.650   1.979
 6526WAT    HW232628   3.813   2.509   1.927
 6526WAT    LP132629   3.799   2.544   2.059
 6526WAT    LP232630   3.714   2.580   1.991
 6527WAT     OW32631   3.579   3.699   6.340
 6527WAT    HW132632   3.647   3.734   6.398
 6527WAT    HW232633   3.535   3.777   6.306
 6527WAT    LP132634   3.607   3.662   6.288
 6527WAT    LP232635   3.534   3.659   6.376
 6528WAT     OW32636   5.320   5.401   2.751
 6528WAT    HW132637   5.280   5.480   2.787
 6528WAT    HW232638   5.402   5.391   2.800
 6528WAT    LP132639   5.278   5.346   2.760
 6528WAT    LP232640   5.333   5.409   2.683
 6529WAT     OW32641   2.708   4.327   2.850
 6529WAT    HW132642   2.769   4.257   2.874
 6529WAT    HW232643   2.693   4.314   2.757
 6529WAT    LP132644   2.649   4.321   2.886
 6529WAT    LP232645   2.737   4.390   2.862
 6530WAT     OW32646   1.911   2.356   3.598
 6530WAT    HW132647   1.967   2.319   3.667
 6530WAT    HW232648   1.846   2.288   3.580
 6530WAT    LP132649   1.880   2.415   3.620
 6530WAT    LP232650   1.949   2.370   3.541
 6531WAT     OW32651   3.374   2.525   5.549
 6531WAT    HW132652   3.390   2.455   5.487
 6531WAT    HW232653   3.283   2.511   5.578
 6531WAT    LP132654   3.418   2.521   5.603
 6531WAT    LP232655   3.380   2.588   5.518
 6532WAT     OW32656   5.399   4.065   6.085
 6532WAT    HW132657   5.464   4.096   6.022
 6532WAT    HW232658   5.349   3.999   6.038
 6532WAT    LP132659   5.431   4.037   6.141
 6532WAT    LP232660   5.358   4.117   6.106
 6533WAT     OW32661   4.760   0.934   3.337
 6533WAT    HW132662   4.750   0.845   3.369
 6533WAT    HW232663   4.759   0.925   3.241
 6533WAT    LP132664   4.708   0.975   3.358
 6533WAT    LP232665   4.821   0.961   3.358
 6534WAT     OW32666   1.374   4.556   4.570
 6534WAT    HW132667   1.361   4.465   4.544
 6534WAT    HW232668   1.287   4.584   4.598
 6534WAT    LP132669   1.419   4.560   4.623
 6534WAT    LP232670   1.396   4.594   4.516
 6535WAT     OW32671   2.265   6.281   6.431
 6535WAT    HW132672   2.310   6.356   6.395
 6535WAT    HW232673   2.306   6.267   6.517
 6535WAT    LP132674   2.196   6.294   6.439
 6535WAT    LP232675   2.273   6.225   6.390
 6536WAT     OW32676   2.105   6.181   3.397
 6536WAT    HW132677   2.128   6.245   3.464
 6536WAT    HW232678   2.142   6.217   3.316
 6536WAT    LP132679   2.133   6.119   3.412
 6536WAT    LP232680   2.035   6.175   3.392
 6537WAT     OW32681   4.440   1.796   4.876
 6537WAT    HW132682   4.473   1.706   4.873
 6537WAT    HW232683   4.511   1.849   4.840
 6537WAT    LP132684   4.382   1.802   4.836
 6537WAT    LP232685   4.425   1.815   4.941
 6538WAT     OW32686   5.031   0.852   2.643
 6538WAT    HW132687   5.020   0.947   2.644
 6538WAT    HW232688   5.124   0.838   2.658
 6538WAT    LP132689   4.993   0.822   2.694
 6538WAT    LP232690   5.011   0.825   2.581
 6539WAT     OW32691   3.981   5.233   3.475
 6539WAT    HW132692   3.909   5.262   3.418
 6539WAT    HW232693   3.997   5.142   3.448
 6539WAT    LP132694   4.038   5.272   3.465
 6539WAT    LP232695   3.962   5.236   3.542
 6540WAT     OW32696   4.626   0.129   0.754
 6540WAT    HW132697   4.584   0.116   0.839
 6540WAT    HW232698   4.669   0.214   0.762
 6540WAT    LP132699   4.672   0.078   0.742
 6540WAT    LP232700   4.578   0.130   0.703
 6541WAT     OW32701   3.114   3.047   6.124
 6541WAT    HW132702   3.162   3.128   6.106
 6541WAT    HW232703   3.174   2.977   6.097
 6541WAT    LP132704   3.099   3.042   6.192
 6541WAT    LP232705   3.055   3.044   6.087
 6542WAT     OW32706   2.746   3.814   4.547
 6542WAT    HW132707   2.747   3.719   4.550
 6542WAT    HW232708   2.665   3.839   4.593
 6542WAT    LP132709   2.802   3.841   4.580
 6542WAT    LP232710   2.745   3.837   4.481
 6543WAT     OW32711   4.994   3.368   4.621
 6543WAT    HW132712   5.076   3.395   4.662
 6543WAT    HW232713   5.000   3.401   4.531
 6543WAT    LP132714   4.988   3.298   4.621
 6543WAT    LP232715   4.939   3.396   4.654
 6544WAT     OW32716   1.434   4.626   6.153
 6544WAT    HW132717   1.411   4.591   6.066
 6544WAT    HW232718   1.389   4.568   6.214
 6544WAT    LP132719   1.503   4.623   6.163
 6544WAT    LP232720   1.412   4.692   6.160
 6545WAT     OW32721   4.687   5.113   4.751
 6545WAT    HW132722   4.655   5.159   4.674
 6545WAT    HW232723   4.717   5.028   4.719
 6545WAT    LP132724   4.739   5.148   4.781
 6545WAT    LP232725   4.635   5.104   4.798
 6546WAT     OW32726   6.420   5.623   5.877
 6546WAT    HW132727   6.378   5.539   5.862
 6546WAT    HW232728   6.357   5.673   5.929
 6546WAT    LP132729   6.480   5.615   5.913
 6546WAT    LP232730   6.434   5.656   5.817
 6547WAT     OW32731   6.672   2.714   6.335
 6547WAT    HW132732   6.578   2.708   6.353
 6547WAT    HW232733   6.678   2.767   6.256
 6547WAT    LP132734   6.705   2.745   6.388
 6547WAT    LP232735   6.699   2.650   6.325
 6548WAT     OW32736   5.094   0.197   3.794
 6548WAT    HW132737   5.145   0.256   3.850
 6548WAT    HW232738   5.130   0.110   3.812
 6548WAT    LP132739   5.026   0.199   3.811
 6548WAT    LP232740   5.102   0.213   3.727
 6549WAT     OW32741   0.109   1.202   3.015
 6549WAT    HW132742   0.075   1.227   2.929
 6549WAT    HW232743   0.157   1.279   3.046
 6549WAT    LP132744   0.056   1.186   3.059
 6549WAT    LP232745   0.152   1.147   3.010
 6550WAT     OW32746   5.512   0.606   3.123
 6550WAT    HW132747   5.533   0.569   3.208
 6550WAT    HW232748   5.576   0.676   3.110
 6550WAT    LP132749   5.517   0.558   3.072
 6550WAT    LP232750   5.447   0.632   3.123
 6551WAT     OW32751   0.495   4.537   0.573
 6551WAT    HW132752   0.496   4.495   0.487
 6551WAT    HW232753   0.552   4.483   0.627
 6551WAT    LP132754   0.519   4.603   0.569
 6551WAT    LP232755   0.430   4.538   0.600
 6552WAT     OW32756   0.536   2.316   5.900
 6552WAT    HW132757   0.512   2.310   5.993
 6552WAT    HW232758   0.631   2.331   5.901
 6552WAT    LP132759   0.520   2.257   5.866
 6552WAT    LP232760   0.503   2.370   5.870
 6553WAT     OW32761   0.143   3.227   6.430
 6553WAT    HW132762   0.193   3.151   6.400
 6553WAT    HW232763   0.113   3.203   6.518
 6553WAT    LP132764   0.182   3.284   6.432
 6553WAT    LP232765   0.088   3.238   6.387
 6554WAT     OW32766   3.300   1.110   0.534
 6554WAT    HW132767   3.286   1.202   0.512
 6554WAT    HW232768   3.288   1.064   0.451
 6554WAT    LP132769   3.365   1.100   0.558
 6554WAT    LP232770   3.254   1.088   0.581
 6555WAT     OW32771   1.231   3.626   3.038
 6555WAT    HW132772   1.232   3.632   2.942
 6555WAT    HW232773   1.175   3.551   3.056
 6555WAT    LP132774   1.295   3.616   3.063
 6555WAT    LP232775   1.203   3.685   3.066
 6556WAT     OW32776   3.253   2.370   2.935
 6556WAT    HW132777   3.161   2.385   2.956
 6556WAT    HW232778   3.301   2.411   3.006
 6556WAT    LP132779   3.266   2.301   2.931
 6556WAT    LP232780   3.269   2.400   2.873
 6557WAT     OW32781   6.619   3.043   3.324
 6557WAT    HW132782   6.612   3.094   3.405
 6557WAT    HW232783   6.667   2.964   3.350
 6557WAT    LP132784   6.556   3.027   3.299
 6557WAT    LP232785   6.655   3.079   3.276
 6558WAT     OW32786   6.622   1.195   1.498
 6558WAT    HW132787   6.699   1.149   1.531
 6558WAT    HW232788   6.601   1.258   1.567
 6558WAT    LP132789   6.636   1.228   1.438
 6558WAT    LP232790   6.569   1.151   1.488
 6559WAT     OW32791   4.114   0.998   2.091
 6559WAT    HW132792   4.161   0.922   2.125
 6559WAT    HW232793   4.168   1.029   2.019
 6559WAT    LP132794   4.050   0.981   2.068
 6559WAT    LP232795   4.108   1.047   2.141
 6560WAT     OW32796   5.626   3.892   4.560
 6560WAT    HW132797   5.554   3.841   4.596
 6560WAT    HW232798   5.674   3.924   4.637
 6560WAT    LP132799   5.667   3.852   4.520
 6560WAT    LP232800   5.601   3.946   4.523
 6561WAT     OW32801   1.269   1.000   2.615
 6561WAT    HW132802   1.305   1.000   2.526
 6561WAT    HW232803   1.251   1.092   2.634
 6561WAT    LP132804   1.211   0.962   2.618
 6561WAT    LP232805   1.316   0.974   2.660
 6562WAT     OW32806   4.490   6.118   2.153
 6562WAT    HW132807   4.423   6.077   2.098
 6562WAT    HW232808   4.528   6.186   2.098
 6562WAT    LP132809   4.461   6.145   2.210
 6562WAT    LP232810   4.538   6.071   2.171
 6563WAT     OW32811   1.776   5.570   2.934
 6563WAT    HW132812   1.719   5.525   2.996
 6563WAT    HW232813   1.747   5.541   2.848
 6563WAT    LP132814   1.770   5.639   2.941
 6563WAT    LP232815   1.843   5.551   2.945
 6564WAT     OW32816   3.474   2.755   0.279
 6564WAT    HW132817   3.404   2.717   0.226
 6564WAT    HW232818   3.512   2.680   0.326
 6564WAT    LP132819   3.523   2.785   0.238
 6564WAT    LP232820   3.449   2.802   0.324
 6565WAT     OW32821   0.210   4.091   2.425
 6565WAT    HW132822   0.176   4.051   2.344
 6565WAT    HW232823   0.222   4.183   2.403
 6565WAT    LP132824   0.163   4.084   2.477
 6565WAT    LP232825   0.270   4.062   2.444
 6566WAT     OW32826   6.342   1.673   6.582
 6566WAT    HW132827   6.396   1.642   6.509
 6566WAT    HW232828   6.267   1.714   6.540
 6566WAT    LP132829   6.322   1.619   6.622
 6566WAT    LP232830   6.377   1.720   6.621
 6567WAT     OW32831   3.998   2.222   6.251
 6567WAT    HW132832   3.994   2.139   6.297
 6567WAT    HW232833   3.994   2.199   6.158
 6567WAT    LP132834   3.944   2.263   6.268
 6567WAT    LP232835   4.058   2.255   6.265
 6568WAT     OW32836   2.636   2.071   0.826
 6568WAT    HW132837   2.727   2.086   0.800
 6568WAT    HW232838   2.587   2.071   0.745
 6568WAT    LP132839   2.630   2.009   0.859
 6568WAT    LP232840   2.614   2.122   0.869
 6569WAT     OW32841   6.128   3.076   4.917
 6569WAT    HW132842   6.214   3.062   4.878
 6569WAT    HW232843   6.094   3.153   4.871
 6569WAT    LP132844   6.087   3.021   4.907
 6569WAT    LP232845   6.134   3.089   4.985
 6570WAT     OW32846   0.440   1.890   2.829
 6570WAT    HW132847   0.351   1.885   2.865
 6570WAT    HW232848   0.491   1.831   2.885
 6570WAT    LP132849   0.441   1.868   2.763
 6570WAT    LP232850   0.464   1.955   2.833
 6571WAT     OW32851   2.375   1.502   2.191
 6571WAT    HW132852   2.469   1.502   2.173
 6571WAT    HW232853   2.347   1.591   2.170
 6571WAT    LP132854   2.342   1.455   2.151
 6571WAT    LP232855   2.363   1.487   2.259
 6572WAT     OW32856   3.207   2.458   4.417
 6572WAT    HW132857   3.163   2.502   4.489
 6572WAT    HW232858   3.248   2.381   4.457
 6572WAT    LP132859   3.161   2.439   4.368
 6572WAT    LP232860   3.256   2.499   4.389
 6573WAT     OW32861   3.364   4.808   0.615
 6573WAT    HW132862   3.377   4.809   0.521
 6573WAT    HW232863   3.337   4.718   0.635
 6573WAT    LP132864   3.424   4.824   0.649
 6573WAT    LP232865   3.314   4.854   0.634
 6574WAT     OW32866   0.023   6.117   5.876
 6574WAT    HW132867  -0.033   6.193   5.890
 6574WAT    HW232868   0.069   6.135   5.794
 6574WAT    LP132869   0.068   6.109   5.929
 6574WAT    LP232870  -0.016   6.059   5.870
 6575WAT     OW32871   2.431   5.832   0.784
 6575WAT    HW132872   2.397   5.805   0.699
 6575WAT    HW232873   2.354   5.832   0.842
 6575WAT    LP132874   2.478   5.786   0.807
 6575WAT    LP232875   2.459   5.896   0.781
 6576WAT     OW32876   0.418   0.581   4.569
 6576WAT    HW132877   0.423   0.629   4.651
 6576WAT    HW232878   0.497   0.607   4.521
 6576WAT    LP132879   0.418   0.512   4.580
 6576WAT    LP232880   0.361   0.599   4.532
 6577WAT     OW32881   1.949   6.005   2.270
 6577WAT    HW132882   1.951   6.089   2.316
 6577WAT    HW232883   2.027   5.959   2.299
 6577WAT    LP132884   1.891   5.969   2.287
 6577WAT    LP232885   1.950   6.015   2.200
 6578WAT     OW32886   2.619   4.453   4.240
 6578WAT    HW132887   2.552   4.490   4.298
 6578WAT    HW232888   2.698   4.450   4.293
 6578WAT    LP132889   2.601   4.389   4.218
 6578WAT    LP232890   2.628   4.495   4.184
 6579WAT     OW32891   0.971   3.778   5.310
 6579WAT    HW132892   0.964   3.863   5.267
 6579WAT    HW232893   0.887   3.735   5.294
 6579WAT    LP132894   1.024   3.741   5.284
 6579WAT    LP232895   0.981   3.787   5.379
 6580WAT     OW32896   6.777   3.589   0.297
 6580WAT    HW132897   6.864   3.628   0.309
 6580WAT    HW232898   6.743   3.633   0.219
 6580WAT    LP132899   6.782   3.520   0.287
 6580WAT    LP232900   6.737   3.602   0.352
 6581WAT     OW32901   3.858   5.743   2.427
 6581WAT    HW132902   3.892   5.686   2.358
 6581WAT    HW232903   3.852   5.687   2.504
 6581WAT    LP132904   3.902   5.796   2.438
 6581WAT    LP232905   3.795   5.768   2.410
 6582WAT     OW32906   0.125   6.435   5.627
 6582WAT    HW132907   0.155   6.513   5.579
 6582WAT    HW232908   0.030   6.440   5.622
 6582WAT    LP132909   0.149   6.377   5.596
 6582WAT    LP232910   0.147   6.437   5.693
 6583WAT     OW32911   3.832   2.500   2.255
 6583WAT    HW132912   3.884   2.420   2.257
 6583WAT    HW232913   3.819   2.518   2.162
 6583WAT    LP132914   3.771   2.491   2.288
 6583WAT    LP232915   3.868   2.553   2.286
 6584WAT     OW32916   2.243   1.754   1.018
 6584WAT    HW132917   2.252   1.749   1.113
 6584WAT    HW232918   2.327   1.721   0.985
 6584WAT    LP132919   2.191   1.714   0.996
 6584WAT    LP232920   2.233   1.820   0.998
 6585WAT     OW32921   3.255   4.334   3.507
 6585WAT    HW132922   3.208   4.418   3.508
 6585WAT    HW232923   3.187   4.268   3.519
 6585WAT    LP132924   3.288   4.325   3.446
 6585WAT    LP232925   3.302   4.331   3.560
 6586WAT     OW32926   0.790   4.453   0.260
 6586WAT    HW132927   0.755   4.374   0.302
 6586WAT    HW232928   0.779   4.438   0.167
 6586WAT    LP132929   0.753   4.509   0.281
 6586WAT    LP232930   0.857   4.462   0.277
 6587WAT     OW32931   2.745   1.419   4.753
 6587WAT    HW132932   2.772   1.337   4.793
 6587WAT    HW232933   2.803   1.429   4.677
 6587WAT    LP132934   2.678   1.416   4.732
 6587WAT    LP232935   2.753   1.473   4.797
 6588WAT     OW32936   4.356   4.775   2.817
 6588WAT    HW132937   4.448   4.799   2.816
 6588WAT    HW232938   4.309   4.856   2.800
 6588WAT    LP132939   4.342   4.727   2.768
 6588WAT    LP232940   4.338   4.749   2.880
 6589WAT     OW32941   0.273   3.481   3.833
 6589WAT    HW132942   0.315   3.490   3.748
 6589WAT    HW232943   0.202   3.418   3.819
 6589WAT    LP132944   0.318   3.458   3.881
 6589WAT    LP232945   0.247   3.543   3.855
 6590WAT     OW32946   4.431   5.113   6.601
 6590WAT    HW132947   4.417   5.092   6.509
 6590WAT    HW232948   4.496   5.050   6.631
 6590WAT    LP132949   4.455   5.179   6.609
 6590WAT    LP232950   4.371   5.106   6.638
 6591WAT     OW32951   0.696   5.879   1.470
 6591WAT    HW132952   0.790   5.894   1.471
 6591WAT    HW232953   0.665   5.922   1.391
 6591WAT    LP132954   0.682   5.810   1.468
 6591WAT    LP232955   0.666   5.907   1.527
 6592WAT     OW32956   6.716   4.033   3.808
 6592WAT    HW132957   6.731   3.956   3.863
 6592WAT    HW232958   6.672   4.095   3.866
 6592WAT    LP132959   6.776   4.059   3.785
 6592WAT    LP232960   6.674   4.017   3.754
 6593WAT     OW32961   1.761   3.188   0.894
 6593WAT    HW132962   1.741   3.095   0.904
 6593WAT    HW232963   1.831   3.191   0.828
 6593WAT    LP132964   1.705   3.223   0.871
 6593WAT    LP232965   1.783   3.215   0.954
 6594WAT     OW32966   3.189   6.560   2.208
 6594WAT    HW132967   3.180   6.594   2.297
 6594WAT    HW232968   3.264   6.606   2.172
 6594WAT    LP132969   3.200   6.491   2.209
 6594WAT    LP232970   3.131   6.574   2.170
 6595WAT     OW32971   2.894   5.560   0.396
 6595WAT    HW132972   2.837   5.498   0.350
 6595WAT    HW232973   2.956   5.505   0.444
 6595WAT    LP132974   2.928   5.601   0.350
 6595WAT    LP232975   2.857   5.600   0.440
 6596WAT     OW32976   6.586   4.175   5.934
 6596WAT    HW132977   6.509   4.186   5.879
 6596WAT    HW232978   6.562   4.104   5.995
 6596WAT    LP132979   6.642   4.157   5.896
 6596WAT    LP232980   6.600   4.234   5.970
 6597WAT     OW32981   5.477   6.361   4.795
 6597WAT    HW132982   5.518   6.338   4.878
 6597WAT    HW232983   5.385   6.338   4.806
 6597WAT    LP132984   5.484   6.430   4.782
 6597WAT    LP232985   5.506   6.325   4.742
 6598WAT     OW32986   4.718   2.099   0.115
 6598WAT    HW132987   4.739   2.048   0.193
 6598WAT    HW232988   4.639   2.147   0.137
 6598WAT    LP132989   4.771   2.143   0.099
 6598WAT    LP232990   4.707   2.056   0.060
 6599WAT     OW32991   5.280   5.433   3.965
 6599WAT    HW132992   5.350   5.412   4.027
 6599WAT    HW232993   5.229   5.501   4.009
 6599WAT    LP132994   5.306   5.456   3.904
 6599WAT    LP232995   5.240   5.376   3.953
 6600WAT     OW32996   1.568   2.397   0.576
 6600WAT    HW132997   1.504   2.326   0.578
 6600WAT    HW232998   1.531   2.465   0.632
 6600WAT    LP132999   1.630   2.375   0.600
 6600WAT    LP233000   1.576   2.420   0.510
 6601WAT     OW33001   0.808   4.167   6.075
 6601WAT    HW133002   0.838   4.080   6.047
 6601WAT    HW233003   0.845   4.227   6.011
 6601WAT    LP133004   0.739   4.170   6.075
 6601WAT    LP233005   0.832   4.182   6.139
 6602WAT     OW33006   5.995   5.317   0.594
 6602WAT    HW133007   6.058   5.253   0.629
 6602WAT    HW233008   5.910   5.283   0.622
 6602WAT    LP133009   6.007   5.380   0.621
 6602WAT    LP233010   5.999   5.320   0.525
 6603WAT     OW33011   3.937   6.258   2.854
 6603WAT    HW133012   3.980   6.300   2.929
 6603WAT    HW233013   4.007   6.248   2.789
 6603WAT    LP133014   3.911   6.196   2.873
 6603WAT    LP233015   3.886   6.298   2.830
 6604WAT     OW33016   0.688   2.069   3.671
 6604WAT    HW133017   0.731   1.986   3.649
 6604WAT    HW233018   0.755   2.119   3.717
 6604WAT    LP133019   0.667   2.102   3.613
 6604WAT    LP233020   0.632   2.057   3.712
 6605WAT     OW33021   1.513   3.973   3.128
 6605WAT    HW133022   1.428   4.012   3.110
 6605WAT    HW233023   1.493   3.889   3.169
 6605WAT    LP133024   1.549   3.964   3.069
 6605WAT    LP233025   1.550   4.014   3.172
 6606WAT     OW33026   5.635   5.290   3.138
 6606WAT    HW133027   5.558   5.287   3.195
 6606WAT    HW233028   5.684   5.210   3.159
 6606WAT    LP133029   5.616   5.290   3.071
 6606WAT    LP233030   5.674   5.346   3.152
 6607WAT     OW33031   0.775   1.541   3.268
 6607WAT    HW133032   0.715   1.513   3.199
 6607WAT    HW233033   0.840   1.471   3.273
 6607WAT    LP133034   0.806   1.602   3.250
 6607WAT    LP233035   0.742   1.548   3.329
 6608WAT     OW33036   2.245   1.788   4.869
 6608WAT    HW133037   2.331   1.793   4.911
 6608WAT    HW233038   2.186   1.759   4.938
 6608WAT    LP133039   2.225   1.851   4.845
 6608WAT    LP233040   2.246   1.742   4.816
 6609WAT     OW33041   5.787   2.487   4.724
 6609WAT    HW133042   5.825   2.516   4.807
 6609WAT    HW233043   5.803   2.560   4.664
 6609WAT    LP133044   5.819   2.429   4.701
 6609WAT    LP233045   5.719   2.475   4.730
 6610WAT     OW33046   4.248   3.906   0.735
 6610WAT    HW133047   4.317   3.972   0.721
 6610WAT    HW233048   4.171   3.957   0.761
 6610WAT    LP133049   4.236   3.871   0.676
 6610WAT    LP233050   4.267   3.862   0.785
 6611WAT     OW33051   3.263   5.100   1.141
 6611WAT    HW133052   3.189   5.038   1.139
 6611WAT    HW233053   3.247   5.159   1.068
 6611WAT    LP133054   3.264   5.135   1.202
 6611WAT    LP233055   3.324   5.066   1.133
 6612WAT     OW33056   6.209   5.585   1.297
 6612WAT    HW133057   6.137   5.637   1.332
 6612WAT    HW233058   6.249   5.641   1.230
 6612WAT    LP133059   6.256   5.570   1.347
 6612WAT    LP233060   6.185   5.526   1.269
 6613WAT     OW33061   5.175   6.561   1.833
 6613WAT    HW133062   5.234   6.636   1.838
 6613WAT    HW233063   5.096   6.590   1.879
 6613WAT    LP133064   5.160   6.546   1.766
 6613WAT    LP233065   5.203   6.505   1.864
 6614WAT     OW33066   3.712   4.035   4.775
 6614WAT    HW133067   3.782   4.016   4.839
 6614WAT    HW233068   3.675   3.949   4.754
 6614WAT    LP133069   3.664   4.077   4.804
 6614WAT    LP233070   3.739   4.066   4.718
 6615WAT     OW33071   1.996   6.120   2.645
 6615WAT    HW133072   2.079   6.160   2.671
 6615WAT    HW233073   1.979   6.156   2.558
 6615WAT    LP133074   2.001   6.051   2.643
 6615WAT    LP233075   1.945   6.138   2.690
 6616WAT     OW33076   1.181   0.152   4.406
 6616WAT    HW133077   1.123   0.077   4.411
 6616WAT    HW233078   1.253   0.123   4.349
 6616WAT    LP133079   1.148   0.207   4.377
 6616WAT    LP233080   1.205   0.170   4.469
 6617WAT     OW33081   0.522   6.659   1.085
 6617WAT    HW133082   0.489   6.743   1.118
 6617WAT    HW233083   0.562   6.618   1.162
 6617WAT    LP133084   0.469   6.620   1.061
 6617WAT    LP233085   0.569   6.669   1.035
 6618WAT     OW33086   2.001   4.997   0.774
 6618WAT    HW133087   2.052   5.070   0.808
 6618WAT    HW233088   2.064   4.926   0.761
 6618WAT    LP133089   1.952   4.977   0.820
 6618WAT    LP233090   1.970   5.014   0.713
 6619WAT     OW33091   2.032   0.191   6.251
 6619WAT    HW133092   1.945   0.229   6.245
 6619WAT    HW233093   2.091   0.266   6.259
 6619WAT    LP133094   2.038   0.150   6.308
 6619WAT    LP233095   2.047   0.154   6.194
 6620WAT     OW33096   2.008   4.732   5.280
 6620WAT    HW133097   1.917   4.755   5.299
 6620WAT    HW233098   2.009   4.711   5.187
 6620WAT    LP133099   2.051   4.786   5.294
 6620WAT    LP233100   2.028   4.677   5.318
 6621WAT     OW33101   6.676   3.378   4.989
 6621WAT    HW133102   6.730   3.447   5.028
 6621WAT    HW233103   6.713   3.364   4.902
 6621WAT    LP133104   6.681   3.319   5.027
 6621WAT    LP233105   6.609   3.398   4.985
 6622WAT     OW33106   4.290   1.663   2.110
 6622WAT    HW133107   4.336   1.622   2.037
 6622WAT    HW233108   4.197   1.646   2.093
 6622WAT    LP133109   4.310   1.634   2.171
 6622WAT    LP233110   4.302   1.731   2.112
 6623WAT     OW33111   0.036   1.043   5.759
 6623WAT    HW133112   0.036   1.134   5.727
 6623WAT    HW233113   0.112   1.037   5.816
 6623WAT    LP133114  -0.023   1.030   5.794
 6623WAT    LP233115   0.041   0.998   5.705
 6624WAT     OW33116   6.424   3.862   0.757
 6624WAT    HW133117   6.401   3.922   0.687
 6624WAT    HW233118   6.502   3.901   0.797
 6624WAT    LP133119   6.372   3.856   0.804
 6624WAT    LP233120   6.439   3.798   0.731
 6625WAT     OW33121   0.863   3.171   2.902
 6625WAT    HW133122   0.934   3.222   2.864
 6625WAT    HW233123   0.907   3.098   2.946
 6625WAT    LP133124   0.827   3.209   2.948
 6625WAT    LP233125   0.819   3.147   2.853
 6626WAT     OW33126   0.961   2.299   2.126
 6626WAT    HW133127   0.981   2.308   2.033
 6626WAT    HW233128   0.900   2.371   2.145
 6626WAT    LP133129   0.930   2.237   2.139
 6626WAT    LP233130   1.019   2.305   2.165
 6627WAT     OW33131   4.634   4.698   4.891
 6627WAT    HW133132   4.708   4.759   4.889
 6627WAT    HW233133   4.619   4.681   4.984
 6627WAT    LP133134   4.578   4.728   4.862
 6627WAT    LP233135   4.650   4.639   4.857
 6628WAT     OW33136   2.348   6.651   2.803
 6628WAT    HW133137   2.270   6.703   2.816
 6628WAT    HW233138   2.399   6.698   2.737
 6628WAT    LP133139   2.385   6.645   2.862
 6628WAT    LP233140   2.332   6.587   2.779
 6629WAT     OW33141   1.860   0.997   5.669
 6629WAT    HW133142   1.791   1.040   5.618
 6629WAT    HW233143   1.856   1.040   5.755
 6629WAT    LP133144   1.848   0.929   5.674
 6629WAT    LP233145   1.922   1.008   5.639
 6630WAT     OW33146   5.567   1.865   4.106
 6630WAT    HW133147   5.546   1.945   4.154
 6630WAT    HW233148   5.571   1.893   4.014
 6630WAT    LP133149   5.628   1.838   4.126
 6630WAT    LP233150   5.516   1.817   4.114
 6631WAT     OW33151   6.120   4.142   5.470
 6631WAT    HW133152   6.213   4.119   5.473
 6631WAT    HW233153   6.118   4.229   5.430
 6631WAT    LP133154   6.085   4.096   5.431
 6631WAT    LP233155   6.092   4.144   5.534
 6632WAT     OW33156   1.239   5.306   5.756
 6632WAT    HW133157   1.317   5.331   5.805
 6632WAT    HW233158   1.237   5.211   5.761
 6632WAT    LP133159   1.182   5.334   5.785
 6632WAT    LP233160   1.244   5.327   5.689
 6633WAT     OW33161   5.900   3.846   3.233
 6633WAT    HW133162   5.889   3.759   3.272
 6633WAT    HW233163   5.811   3.881   3.229
 6633WAT    LP133164   5.941   3.886   3.273
 6633WAT    LP233165   5.927   3.841   3.169
 6634WAT     OW33166   0.713   1.310   1.274
 6634WAT    HW133167   0.621   1.299   1.247
 6634WAT    HW233168   0.733   1.401   1.256
 6634WAT    LP133169   0.720   1.296   1.342
 6634WAT    LP233170   0.754   1.267   1.237
 6635WAT     OW33171   2.327   1.096   0.557
 6635WAT    HW133172   2.302   1.184   0.587
 6635WAT    HW233173   2.327   1.103   0.461
 6635WAT    LP133174   2.391   1.080   0.580
 6635WAT    LP233175   2.281   1.048   0.578
 6636WAT     OW33176   1.492   5.847   3.507
 6636WAT    HW133177   1.583   5.836   3.481
 6636WAT    HW233178   1.496   5.913   3.577
 6636WAT    LP133179   1.453   5.870   3.454
 6636WAT    LP233180   1.466   5.787   3.532
 6637WAT     OW33181   1.072   4.904   0.092
 6637WAT    HW133182   1.046   4.858   0.012
 6637WAT    HW233183   1.047   4.995   0.078
 6637WAT    LP133184   1.039   4.877   0.148
 6637WAT    LP233185   1.141   4.898   0.102
 6638WAT     OW33186   4.186   5.732   5.136
 6638WAT    HW133187   4.125   5.803   5.117
 6638WAT    HW233188   4.235   5.720   5.055
 6638WAT    LP133189   4.228   5.749   5.189
 6638WAT    LP233190   4.151   5.674   5.153
 6639WAT     OW33191   1.883   2.287   4.012
 6639WAT    HW133192   1.789   2.274   4.020
 6639WAT    HW233193   1.898   2.377   4.040
 6639WAT    LP133194   1.918   2.242   4.052
 6639WAT    LP233195   1.903   2.279   3.945
 6640WAT     OW33196   5.770   4.907   1.063
 6640WAT    HW133197   5.854   4.903   1.109
 6640WAT    HW233198   5.776   4.835   0.999
 6640WAT    LP133199   5.717   4.897   1.106
 6640WAT    LP233200   5.763   4.968   1.030
 6641WAT     OW33201   1.207   6.423   2.428
 6641WAT    HW133202   1.165   6.341   2.404
 6641WAT    HW233203   1.148   6.491   2.398
 6641WAT    LP133204   1.216   6.427   2.498
 6641WAT    LP233205   1.270   6.429   2.397
 6642WAT     OW33206   3.079   5.025   3.424
 6642WAT    HW133207   3.138   4.952   3.406
 6642WAT    HW233208   2.997   5.001   3.381
 6642WAT    LP133209   3.069   5.033   3.493
 6642WAT    LP233210   3.104   5.084   3.397
 6643WAT     OW33211   4.820   4.286   4.052
 6643WAT    HW133212   4.769   4.251   3.979
 6643WAT    HW233213   4.884   4.218   4.072
 6643WAT    LP133214   4.852   4.345   4.034
 6643WAT    LP233215   4.779   4.298   4.108
 6644WAT     OW33216   0.918   5.143   0.653
 6644WAT    HW133217   0.945   5.167   0.742
 6644WAT    HW233218   0.909   5.048   0.656
 6644WAT    LP133219   0.856   5.173   0.638
 6644WAT    LP233220   0.965   5.163   0.606
 6645WAT     OW33221   4.244   2.499   4.917
 6645WAT    HW133222   4.260   2.589   4.888
 6645WAT    HW233223   4.329   2.469   4.951
 6645WAT    LP133224   4.195   2.497   4.967
 6645WAT    LP233225   4.224   2.459   4.863
 6646WAT     OW33226   6.317   6.544   0.025
 6646WAT    HW133227   6.322   6.482   0.097
 6646WAT    HW233228   6.321   6.490  -0.054
 6646WAT    LP133229   6.256   6.579   0.027
 6646WAT    LP233230   6.370   6.589   0.027
 6647WAT     OW33231   2.375   2.746   5.102
 6647WAT    HW133232   2.456   2.782   5.067
 6647WAT    HW233233   2.370   2.780   5.192
 6647WAT    LP133234   2.320   2.768   5.065
 6647WAT    LP233235   2.377   2.676   5.102
 6648WAT     OW33236   3.085   4.792   4.473
 6648WAT    HW133237   3.001   4.747   4.471
 6648WAT    HW233238   3.063   4.884   4.457
 6648WAT    LP133239   3.116   4.785   4.535
 6648WAT    LP233240   3.128   4.768   4.423
 6649WAT     OW33241   6.231   2.836   1.751
 6649WAT    HW133242   6.325   2.835   1.732
 6649WAT    HW233243   6.190   2.802   1.672
 6649WAT    LP133244   6.216   2.795   1.806
 6649WAT    LP233245   6.209   2.901   1.764
 6650WAT     OW33246   0.371   2.931   2.417
 6650WAT    HW133247   0.417   2.847   2.426
 6650WAT    HW233248   0.287   2.908   2.378
 6650WAT    LP133249   0.363   2.961   2.479
 6650WAT    LP233250   0.407   2.974   2.375
 6651WAT     OW33251   3.347   2.515   3.177
 6651WAT    HW133252   3.381   2.605   3.179
 6651WAT    HW233253   3.295   2.507   3.257
 6651WAT    LP133254   3.308   2.505   3.120
 6651WAT    LP233255   3.400   2.469   3.177
 6652WAT     OW33256   4.008   4.686   3.043
 6652WAT    HW133257   4.058   4.653   3.118
 6652WAT    HW233258   4.020   4.619   2.975
 6652WAT    LP133259   3.940   4.692   3.059
 6652WAT    LP233260   4.032   4.748   3.022
 6653WAT     OW33261   3.594   3.198   0.633
 6653WAT    HW133262   3.639   3.116   0.610
 6653WAT    HW233263   3.617   3.258   0.562
 6653WAT    LP133264   3.525   3.188   0.636
 6653WAT    LP233265   3.617   3.222   0.695
 6654WAT     OW33266   0.866   6.117   1.192
 6654WAT    HW133267   0.894   6.048   1.132
 6654WAT    HW233268   0.777   6.092   1.218
 6654WAT    LP133269   0.908   6.120   1.248
 6654WAT    LP233270   0.865   6.179   1.160
 6655WAT     OW33271   0.598   2.513   6.222
 6655WAT    HW133272   0.555   2.430   6.204
 6655WAT    HW233273   0.689   2.500   6.193
 6655WAT    LP133274   0.568   2.565   6.185
 6655WAT    LP233275   0.596   2.529   6.290
 6656WAT     OW33276   0.450   0.948   0.868
 6656WAT    HW133277   0.470   1.023   0.813
 6656WAT    HW233278   0.530   0.895   0.867
 6656WAT    LP133279   0.434   0.968   0.933
 6656WAT    LP233280   0.396   0.911   0.841
 6657WAT     OW33281   2.200   2.901   3.281
 6657WAT    HW133282   2.201   2.817   3.237
 6657WAT    HW233283   2.273   2.897   3.343
 6657WAT    LP133284   2.210   2.953   3.235
 6657WAT    LP233285   2.140   2.911   3.314
 6658WAT     OW33286   6.451   4.026   6.438
 6658WAT    HW133287   6.526   4.082   6.419
 6658WAT    HW233288   6.378   4.066   6.391
 6658WAT    LP133289   6.462   3.961   6.414
 6658WAT    LP233290   6.438   4.023   6.506
 6659WAT     OW33291   6.068   5.397   1.149
 6659WAT    HW133292   6.130   5.452   1.197
 6659WAT    HW233293   6.122   5.347   1.088
 6659WAT    LP133294   6.034   5.353   1.192
 6659WAT    LP233295   6.021   5.436   1.115
 6660WAT     OW33296   1.403   1.895   3.111
 6660WAT    HW133297   1.447   1.974   3.142
 6660WAT    HW233298   1.462   1.823   3.135
 6660WAT    LP133299   1.341   1.887   3.142
 6660WAT    LP233300   1.394   1.897   3.041
 6661WAT     OW33301   1.583   4.927   2.275
 6661WAT    HW133302   1.617   4.902   2.189
 6661WAT    HW233303   1.600   4.852   2.331
 6661WAT    LP133304   1.616   4.984   2.299
 6661WAT    LP233305   1.514   4.940   2.271
 6662WAT     OW33306   4.104   6.322   0.877
 6662WAT    HW133307   4.139   6.238   0.849
 6662WAT    HW233308   4.174   6.362   0.927
 6662WAT    LP133309   4.087   6.362   0.821
 6662WAT    LP233310   4.047   6.313   0.916
 6663WAT     OW33311   2.027   6.584   2.216
 6663WAT    HW133312   2.013   6.624   2.302
 6663WAT    HW233313   2.096   6.638   2.176
 6663WAT    LP133314   2.049   6.518   2.222
 6663WAT    LP233315   1.969   6.586   2.177
 6664WAT     OW33316   0.593   0.192   2.173
 6664WAT    HW133317   0.503   0.223   2.181
 6664WAT    HW233318   0.604   0.131   2.246
 6664WAT    LP133319   0.603   0.159   2.112
 6664WAT    LP233320   0.638   0.245   2.178
 6665WAT     OW33321   4.160   5.540   1.884
 6665WAT    HW133322   4.202   5.619   1.917
 6665WAT    HW233323   4.215   5.468   1.918
 6665WAT    LP133324   4.095   5.534   1.909
 6665WAT    LP233325   4.159   5.539   1.814
 6666WAT     OW33326   0.469   2.070   5.512
 6666WAT    HW133327   0.377   2.089   5.496
 6666WAT    HW233328   0.476   2.066   5.608
 6666WAT    LP133329   0.487   2.008   5.484
 6666WAT    LP233330   0.510   2.120   5.486
 6667WAT     OW33331   4.025   0.193   5.777
 6667WAT    HW133332   4.027   0.276   5.730
 6667WAT    HW233333   4.116   0.165   5.781
 6667WAT    LP133334   3.999   0.202   5.842
 6667WAT    LP233335   3.986   0.146   5.743
 6668WAT     OW33336   2.401   2.924   4.279
 6668WAT    HW133337   2.341   2.998   4.288
 6668WAT    HW233338   2.348   2.847   4.301
 6668WAT    LP133339   2.426   2.919   4.214
 6668WAT    LP233340   2.455   2.930   4.324
 6669WAT     OW33341   3.245   2.911   2.575
 6669WAT    HW133342   3.299   2.892   2.498
 6669WAT    HW233343   3.226   3.005   2.568
 6669WAT    LP133344   3.186   2.874   2.574
 6669WAT    LP233345   3.281   2.897   2.634
 6670WAT     OW33346   5.675   6.495   2.535
 6670WAT    HW133347   5.678   6.525   2.444
 6670WAT    HW233348   5.767   6.483   2.560
 6670WAT    LP133349   5.645   6.543   2.576
 6670WAT    LP233350   5.640   6.435   2.540
 6671WAT     OW33351   6.176   4.858   2.096
 6671WAT    HW133352   6.221   4.774   2.106
 6671WAT    HW233353   6.104   4.855   2.159
 6671WAT    LP133354   6.219   4.911   2.110
 6671WAT    LP233355   6.151   4.865   2.030
 6672WAT     OW33356   1.842   0.781   6.608
 6672WAT    HW133357   1.758   0.808   6.572
 6672WAT    HW233358   1.872   0.857   6.657
 6672WAT    LP133359   1.835   0.726   6.649
 6672WAT    LP233360   1.887   0.766   6.556
 6673WAT     OW33361   0.673   3.913   2.936
 6673WAT    HW133362   0.634   3.889   2.852
 6673WAT    HW233363   0.599   3.909   2.998
 6673WAT    LP133364   0.722   3.867   2.954
 6673WAT    LP233365   0.700   3.977   2.934
 6674WAT     OW33366   0.222   0.118   3.606
 6674WAT    HW133367   0.187   0.168   3.679
 6674WAT    HW233368   0.205   0.172   3.529
 6674WAT    LP133369   0.291   0.107   3.614
 6674WAT    LP233370   0.189   0.056   3.601
 6675WAT     OW33371   3.630   6.403   5.181
 6675WAT    HW133372   3.661   6.393   5.091
 6675WAT    HW233373   3.705   6.381   5.235
 6675WAT    LP133374   3.610   6.469   5.193
 6675WAT    LP233375   3.576   6.360   5.193
 6676WAT     OW33376   1.310   1.035   3.799
 6676WAT    HW133377   1.317   1.018   3.706
 6676WAT    HW233378   1.239   1.099   3.807
 6676WAT    LP133379   1.295   0.977   3.835
 6676WAT    LP233380   1.370   1.063   3.824
 6677WAT     OW33381   2.095   1.903   3.402
 6677WAT    HW133382   2.141   1.967   3.457
 6677WAT    HW233383   2.120   1.818   3.439
 6677WAT    LP133384   2.026   1.912   3.406
 6677WAT    LP233385   2.116   1.908   3.336
 6678WAT     OW33386   3.355   0.388   6.549
 6678WAT    HW133387   3.362   0.294   6.561
 6678WAT    HW233388   3.357   0.424   6.638
 6678WAT    LP133389   3.408   0.413   6.511
 6678WAT    LP233390   3.294   0.405   6.518
 6679WAT     OW33391   0.473   4.202   4.140
 6679WAT    HW133392   0.461   4.144   4.215
 6679WAT    HW233393   0.412   4.169   4.074
 6679WAT    LP133394   0.456   4.268   4.158
 6679WAT    LP233395   0.539   4.200   4.117
 6680WAT     OW33396   5.967   0.462   6.231
 6680WAT    HW133397   6.012   0.510   6.301
 6680WAT    HW233398   6.036   0.446   6.166
 6680WAT    LP133399   5.941   0.401   6.255
 6680WAT    LP233400   5.916   0.500   6.204
 6681WAT     OW33401   4.593   2.604   4.639
 6681WAT    HW133402   4.642   2.655   4.704
 6681WAT    HW233403   4.624   2.514   4.651
 6681WAT    LP133404   4.524   2.609   4.651
 6681WAT    LP233405   4.607   2.627   4.575
 6682WAT     OW33406   0.893   3.284   1.352
 6682WAT    HW133407   0.884   3.377   1.370
 6682WAT    HW233408   0.884   3.276   1.257
 6682WAT    LP133409   0.955   3.260   1.373
 6682WAT    LP233410   0.842   3.248   1.385
 6683WAT     OW33411   0.494   0.830   5.690
 6683WAT    HW133412   0.559   0.826   5.760
 6683WAT    HW233413   0.494   0.922   5.663
 6683WAT    LP133414   0.511   0.789   5.637
 6683WAT    LP233415   0.431   0.812   5.715
 6684WAT     OW33416   1.698   1.926   1.646
 6684WAT    HW133417   1.779   1.977   1.645
 6684WAT    HW233418   1.719   1.849   1.699
 6684WAT    LP133419   1.646   1.963   1.675
 6684WAT    LP233420   1.680   1.907   1.581
 6685WAT     OW33421   1.638   1.321   0.900
 6685WAT    HW133422   1.633   1.411   0.933
 6685WAT    HW233423   1.660   1.269   0.978
 6685WAT    LP133424   1.577   1.301   0.873
 6685WAT    LP233425   1.688   1.315   0.852
 6686WAT     OW33426   4.926   0.519   4.456
 6686WAT    HW133427   4.840   0.540   4.493
 6686WAT    HW233428   4.910   0.513   4.362
 6686WAT    LP133429   4.972   0.570   4.470
 6686WAT    LP233430   4.950   0.459   4.482
 6687WAT     OW33431   4.124   0.580   0.946
 6687WAT    HW133432   4.165   0.568   0.861
 6687WAT    HW233433   4.096   0.671   0.948
 6687WAT    LP133434   4.068   0.537   0.953
 6687WAT    LP233435   4.170   0.567   0.998
 6688WAT     OW33436   6.272   5.169   0.042
 6688WAT    HW133437   6.364   5.188   0.026
 6688WAT    HW233438   6.263   5.075   0.025
 6688WAT    LP133439   6.255   5.183   0.109
 6688WAT    LP233440   6.231   5.206  -0.000
 6689WAT     OW33441   2.826   4.535   4.765
 6689WAT    HW133442   2.799   4.445   4.781
 6689WAT    HW233443   2.746   4.586   4.775
 6689WAT    LP133444   2.874   4.555   4.812
 6689WAT    LP233445   2.852   4.542   4.700
 6690WAT     OW33446   3.480   1.841   4.223
 6690WAT    HW133447   3.480   1.834   4.319
 6690WAT    HW233448   3.536   1.768   4.194
 6690WAT    LP133449   3.416   1.834   4.198
 6690WAT    LP233450   3.508   1.902   4.203
 6691WAT     OW33451   2.017   5.647   2.808
 6691WAT    HW133452   1.945   5.618   2.864
 6691WAT    HW233453   1.982   5.724   2.763
 6691WAT    LP133454   2.073   5.664   2.847
 6691WAT    LP233455   2.034   5.597   2.763
 6692WAT     OW33456   6.538   0.297   1.622
 6692WAT    HW133457   6.503   0.255   1.543
 6692WAT    HW233458   6.550   0.388   1.597
 6692WAT    LP133459   6.493   0.291   1.675
 6692WAT    LP233460   6.599   0.268   1.639
 6693WAT     OW33461   6.188   2.034   3.984
 6693WAT    HW133462   6.121   1.966   3.990
 6693WAT    HW233463   6.201   2.063   4.074
 6693WAT    LP133464   6.248   2.007   3.958
 6693WAT    LP233465   6.167   2.087   3.944
 6694WAT     OW33466   5.903   0.605   0.395
 6694WAT    HW133467   5.957   0.672   0.437
 6694WAT    HW233468   5.896   0.535   0.460
 6694WAT    LP133469   5.839   0.631   0.379
 6694WAT    LP233470   5.933   0.581   0.336
 6695WAT     OW33471   1.107   6.500   6.068
 6695WAT    HW133472   1.080   6.408   6.071
 6695WAT    HW233473   1.026   6.548   6.053
 6695WAT    LP133474   1.137   6.519   6.128
 6695WAT    LP233475   1.153   6.510   6.015
 6696WAT     OW33476   0.292   4.332   4.747
 6696WAT    HW133477   0.245   4.278   4.683
 6696WAT    HW233478   0.324   4.269   4.812
 6696WAT    LP133479   0.346   4.365   4.717
 6696WAT    LP233480   0.249   4.379   4.776
 6697WAT     OW33481   3.337   6.063   2.774
 6697WAT    HW133482   3.417   6.113   2.791
 6697WAT    HW233483   3.270   6.129   2.759
 6697WAT    LP133484   3.345   6.022   2.717
 6697WAT    LP233485   3.321   6.023   2.829
 6698WAT     OW33486   6.602   1.646   6.151
 6698WAT    HW133487   6.597   1.554   6.126
 6698WAT    HW233488   6.570   1.649   6.241
 6698WAT    LP133489   6.669   1.669   6.148
 6698WAT    LP233490   6.562   1.686   6.109
 6699WAT     OW33491   3.813   0.182   0.646
 6699WAT    HW133492   3.803   0.087   0.642
 6699WAT    HW233493   3.814   0.210   0.554
 6699WAT    LP133494   3.759   0.212   0.680
 6699WAT    LP233495   3.873   0.200   0.678
 6700WAT     OW33496   0.127   4.442   1.104
 6700WAT    HW133497   0.070   4.510   1.139
 6700WAT    HW233498   0.173   4.483   1.031
 6700WAT    LP133499   0.173   4.420   1.152
 6700WAT    LP233500   0.089   4.387   1.081
 6701WAT     OW33501   6.117   5.944   5.255
 6701WAT    HW133502   6.177   5.896   5.312
 6701WAT    HW233503   6.071   6.004   5.314
 6701WAT    LP133504   6.152   5.980   5.206
 6701WAT    LP233505   6.072   5.901   5.224
 6702WAT     OW33506   1.210   6.618   6.292
 6702WAT    HW133507   1.177   6.580   6.210
 6702WAT    HW233508   1.301   6.641   6.272
 6702WAT    LP133509   1.173   6.675   6.309
 6702WAT    LP233510   1.207   6.571   6.344
 6703WAT     OW33511   4.614   1.030   3.767
 6703WAT    HW133512   4.663   1.061   3.690
 6703WAT    HW233513   4.629   0.936   3.768
 6703WAT    LP133514   4.639   1.060   3.825
 6703WAT    LP233515   4.546   1.045   3.760
 6704WAT     OW33516   2.701   4.113   3.981
 6704WAT    HW133517   2.657   4.060   3.915
 6704WAT    HW233518   2.766   4.054   4.019
 6704WAT    LP133519   2.732   4.169   3.951
 6704WAT    LP233520   2.656   4.135   4.030
 6705WAT     OW33521   0.804   6.051   3.428
 6705WAT    HW133522   0.767   6.011   3.350
 6705WAT    HW233523   0.829   6.139   3.401
 6705WAT    LP133524   0.757   6.053   3.480
 6705WAT    LP233525   0.860   6.015   3.450
 6706WAT     OW33526   1.503   5.828   6.626
 6706WAT    HW133527   1.573   5.893   6.627
 6706WAT    HW233528   1.435   5.864   6.682
 6706WAT    LP133529   1.479   5.818   6.560
 6706WAT    LP233530   1.526   5.766   6.651
 6707WAT     OW33531   1.420   1.202   0.789
 6707WAT    HW133532   1.385   1.171   0.873
 6707WAT    HW233533   1.505   1.239   0.810
 6707WAT    LP133534   1.426   1.148   0.744
 6707WAT    LP233535   1.378   1.250   0.761
 6708WAT     OW33536   2.821   3.622   3.741
 6708WAT    HW133537   2.732   3.606   3.773
 6708WAT    HW233538   2.842   3.545   3.688
 6708WAT    LP133539   2.823   3.680   3.702
 6708WAT    LP233540   2.866   3.628   3.794
 6709WAT     OW33541   1.927   6.052   2.002
 6709WAT    HW133542   1.933   6.025   2.093
 6709WAT    HW233543   1.868   6.128   2.004
 6709WAT    LP133544   1.990   6.071   1.977
 6709WAT    LP233545   1.900   6.001   1.962
 6710WAT     OW33546   1.337   5.992   0.162
 6710WAT    HW133547   1.402   6.058   0.185
 6710WAT    HW233548   1.262   6.042   0.131
 6710WAT    LP133549   1.362   5.950   0.111
 6710WAT    LP233550   1.320   5.953   0.217
 6711WAT     OW33551   2.641   0.231   0.105
 6711WAT    HW133552   2.703   0.203   0.171
 6711WAT    HW233553   2.609   0.150   0.065
 6711WAT    LP133554   2.588   0.267   0.134
 6711WAT    LP233555   2.672   0.272   0.057
 6712WAT     OW33556   6.608   0.606   0.893
 6712WAT    HW133557   6.536   0.572   0.947
 6712WAT    HW233558   6.687   0.572   0.933
 6712WAT    LP133559   6.602   0.583   0.827
 6712WAT    LP233560   6.608   0.676   0.893
 6713WAT     OW33561   4.296   2.067   3.888
 6713WAT    HW133562   4.329   1.986   3.847
 6713WAT    HW233563   4.205   2.048   3.909
 6713WAT    LP133564   4.333   2.081   3.946
 6713WAT    LP233565   4.301   2.121   3.844
 6714WAT     OW33566   3.118   2.458   5.633
 6714WAT    HW133567   3.111   2.366   5.609
 6714WAT    HW233568   3.033   2.495   5.612
 6714WAT    LP133569   3.132   2.465   5.702
 6714WAT    LP233570   3.169   2.489   5.596
 6715WAT     OW33571   5.035   5.947   4.815
 6715WAT    HW133572   5.066   5.989   4.895
 6715WAT    HW233573   4.941   5.963   4.815
 6715WAT    LP133574   5.065   5.975   4.759
 6715WAT    LP233575   5.048   5.878   4.817
 6716WAT     OW33576   2.050   0.518   4.729
 6716WAT    HW133577   2.090   0.603   4.710
 6716WAT    HW233578   1.995   0.533   4.805
 6716WAT    LP133579   2.012   0.496   4.674
 6716WAT    LP233580   2.100   0.470   4.743
 6717WAT     OW33581   0.238   5.298   5.033
 6717WAT    HW133582   0.242   5.211   5.074
 6717WAT    HW233583   0.173   5.288   4.962
 6717WAT    LP133584   0.216   5.346   5.079
 6717WAT    LP233585   0.300   5.316   5.007
 6718WAT     OW33586   4.105   1.363   4.289
 6718WAT    HW133587   4.028   1.309   4.309
 6718WAT    HW233588   4.074   1.453   4.297
 6718WAT    LP133589   4.156   1.350   4.335
 6718WAT    LP233590   4.127   1.350   4.224
 6719WAT     OW33591   5.406   1.653   4.207
 6719WAT    HW133592   5.422   1.656   4.301
 6719WAT    HW233593   5.462   1.722   4.171
 6719WAT    LP133594   5.423   1.591   4.181
 6719WAT    LP233595   5.339   1.667   4.193
 6720WAT     OW33596   0.285   5.417   2.562
 6720WAT    HW133597   0.240   5.392   2.642
 6720WAT    HW233598   0.323   5.503   2.581
 6720WAT    LP133599   0.336   5.371   2.547
 6720WAT    LP233600   0.241   5.421   2.508
 6721WAT     OW33601   3.789   0.588   1.741
 6721WAT    HW133602   3.756   0.626   1.659
 6721WAT    HW233603   3.852   0.653   1.773
 6721WAT    LP133604   3.737   0.579   1.787
 6721WAT    LP233605   3.820   0.527   1.729
 6722WAT     OW33606   5.174   0.774   5.545
 6722WAT    HW133607   5.255   0.814   5.515
 6722WAT    HW233608   5.179   0.777   5.640
 6722WAT    LP133609   5.118   0.810   5.522
 6722WAT    LP233610   5.169   0.708   5.522
 6723WAT     OW33611   3.055   6.522   0.473
 6723WAT    HW133612   3.076   6.543   0.564
 6723WAT    HW233613   3.137   6.489   0.437
 6723WAT    LP133614   3.005   6.473   0.470
 6723WAT    LP233615   3.034   6.579   0.439
 6724WAT     OW33616   1.441   4.368   0.422
 6724WAT    HW133617   1.363   4.378   0.367
 6724WAT    HW233618   1.409   4.379   0.511
 6724WAT    LP133619   1.469   4.305   0.413
 6724WAT    LP233620   1.488   4.417   0.406
 6725WAT     OW33621   2.590   5.478   4.717
 6725WAT    HW133622   2.508   5.443   4.753
 6725WAT    HW233623   2.629   5.404   4.670
 6725WAT    LP133624   2.577   5.531   4.673
 6725WAT    LP233625   2.632   5.500   4.768
 6726WAT     OW33626   4.414   0.287   3.446
 6726WAT    HW133627   4.487   0.225   3.451
 6726WAT    HW233628   4.336   0.233   3.456
 6726WAT    LP133629   4.418   0.334   3.498
 6726WAT    LP233630   4.413   0.320   3.384
 6727WAT     OW33631   5.231   5.685   1.464
 6727WAT    HW133632   5.152   5.740   1.470
 6727WAT    HW233633   5.299   5.736   1.508
 6727WAT    LP133634   5.221   5.624   1.497
 6727WAT    LP233635   5.247   5.673   1.397
 6728WAT     OW33636   2.854   3.653   2.328
 6728WAT    HW133637   2.822   3.658   2.238
 6728WAT    HW233638   2.947   3.675   2.323
 6728WAT    LP133639   2.820   3.699   2.369
 6728WAT    LP233640   2.845   3.589   2.354
 6729WAT     OW33641   4.841   4.283   1.354
 6729WAT    HW133642   4.781   4.245   1.289
 6729WAT    HW233643   4.783   4.326   1.418
 6729WAT    LP133644   4.879   4.233   1.385
 6729WAT    LP233645   4.883   4.330   1.324
 6730WAT     OW33646   0.251   0.903   1.738
 6730WAT    HW133647   0.208   0.884   1.821
 6730WAT    HW233648   0.336   0.939   1.762
 6730WAT    LP133649   0.259   0.844   1.700
 6730WAT    LP233650   0.213   0.949   1.701
 6731WAT     OW33651   1.247   6.424   0.513
 6731WAT    HW133652   1.309   6.496   0.526
 6731WAT    HW233653   1.254   6.402   0.420
 6731WAT    LP133654   1.263   6.369   0.553
 6731WAT    LP233655   1.181   6.445   0.528
 6732WAT     OW33656   0.966   4.844   4.573
 6732WAT    HW133657   0.990   4.908   4.639
 6732WAT    HW233658   0.870   4.843   4.575
 6732WAT    LP133659   0.989   4.862   4.510
 6732WAT    LP233660   0.991   4.780   4.590
 6733WAT     OW33661   3.323   1.388   5.801
 6733WAT    HW133662   3.394   1.342   5.847
 6733WAT    HW233663   3.250   1.325   5.802
 6733WAT    LP133664   3.306   1.446   5.836
 6733WAT    LP233665   3.342   1.403   5.736
 6734WAT     OW33666   4.635   6.316   2.949
 6734WAT    HW133667   4.700   6.367   2.997
 6734WAT    HW233668   4.668   6.315   2.859
 6734WAT    LP133669   4.630   6.251   2.974
 6734WAT    LP233670   4.572   6.348   2.952
 6735WAT     OW33671   5.094   0.262   3.088
 6735WAT    HW133672   5.141   0.226   3.012
 6735WAT    HW233673   5.138   0.226   3.164
 6735WAT    LP133674   5.098   0.332   3.088
 6735WAT    LP233675   5.026   0.243   3.087
 6736WAT     OW33676   4.796   1.833   5.321
 6736WAT    HW133677   4.810   1.749   5.278
 6736WAT    HW233678   4.873   1.844   5.378
 6736WAT    LP133679   4.793   1.885   5.274
 6736WAT    LP233680   4.737   1.833   5.359
 6737WAT     OW33681   0.168   1.840   2.919
 6737WAT    HW133682   0.077   1.812   2.911
 6737WAT    HW233683   0.175   1.872   3.009
 6737WAT    LP133684   0.211   1.786   2.908
 6737WAT    LP233685   0.182   1.891   2.873
 6738WAT     OW33686   3.409   2.616   3.742
 6738WAT    HW133687   3.384   2.707   3.725
 6738WAT    HW233688   3.450   2.619   3.828
 6738WAT    LP133689   3.353   2.575   3.742
 6738WAT    LP233690   3.455   2.594   3.693
 6739WAT     OW33691   5.576   4.986   0.327
 6739WAT    HW133692   5.563   5.073   0.365
 6739WAT    HW233693   5.567   4.998   0.233
 6739WAT    LP133694   5.640   4.961   0.344
 6739WAT    LP233695   5.527   4.941   0.351
 6740WAT     OW33696   0.633   0.292   6.604
 6740WAT    HW133697   0.651   0.323   6.515
 6740WAT    HW233698   0.577   0.216   6.592
 6740WAT    LP133699   0.693   0.275   6.636
 6740WAT    LP233700   0.601   0.342   6.641
 6741WAT     OW33701   1.738   1.339   4.474
 6741WAT    HW133702   1.796   1.265   4.491
 6741WAT    HW233703   1.791   1.399   4.421
 6741WAT    LP133704   1.681   1.319   4.439
 6741WAT    LP233705   1.720   1.370   4.534
 6742WAT     OW33706   1.557   4.511   5.125
 6742WAT    HW133707   1.559   4.607   5.124
 6742WAT    HW233708   1.489   4.489   5.061
 6742WAT    LP133709   1.619   4.485   5.105
 6742WAT    LP233710   1.540   4.487   5.188
 6743WAT     OW33711   6.526   6.320   1.664
 6743WAT    HW133712   6.440   6.280   1.653
 6743WAT    HW233713   6.509   6.405   1.703
 6743WAT    LP133714   6.566   6.281   1.706
 6743WAT    LP233715   6.558   6.327   1.602
 6744WAT     OW33716   3.502   2.017   0.429
 6744WAT    HW133717   3.474   2.006   0.339
 6744WAT    HW233718   3.595   2.038   0.423
 6744WAT    LP133719   3.467   2.069   0.460
 6744WAT    LP233720   3.493   1.957   0.465
 6745WAT     OW33721   6.561   2.589   3.920
 6745WAT    HW133722   6.490   2.527   3.932
 6745WAT    HW233723   6.525   2.657   3.863
 6745WAT    LP133724   6.580   2.617   3.982
 6745WAT    LP233725   6.616   2.559   3.890
 6746WAT     OW33726   6.513   5.451   0.411
 6746WAT    HW133727   6.575   5.449   0.484
 6746WAT    HW233728   6.517   5.541   0.380
 6746WAT    LP133729   6.533   5.406   0.361
 6746WAT    LP233730   6.449   5.435   0.433
 6747WAT     OW33731   4.186   5.431   4.684
 6747WAT    HW133732   4.182   5.390   4.598
 6747WAT    HW233733   4.267   5.398   4.723
 6747WAT    LP133734   4.189   5.501   4.678
 6747WAT    LP233735   4.131   5.413   4.723
 6748WAT     OW33736   0.572   1.755   0.603
 6748WAT    HW133737   0.572   1.783   0.512
 6748WAT    HW233738   0.644   1.805   0.643
 6748WAT    LP133739   0.511   1.770   0.634
 6748WAT    LP233740   0.585   1.686   0.608
 6749WAT     OW33741   5.611   4.515   0.849
 6749WAT    HW133742   5.650   4.428   0.850
 6749WAT    HW233743   5.532   4.507   0.902
 6749WAT    LP133744   5.654   4.563   0.876
 6749WAT    LP233745   5.594   4.534   0.783
 6750WAT     OW33746   5.348   3.453   2.206
 6750WAT    HW133747   5.358   3.514   2.279
 6750WAT    HW233748   5.341   3.367   2.247
 6750WAT    LP133749   5.291   3.468   2.169
 6750WAT    LP233750   5.404   3.456   2.164
 6751WAT     OW33751   3.015   2.587   4.571
 6751WAT    HW133752   3.007   2.607   4.664
 6751WAT    HW233753   2.943   2.527   4.552
 6751WAT    LP133754   3.009   2.646   4.533
 6751WAT    LP233755   3.077   2.557   4.557
 6752WAT     OW33756   1.919   4.542   3.184
 6752WAT    HW133757   1.945   4.600   3.112
 6752WAT    HW233758   1.998   4.533   3.237
 6752WAT    LP133759   1.867   4.570   3.221
 6752WAT    LP233760   1.899   4.480   3.159
 6753WAT     OW33761   2.590   6.071   6.547
 6753WAT    HW133762   2.552   5.984   6.562
 6753WAT    HW233763   2.524   6.132   6.579
 6753WAT    LP133764   2.649   6.078   6.584
 6753WAT    LP233765   2.603   6.081   6.479
 6754WAT     OW33766   3.894   4.925   4.513
 6754WAT    HW133767   3.814   4.923   4.566
 6754WAT    HW233768   3.964   4.917   4.578
 6754WAT    LP133769   3.895   4.871   4.469
 6754WAT    LP233770   3.899   4.985   4.478
 6755WAT     OW33771   5.088   0.527   3.149
 6755WAT    HW133772   5.136   0.572   3.080
 6755WAT    HW233773   5.090   0.434   3.124
 6755WAT    LP133774   5.119   0.536   3.211
 6755WAT    LP233775   5.022   0.550   3.152
 6756WAT     OW33776   3.997   1.180   3.144
 6756WAT    HW133777   3.942   1.102   3.146
 6756WAT    HW233778   4.086   1.147   3.155
 6756WAT    LP133779   3.990   1.213   3.083
 6756WAT    LP233780   3.980   1.223   3.197
 6757WAT     OW33781   4.950   2.674   1.769
 6757WAT    HW133782   4.895   2.599   1.791
 6757WAT    HW233783   5.035   2.654   1.809
 6757WAT    LP133784   4.956   2.681   1.700
 6757WAT    LP233785   4.924   2.733   1.796
 6758WAT     OW33786   1.234   2.643   0.570
 6758WAT    HW133787   1.243   2.733   0.602
 6758WAT    HW233788   1.301   2.594   0.616
 6758WAT    LP133789   1.170   2.618   0.584
 6758WAT    LP233790   1.244   2.641   0.500
 6759WAT     OW33791   3.487   1.802   4.496
 6759WAT    HW133792   3.458   1.853   4.572
 6759WAT    HW233793   3.583   1.803   4.502
 6759WAT    LP133794   3.463   1.736   4.500
 6759WAT    LP233795   3.465   1.831   4.436
 6760WAT     OW33796   0.826   0.120   6.260
 6760WAT    HW133797   0.774   0.056   6.309
 6760WAT    HW233798   0.907   0.128   6.312
 6760WAT    LP133799   0.840   0.096   6.196
 6760WAT    LP233800   0.793   0.181   6.255
 6761WAT     OW33801   2.355   5.390   3.398
 6761WAT    HW133802   2.413   5.438   3.457
 6761WAT    HW233803   2.273   5.440   3.399
 6761WAT    LP133804   2.382   5.387   3.334
 6761WAT    LP233805   2.344   5.325   3.422
 6762WAT     OW33806   6.176   1.847   1.185
 6762WAT    HW133807   6.083   1.827   1.172
 6762WAT    HW233808   6.214   1.765   1.215
 6762WAT    LP133809   6.205   1.868   1.124
 6762WAT    LP233810   6.184   1.897   1.233
 6763WAT     OW33811   3.099   6.055   1.545
 6763WAT    HW133812   3.164   6.058   1.615
 6763WAT    HW233813   3.015   6.063   1.591
 6763WAT    LP133814   3.108   6.109   1.501
 6763WAT    LP233815   3.103   5.995   1.510
 6764WAT     OW33816   5.064   1.834   0.775
 6764WAT    HW133817   5.041   1.906   0.833
 6764WAT    HW233818   5.152   1.854   0.744
 6764WAT    LP133819   5.063   1.773   0.809
 6764WAT    LP233820   5.019   1.831   0.721
 6765WAT     OW33821   0.995   3.525   5.652
 6765WAT    HW133822   1.082   3.509   5.616
 6765WAT    HW233823   0.982   3.619   5.642
 6765WAT    LP133824   0.946   3.490   5.616
 6765WAT    LP233825   0.992   3.507   5.719
 6766WAT     OW33826   4.763   1.532   3.098
 6766WAT    HW133827   4.800   1.604   3.047
 6766WAT    HW233828   4.676   1.519   3.061
 6766WAT    LP133829   4.802   1.474   3.090
 6766WAT    LP233830   4.759   1.548   3.166
 6767WAT     OW33831   5.184   6.644   4.520
 6767WAT    HW133832   5.146   6.588   4.588
 6767WAT    HW233833   5.273   6.609   4.508
 6767WAT    LP133834   5.147   6.639   4.461
 6767WAT    LP233835   5.186   6.710   4.541
 6768WAT     OW33836   0.557   4.960   5.697
 6768WAT    HW133837   0.466   4.979   5.722
 6768WAT    HW233838   0.559   4.864   5.690
 6768WAT    LP133839   0.572   4.990   5.635
 6768WAT    LP233840   0.601   4.982   5.746
 6769WAT     OW33841   3.034   6.067   1.029
 6769WAT    HW133842   3.011   5.984   1.071
 6769WAT    HW233843   2.963   6.127   1.052
 6769WAT    LP133844   3.096   6.091   1.053
 6769WAT    LP233845   3.038   6.059   0.959
 6770WAT     OW33846   2.805   6.208   2.266
 6770WAT    HW133847   2.763   6.292   2.287
 6770WAT    HW233848   2.895   6.232   2.244
 6770WAT    LP133849   2.804   6.165   2.321
 6770WAT    LP233850   2.774   6.178   2.211
 6771WAT     OW33851   1.025   6.241   6.052
 6771WAT    HW133852   0.982   6.210   5.972
 6771WAT    HW233853   1.114   6.206   6.046
 6771WAT    LP133854   1.026   6.311   6.054
 6771WAT    LP233855   0.992   6.217   6.108
 6772WAT     OW33856   4.619   6.059   0.190
 6772WAT    HW133857   4.705   6.041   0.151
 6772WAT    HW233858   4.628   6.146   0.228
 6772WAT    LP133859   4.569   6.058   0.140
 6772WAT    LP233860   4.604   6.011   0.239
 6773WAT     OW33861   2.138   5.914   3.439
 6773WAT    HW133862   2.129   6.009   3.426
 6773WAT    HW233863   2.079   5.894   3.512
 6773WAT    LP133864   2.118   5.880   3.381
 6773WAT    LP233865   2.204   5.897   3.455
 6774WAT     OW33866   0.184   5.894   2.485
 6774WAT    HW133867   0.272   5.904   2.523
 6774WAT    HW233868   0.200   5.876   2.392
 6774WAT    LP133869   0.150   5.841   2.515
 6774WAT    LP233870   0.147   5.953   2.492
 6775WAT     OW33871   0.227   4.519   2.098
 6775WAT    HW133872   0.207   4.463   2.023
 6775WAT    HW233873   0.295   4.578   2.067
 6775WAT    LP133874   0.170   4.554   2.118
 6775WAT    LP233875   0.250   4.480   2.151
 6776WAT     OW33876   2.129   2.037   4.485
 6776WAT    HW133877   2.140   2.030   4.579
 6776WAT    HW233878   2.039   2.066   4.473
 6776WAT    LP133879   2.174   2.084   4.458
 6776WAT    LP233880   2.140   1.975   4.453
 6777WAT     OW33881   1.976   2.663   5.795
 6777WAT    HW133882   1.915   2.620   5.735
 6777WAT    HW233883   2.063   2.636   5.765
 6777WAT    LP133884   1.969   2.732   5.792
 6777WAT    LP233885   1.965   2.641   5.861
 6778WAT     OW33886   4.640   4.160   1.210
 6778WAT    HW133887   4.685   4.084   1.173
 6778WAT    HW233888   4.585   4.124   1.279
 6778WAT    LP133889   4.687   4.205   1.236
 6778WAT    LP233890   4.602   4.192   1.161
 6779WAT     OW33891   2.590   1.934   2.469
 6779WAT    HW133892   2.666   1.880   2.448
 6779WAT    HW233893   2.620   1.992   2.539
 6779WAT    LP133894   2.569   1.971   2.414
 6779WAT    LP233895   2.537   1.893   2.492
 6780WAT     OW33896   4.617   1.552   4.577
 6780WAT    HW133897   4.640   1.466   4.542
 6780WAT    HW233898   4.685   1.610   4.544
 6780WAT    LP133899   4.554   1.571   4.553
 6780WAT    LP233900   4.616   1.551   4.647
 6781WAT     OW33901   5.717   5.914   3.046
 6781WAT    HW133902   5.665   5.848   3.093
 6781WAT    HW233903   5.785   5.863   3.002
 6781WAT    LP133904   5.677   5.948   3.000
 6781WAT    LP233905   5.745   5.960   3.091
 6782WAT     OW33906   1.953   3.639   5.972
 6782WAT    HW133907   1.936   3.545   5.973
 6782WAT    HW233908   2.032   3.650   6.025
 6782WAT    LP133909   1.963   3.662   5.907
 6782WAT    LP233910   1.899   3.674   6.001
 6783WAT     OW33911   4.152   5.157   6.625
 6783WAT    HW133912   4.163   5.238   6.574
 6783WAT    HW233913   4.241   5.129   6.645
 6783WAT    LP133914   4.116   5.169   6.683
 6783WAT    LP233915   4.119   5.108   6.587
 6784WAT     OW33916   1.716   4.560   3.385
 6784WAT    HW133917   1.772   4.564   3.307
 6784WAT    HW233918   1.754   4.625   3.445
 6784WAT    LP133919   1.650   4.578   3.369
 6784WAT    LP233920   1.717   4.496   3.414
 6785WAT     OW33921   0.121   1.395   0.085
 6785WAT    HW133922   0.121   1.360   0.174
 6785WAT    HW233923   0.075   1.479   0.092
 6785WAT    LP133924   0.187   1.405   0.063
 6785WAT    LP233925   0.088   1.352   0.041
 6786WAT     OW33926   5.952   1.832   2.778
 6786WAT    HW133927   6.009   1.903   2.749
 6786WAT    HW233928   5.994   1.753   2.747
 6786WAT    LP133929   5.947   1.832   2.848
 6786WAT    LP233930   5.888   1.839   2.750
 6787WAT     OW33931   5.643   6.218   6.242
 6787WAT    HW133932   5.623   6.246   6.153
 6787WAT    HW233933   5.613   6.291   6.297
 6787WAT    LP133934   5.608   6.159   6.259
 6787WAT    LP233935   5.712   6.207   6.250
 6788WAT     OW33936   6.675   5.574   5.217
 6788WAT    HW133937   6.663   5.588   5.311
 6788WAT    HW233938   6.762   5.536   5.209
 6788WAT    LP133939   6.626   5.530   5.192
 6788WAT    LP233940   6.671   5.635   5.182
 6789WAT     OW33941   3.977   5.480   3.793
 6789WAT    HW133942   3.922   5.498   3.869
 6789WAT    HW233943   3.970   5.385   3.781
 6789WAT    LP133944   3.954   5.514   3.736
 6789WAT    LP233945   4.044   5.498   3.805
 6790WAT     OW33946   4.976   2.194   0.330
 6790WAT    HW133947   4.957   2.102   0.348
 6790WAT    HW233948   5.047   2.216   0.390
 6790WAT    LP133949   4.996   2.202   0.263
 6790WAT    LP233950   4.919   2.233   0.343
 6791WAT     OW33951   3.188   1.039   1.818
 6791WAT    HW133952   3.113   0.998   1.861
 6791WAT    HW233953   3.264   1.001   1.861
 6791WAT    LP133954   3.188   1.024   1.749
 6791WAT    LP233955   3.186   1.108   1.827
 6792WAT     OW33956   2.529   5.374   1.582
 6792WAT    HW133957   2.562   5.458   1.615
 6792WAT    HW233958   2.441   5.367   1.619
 6792WAT    LP133959   2.527   5.374   1.512
 6792WAT    LP233960   2.569   5.322   1.605
 6793WAT     OW33961   1.634   2.965   3.581
 6793WAT    HW133962   1.668   3.023   3.650
 6793WAT    HW233963   1.550   2.935   3.614
 6793WAT    LP133964   1.626   3.001   3.521
 6793WAT    LP233965   1.678   2.911   3.571
 6794WAT     OW33966   5.508   3.405   1.441
 6794WAT    HW133967   5.483   3.369   1.356
 6794WAT    HW233968   5.598   3.436   1.427
 6794WAT    LP133969   5.466   3.457   1.459
 6794WAT    LP233970   5.507   3.355   1.490
 6795WAT     OW33971   5.618   2.646   1.100
 6795WAT    HW133972   5.613   2.593   1.179
 6795WAT    HW233973   5.703   2.623   1.062
 6795WAT    LP133974   5.566   2.630   1.056
 6795WAT    LP233975   5.616   2.714   1.115
 6796WAT     OW33976   4.329   4.135   6.063
 6796WAT    HW133977   4.241   4.104   6.041
 6796WAT    HW233978   4.360   4.074   6.130
 6796WAT    LP133979   4.370   4.132   6.006
 6796WAT    LP233980   4.326   4.200   6.088
 6797WAT     OW33981   0.665   5.185   0.543
 6797WAT    HW133982   0.755   5.185   0.575
 6797WAT    HW233983   0.624   5.110   0.585
 6797WAT    LP133984   0.633   5.244   0.561
 6797WAT    LP233985   0.664   5.178   0.473
 6798WAT     OW33986   6.170   5.979   4.544
 6798WAT    HW133987   6.184   5.947   4.633
 6798WAT    HW233988   6.075   5.992   4.537
 6798WAT    LP133989   6.204   6.039   4.534
 6798WAT    LP233990   6.192   5.932   4.497
 6799WAT     OW33991   6.107   5.945   1.181
 6799WAT    HW133992   6.169   5.875   1.158
 6799WAT    HW233993   6.077   5.978   1.096
 6799WAT    LP133994   6.053   5.919   1.218
 6799WAT    LP233995   6.139   5.995   1.217
 6800WAT     OW33996   5.466   0.354   3.810
 6800WAT    HW133997   5.382   0.352   3.857
 6800WAT    HW233998   5.529   0.387   3.874
 6800WAT    LP133999   5.484   0.290   3.788
 6800WAT    LP234000   5.462   0.398   3.755
 6801WAT     OW34001   3.283   1.510   2.994
 6801WAT    HW134002   3.268   1.484   3.085
 6801WAT    HW234003   3.364   1.465   2.969
 6801WAT    LP134004   3.229   1.489   2.953
 6801WAT    LP234005   3.290   1.579   2.989
 6802WAT     OW34006   0.491   0.018   2.945
 6802WAT    HW134007   0.508   0.109   2.921
 6802WAT    HW234008   0.461  -0.023   2.865
 6802WAT    LP134009   0.550  -0.012   2.968
 6802WAT    LP234010   0.442   0.015   2.995
 6803WAT     OW34011   0.775   3.370   5.567
 6803WAT    HW134012   0.860   3.407   5.590
 6803WAT    HW234013   0.723   3.445   5.538
 6803WAT    LP134014   0.781   3.323   5.516
 6803WAT    LP234015   0.746   3.340   5.623
 6804WAT     OW34016   4.809   6.229   4.096
 6804WAT    HW134017   4.750   6.154   4.106
 6804WAT    HW234018   4.868   6.204   4.025
 6804WAT    LP134019   4.773   6.287   4.080
 6804WAT    LP234020   4.845   6.240   4.155
 6805WAT     OW34021   4.780   0.980   4.356
 6805WAT    HW134022   4.804   1.069   4.330
 6805WAT    HW234023   4.788   0.929   4.276
 6805WAT    LP134024   4.823   0.957   4.405
 6805WAT    LP234025   4.714   0.979   4.380
 6806WAT     OW34026   6.705   0.380   5.520
 6806WAT    HW134027   6.666   0.391   5.606
 6806WAT    HW234028   6.750   0.463   5.503
 6806WAT    LP134029   6.750   0.327   5.519
 6806WAT    LP234030   6.655   0.369   5.471
 6807WAT     OW34031   5.242   0.165   2.879
 6807WAT    HW134032   5.254   0.226   2.807
 6807WAT    HW234033   5.330   0.154   2.916
 6807WAT    LP134034   5.198   0.192   2.927
 6807WAT    LP234035   5.217   0.104   2.856
 6808WAT     OW34036   4.601   2.698   4.384
 6808WAT    HW134037   4.608   2.667   4.474
 6808WAT    HW234038   4.535   2.768   4.388
 6808WAT    LP134039   4.662   2.724   4.362
 6808WAT    LP234040   4.580   2.647   4.342
 6809WAT     OW34041   2.855   0.769   2.400
 6809WAT    HW134042   2.817   0.853   2.377
 6809WAT    HW234043   2.873   0.775   2.494
 6809WAT    LP134044   2.810   0.717   2.387
 6809WAT    LP234045   2.914   0.758   2.364
 6810WAT     OW34046   3.690   1.487   3.325
 6810WAT    HW134047   3.773   1.454   3.358
 6810WAT    HW234048   3.714   1.539   3.248
 6810WAT    LP134049   3.648   1.434   3.307
 6810WAT    LP234050   3.658   1.527   3.373
 6811WAT     OW34051   3.488   6.319   0.060
 6811WAT    HW134052   3.536   6.258   0.116
 6811WAT    HW234053   3.525   6.306  -0.027
 6811WAT    LP134054   3.420   6.303   0.060
 6811WAT    LP234055   3.497   6.385   0.081
 6812WAT     OW34056   4.681   1.958   6.530
 6812WAT    HW134057   4.622   1.893   6.568
 6812WAT    HW234058   4.712   2.010   6.604
 6812WAT    LP134059   4.735   1.926   6.498
 6812WAT    LP234060   4.648   1.998   6.483
 6813WAT     OW34061   2.900   4.042   3.146
 6813WAT    HW134062   2.967   4.110   3.151
 6813WAT    HW234063   2.862   4.038   3.234
 6813WAT    LP134064   2.851   4.059   3.099
 6813WAT    LP234065   2.928   3.980   3.129
 6814WAT     OW34066   5.748   1.785   0.259
 6814WAT    HW134067   5.803   1.852   0.298
 6814WAT    HW234068   5.702   1.829   0.188
 6814WAT    LP134069   5.787   1.732   0.234
 6814WAT    LP234070   5.702   1.760   0.306
 6815WAT     OW34071   2.030   2.852   1.435
 6815WAT    HW134072   2.092   2.810   1.375
 6815WAT    HW234073   2.053   2.945   1.433
 6815WAT    LP134074   1.964   2.842   1.412
 6815WAT    LP234075   2.036   2.826   1.499
 6816WAT     OW34076   3.975   4.315   3.612
 6816WAT    HW134077   3.993   4.402   3.577
 6816WAT    HW234078   4.001   4.320   3.704
 6816WAT    LP134079   3.907   4.299   3.607
 6816WAT    LP234080   4.013   4.266   3.579
 6817WAT     OW34081   5.107   5.207   5.903
 6817WAT    HW134082   5.036   5.271   5.910
 6817WAT    HW234083   5.063   5.124   5.885
 6817WAT    LP134084   5.150   5.224   5.851
 6817WAT    LP234085   5.143   5.204   5.963
 6818WAT     OW34086   5.721   1.249   2.214
 6818WAT    HW134087   5.811   1.280   2.216
 6818WAT    HW234088   5.678   1.295   2.286
 6818WAT    LP134089   5.691   1.266   2.153
 6818WAT    LP234090   5.718   1.180   2.223
 6819WAT     OW34091   1.231   5.559   3.069
 6819WAT    HW134092   1.233   5.561   3.165
 6819WAT    HW234093   1.172   5.631   3.045
 6819WAT    LP134094   1.295   5.569   3.042
 6819WAT    LP234095   1.205   5.498   3.046
 6820WAT     OW34096   4.111   2.967   3.156
 6820WAT    HW134097   4.162   2.998   3.230
 6820WAT    HW234098   4.173   2.917   3.103
 6820WAT    LP134099   4.058   2.925   3.177
 6820WAT    LP234100   4.084   3.020   3.119
 6821WAT     OW34101   0.498   2.912   0.057
 6821WAT    HW134102   0.584   2.873   0.071
 6821WAT    HW234103   0.507   3.001   0.089
 6821WAT    LP134104   0.481   2.911  -0.011
 6821WAT    LP234105   0.449   2.877   0.094
 6822WAT     OW34106   0.446   4.698   4.438
 6822WAT    HW134107   0.487   4.612   4.442
 6822WAT    HW234108   0.417   4.707   4.347
 6822WAT    LP134109   0.392   4.702   4.482
 6822WAT    LP234110   0.493   4.748   4.454
 6823WAT     OW34111   3.867   2.602   0.484
 6823WAT    HW134112   3.905   2.604   0.572
 6823WAT    HW234113   3.888   2.688   0.447
 6823WAT    LP134114   3.895   2.551   0.446
 6823WAT    LP234115   3.798   2.593   0.488
 6824WAT     OW34116   0.100   6.550   2.009
 6824WAT    HW134117   0.159   6.497   1.956
 6824WAT    HW234118   0.084   6.628   1.955
 6824WAT    LP134119   0.040   6.516   2.021
 6824WAT    LP234120   0.130   6.567   2.069
 6825WAT     OW34121   5.973   2.793   3.615
 6825WAT    HW134122   6.052   2.789   3.670
 6825WAT    HW234123   5.956   2.702   3.592
 6825WAT    LP134124   5.920   2.820   3.650
 6825WAT    LP234125   5.985   2.831   3.557
 6826WAT     OW34126   5.606   6.255   5.976
 6826WAT    HW134127   5.519   6.274   5.943
 6826WAT    HW234128   5.662   6.324   5.939
 6826WAT    LP134129   5.608   6.257   6.045
 6826WAT    LP234130   5.628   6.192   5.954
 6827WAT     OW34131   4.691   5.845   2.526
 6827WAT    HW134132   4.668   5.924   2.574
 6827WAT    HW234133   4.677   5.868   2.434
 6827WAT    LP134134   4.758   5.828   2.537
 6827WAT    LP234135   4.651   5.791   2.544
 6828WAT     OW34136   1.837   0.246   3.651
 6828WAT    HW134137   1.927   0.215   3.638
 6828WAT    HW234138   1.789   0.170   3.682
 6828WAT    LP134139   1.835   0.298   3.698
 6828WAT    LP234140   1.810   0.269   3.590
 6829WAT     OW34141   6.131   5.670   2.369
 6829WAT    HW134142   6.092   5.607   2.310
 6829WAT    HW234143   6.057   5.706   2.419
 6829WAT    LP134144   6.176   5.639   2.412
 6829WAT    LP234145   6.163   5.721   2.334
 6830WAT     OW34146   2.104   4.297   5.003
 6830WAT    HW134147   2.026   4.245   5.021
 6830WAT    HW234148   2.110   4.299   4.907
 6830WAT    LP134149   2.097   4.362   5.028
 6830WAT    LP234150   2.161   4.267   5.031
 6831WAT     OW34151   5.771   0.687   1.018
 6831WAT    HW134152   5.771   0.781   1.036
 6831WAT    HW234153   5.681   0.659   1.034
 6831WAT    LP134154   5.789   0.674   0.952
 6831WAT    LP234155   5.815   0.654   1.061
 6832WAT     OW34156   0.919   1.859   4.411
 6832WAT    HW134157   0.971   1.799   4.357
 6832WAT    HW234158   0.828   1.834   4.395
 6832WAT    LP134159   0.935   1.850   4.479
 6832WAT    LP234160   0.931   1.926   4.393
 6833WAT     OW34161   0.258   0.753   2.433
 6833WAT    HW134162   0.322   0.795   2.491
 6833WAT    HW234163   0.186   0.729   2.491
 6833WAT    LP134164   0.237   0.798   2.384
 6833WAT    LP234165   0.286   0.697   2.403
 6834WAT     OW34166   1.854   0.890   2.066
 6834WAT    HW134167   1.930   0.927   2.111
 6834WAT    HW234168   1.867   0.912   1.974
 6834WAT    LP134169   1.852   0.821   2.075
 6834WAT    LP234170   1.795   0.918   2.091
 6835WAT     OW34171   0.527   1.022   4.143
 6835WAT    HW134172   0.607   1.056   4.103
 6835WAT    HW234173   0.468   1.008   4.069
 6835WAT    LP134174   0.539   0.962   4.177
 6835WAT    LP234175   0.501   1.069   4.188
 6836WAT     OW34176   4.129   4.651   2.397
 6836WAT    HW134177   4.083   4.734   2.411
 6836WAT    HW234178   4.073   4.586   2.439
 6836WAT    LP134179   4.136   4.638   2.329
 6836WAT    LP234180   4.192   4.653   2.427
 6837WAT     OW34181   3.841   1.783   6.627
 6837WAT    HW134182   3.795   1.700   6.635
 6837WAT    HW234183   3.796   1.829   6.556
 6837WAT    LP134184   3.837   1.820   6.686
 6837WAT    LP234185   3.909   1.773   6.610
 6838WAT     OW34186   5.098   3.731   4.374
 6838WAT    HW134187   5.086   3.750   4.467
 6838WAT    HW234188   5.027   3.779   4.331
 6838WAT    LP134189   5.160   3.754   4.352
 6838WAT    LP234190   5.092   3.662   4.362
 6839WAT     OW34191   6.284   5.015   1.503
 6839WAT    HW134192   6.373   5.003   1.470
 6839WAT    HW234193   6.291   4.996   1.597
 6839WAT    LP134194   6.262   5.081   1.493
 6839WAT    LP234195   6.240   4.971   1.472
 6840WAT     OW34196   4.105   2.054   3.415
 6840WAT    HW134197   4.116   1.964   3.446
 6840WAT    HW234198   4.160   2.059   3.337
 6840WAT    LP134199   4.038   2.066   3.399
 6840WAT    LP234200   4.126   2.100   3.463
 6841WAT     OW34201   5.205   3.491   6.094
 6841WAT    HW134202   5.178   3.581   6.110
 6841WAT    HW234203   5.235   3.460   6.179
 6841WAT    LP134204   5.151   3.453   6.071
 6841WAT    LP234205   5.257   3.488   6.047
 6842WAT     OW34206   0.163   4.141   2.940
 6842WAT    HW134207   0.243   4.171   2.896
 6842WAT    HW234208   0.100   4.128   2.870
 6842WAT    LP134209   0.175   4.081   2.974
 6842WAT    LP234210   0.140   4.190   2.985
 6843WAT     OW34211   6.339   1.628   1.238
 6843WAT    HW134212   6.420   1.615   1.188
 6843WAT    HW234213   6.368   1.641   1.328
 6843WAT    LP134214   6.304   1.684   1.214
 6843WAT    LP234215   6.298   1.571   1.233
 6844WAT     OW34216   1.952   1.767   2.502
 6844WAT    HW134217   1.857   1.773   2.508
 6844WAT    HW234218   1.970   1.673   2.497
 6844WAT    LP134219   1.976   1.800   2.445
 6844WAT    LP234220   1.982   1.795   2.559
 6845WAT     OW34221   1.422   3.033   0.885
 6845WAT    HW134222   1.508   3.002   0.915
 6845WAT    HW234223   1.366   3.023   0.962
 6845WAT    LP134224   1.425   3.099   0.864
 6845WAT    LP234225   1.399   2.993   0.832
 6846WAT     OW34226   6.011   1.199   4.193
 6846WAT    HW134227   5.919   1.212   4.216
 6846WAT    HW234228   6.022   1.243   4.109
 6846WAT    LP134229   6.052   1.227   4.242
 6846WAT    LP234230   6.025   1.130   4.187
 6847WAT     OW34231   3.907   4.098   2.225
 6847WAT    HW134232   3.922   4.077   2.317
 6847WAT    HW234233   3.988   4.071   2.181
 6847WAT    LP134234   3.852   4.063   2.200
 6847WAT    LP234235   3.897   4.167   2.217
 6848WAT     OW34236   0.194   0.459   3.985
 6848WAT    HW134237   0.107   0.493   4.002
 6848WAT    HW234238   0.253   0.533   4.003
 6848WAT    LP134239   0.209   0.406   4.029
 6848WAT    LP234240   0.201   0.437   3.919
 6849WAT     OW34241   4.975   2.049   4.978
 6849WAT    HW134242   4.885   2.048   4.945
 6849WAT    HW234243   4.979   2.129   5.032
 6849WAT    LP134244   4.987   1.993   5.017
 6849WAT    LP234245   5.021   2.052   4.926
 6850WAT     OW34246   4.648   0.716   2.590
 6850WAT    HW134247   4.563   0.677   2.614
 6850WAT    HW234248   4.681   0.660   2.520
 6850WAT    LP134249   4.639   0.782   2.568
 6850WAT    LP234250   4.691   0.715   2.645
 6851WAT     OW34251   3.304   5.673   1.096
 6851WAT    HW134252   3.248   5.670   1.018
 6851WAT    HW234253   3.260   5.615   1.158
 6851WAT    LP134254   3.368   5.649   1.081
 6851WAT    LP234255   3.308   5.738   1.121
 6852WAT     OW34256   4.905   4.513   4.488
 6852WAT    HW134257   4.930   4.605   4.495
 6852WAT    HW234258   4.898   4.482   4.578
 6852WAT    LP134259   4.844   4.506   4.454
 6852WAT    LP234260   4.955   4.476   4.453
 6853WAT     OW34261   5.282   2.605   5.587
 6853WAT    HW134262   5.218   2.592   5.658
 6853WAT    HW234263   5.345   2.667   5.624
 6853WAT    LP134264   5.313   2.544   5.571
 6853WAT    LP234265   5.251   2.632   5.531
 6854WAT     OW34266   5.497   5.902   0.051
 6854WAT    HW134267   5.485   5.975   0.112
 6854WAT    HW234268   5.506   5.943  -0.035
 6854WAT    LP134269   5.554   5.865   0.067
 6854WAT    LP234270   5.441   5.860   0.052
 6855WAT     OW34271   2.502   4.825   4.028
 6855WAT    HW134272   2.548   4.743   4.012
 6855WAT    HW234273   2.548   4.864   4.103
 6855WAT    LP134274   2.506   4.867   3.972
 6855WAT    LP234275   2.435   4.813   4.044
 6856WAT     OW34276   5.768   0.978   1.017
 6856WAT    HW134277   5.825   1.009   1.088
 6856WAT    HW234278   5.823   0.986   0.938
 6856WAT    LP134279   5.749   0.912   1.028
 6856WAT    LP234280   5.711   1.019   1.011
 6857WAT     OW34281   2.740   0.935   3.720
 6857WAT    HW134282   2.709   1.023   3.697
 6857WAT    HW234283   2.835   0.939   3.705
 6857WAT    LP134284   2.727   0.921   3.787
 6857WAT    LP234285   2.710   0.887   3.679
 6858WAT     OW34286   6.224   6.112   1.360
 6858WAT    HW134287   6.282   6.055   1.411
 6858WAT    HW234288   6.188   6.055   1.292
 6858WAT    LP134289   6.173   6.138   1.400
 6858WAT    LP234290   6.261   6.165   1.332
 6859WAT     OW34291   2.296   5.356   1.720
 6859WAT    HW134292   2.328   5.366   1.810
 6859WAT    HW234293   2.258   5.268   1.717
 6859WAT    LP134294   2.247   5.404   1.705
 6859WAT    LP234295   2.349   5.362   1.674
 6860WAT     OW34296   6.099   0.055   1.710
 6860WAT    HW134297   6.135  -0.032   1.694
 6860WAT    HW234298   6.176   0.110   1.725
 6860WAT    LP134299   6.063   0.078   1.655
 6860WAT    LP234300   6.058   0.055   1.767
 6861WAT     OW34301   4.869   6.629   1.311
 6861WAT    HW134302   4.963   6.637   1.322
 6861WAT    HW234303   4.847   6.692   1.243
 6861WAT    LP134304   4.851   6.564   1.291
 6861WAT    LP234305   4.836   6.644   1.371
 6862WAT     OW34306   3.244   1.829   6.447
 6862WAT    HW134307   3.169   1.838   6.388
 6862WAT    HW234308   3.229   1.896   6.514
 6862WAT    LP134309   3.245   1.765   6.476
 6862WAT    LP234310   3.304   1.841   6.413
 6863WAT     OW34311   6.396   4.058   0.569
 6863WAT    HW134312   6.469   4.029   0.516
 6863WAT    HW234313   6.421   4.146   0.599
 6863WAT    LP134314   6.337   4.061   0.531
 6863WAT    LP234315   6.386   4.016   0.624
 6864WAT     OW34316   0.994   3.753   6.596
 6864WAT    HW134317   0.976   3.662   6.573
 6864WAT    HW234318   1.045   3.786   6.522
 6864WAT    LP134319   0.934   3.789   6.603
 6864WAT    LP234320   1.031   3.757   6.655
 6865WAT     OW34321   3.388   6.531   6.433
 6865WAT    HW134322   3.411   6.619   6.461
 6865WAT    HW234323   3.308   6.510   6.482
 6865WAT    LP134324   3.375   6.530   6.364
 6865WAT    LP234325   3.438   6.486   6.448
 6866WAT     OW34326   1.624   3.487   1.663
 6866WAT    HW134327   1.655   3.496   1.754
 6866WAT    HW234328   1.551   3.426   1.668
 6866WAT    LP134329   1.603   3.549   1.638
 6866WAT    LP234330   1.675   3.461   1.623
 6867WAT     OW34331   2.510   2.615   2.645
 6867WAT    HW134332   2.483   2.524   2.632
 6867WAT    HW234333   2.606   2.613   2.637
 6867WAT    LP134334   2.482   2.657   2.597
 6867WAT    LP234335   2.491   2.637   2.709
 6868WAT     OW34336   5.200   0.805   5.082
 6868WAT    HW134337   5.178   0.712   5.093
 6868WAT    HW234338   5.250   0.808   5.000
 6868WAT    LP134339   5.142   0.844   5.077
 6868WAT    LP234340   5.239   0.828   5.135
 6869WAT     OW34341   3.449   1.763   4.940
 6869WAT    HW134342   3.483   1.802   5.021
 6869WAT    HW234343   3.519   1.704   4.911
 6869WAT    LP134344   3.390   1.727   4.953
 6869WAT    LP234345   3.436   1.812   4.893
 6870WAT     OW34346   5.807   5.019   5.350
 6870WAT    HW134347   5.859   4.959   5.405
 6870WAT    HW234348   5.829   4.993   5.261
 6870WAT    LP134349   5.738   5.010   5.363
 6870WAT    LP234350   5.825   5.085   5.362
 6871WAT     OW34351   4.792   2.742   6.051
 6871WAT    HW134352   4.873   2.691   6.056
 6871WAT    HW234353   4.747   2.723   6.133
 6871WAT    LP134354   4.807   2.810   6.046
 6871WAT    LP234355   4.754   2.721   5.996
 6872WAT     OW34356   6.358   3.202   6.122
 6872WAT    HW134357   6.391   3.134   6.063
 6872WAT    HW234358   6.404   3.186   6.204
 6872WAT    LP134359   6.374   3.266   6.097
 6872WAT    LP234360   6.289   3.197   6.130
 6873WAT     OW34361   1.193   5.530   3.335
 6873WAT    HW134362   1.155   5.445   3.355
 6873WAT    HW234363   1.254   5.546   3.408
 6873WAT    LP134364   1.228   5.528   3.274
 6873WAT    LP234365   1.144   5.579   3.333
 6874WAT     OW34366   5.688   0.303   6.002
 6874WAT    HW134367   5.593   0.316   5.996
 6874WAT    HW234368   5.725   0.391   5.993
 6874WAT    LP134369   5.705   0.275   6.063
 6874WAT    LP234370   5.710   0.262   5.950
 6875WAT     OW34371   4.685   3.332   2.522
 6875WAT    HW134372   4.681   3.261   2.458
 6875WAT    HW234373   4.777   3.356   2.525
 6875WAT    LP134374   4.646   3.386   2.501
 6875WAT    LP234375   4.663   3.310   2.584
 6876WAT     OW34376   2.508   3.676   5.750
 6876WAT    HW134377   2.424   3.713   5.722
 6876WAT    HW234378   2.510   3.692   5.844
 6876WAT    LP134379   2.510   3.608   5.737
 6876WAT    LP234380   2.561   3.708   5.718
 6877WAT     OW34381   1.953   4.078   4.345
 6877WAT    HW134382   1.882   4.020   4.319
 6877WAT    HW234383   2.019   4.020   4.383
 6877WAT    LP134384   1.979   4.112   4.290
 6877WAT    LP234385   1.931   4.124   4.393
 6878WAT     OW34386   4.438   4.404   2.937
 6878WAT    HW134387   4.443   4.333   3.000
 6878WAT    HW234388   4.510   4.387   2.876
 6878WAT    LP134389   4.377   4.404   2.903
 6878WAT    LP234390   4.447   4.466   2.968
 6879WAT     OW34391   5.792   3.427   2.597
 6879WAT    HW134392   5.835   3.364   2.540
 6879WAT    HW234393   5.746   3.373   2.662
 6879WAT    LP134394   5.838   3.469   2.627
 6879WAT    LP234395   5.746   3.466   2.560
 6880WAT     OW34396   1.415   6.116   5.692
 6880WAT    HW134397   1.420   6.066   5.610
 6880WAT    HW234398   1.326   6.153   5.693
 6880WAT    LP134399   1.425   6.075   5.747
 6880WAT    LP234400   1.463   6.167   5.692
 6881WAT     OW34401   5.538   5.766   2.025
 6881WAT    HW134402   5.545   5.683   2.072
 6881WAT    HW234403   5.517   5.741   1.935
 6881WAT    LP134404   5.487   5.806   2.052
 6881WAT    LP234405   5.599   5.801   2.027
 6882WAT     OW34406   1.971   1.595   0.363
 6882WAT    HW134407   2.009   1.571   0.448
 6882WAT    HW234408   1.876   1.586   0.376
 6882WAT    LP134409   1.987   1.661   0.347
 6882WAT    LP234410   1.993   1.553   0.313
 6883WAT     OW34411   2.149   4.658   1.505
 6883WAT    HW134412   2.144   4.734   1.447
 6883WAT    HW234413   2.185   4.588   1.450
 6883WAT    LP134414   2.191   4.671   1.559
 6883WAT    LP234415   2.085   4.640   1.528
 6884WAT     OW34416   5.083   3.645   4.854
 6884WAT    HW134417   5.157   3.704   4.868
 6884WAT    HW234418   5.122   3.566   4.816
 6884WAT    LP134419   5.051   3.630   4.914
 6884WAT    LP234420   5.036   3.673   4.809
 6885WAT     OW34421   2.896   5.968   6.146
 6885WAT    HW134422   2.824   6.008   6.195
 6885WAT    HW234423   2.865   5.880   6.124
 6885WAT    LP134424   2.911   6.005   6.089
 6885WAT    LP234425   2.954   5.964   6.186
 6886WAT     OW34426   6.594   6.506   0.285
 6886WAT    HW134427   6.631   6.498   0.197
 6886WAT    HW234428   6.616   6.423   0.328
 6886WAT    LP134429   6.623   6.560   0.319
 6886WAT    LP234430   6.525   6.515   0.282
 6887WAT     OW34431   5.179   6.601   3.825
 6887WAT    HW134432   5.242   6.534   3.798
 6887WAT    HW234433   5.094   6.569   3.794
 6887WAT    LP134434   5.179   6.609   3.894
 6887WAT    LP234435   5.195   6.662   3.794
 6888WAT     OW34436   4.345   3.697   4.677
 6888WAT    HW134437   4.329   3.669   4.587
 6888WAT    HW234438   4.424   3.751   4.672
 6888WAT    LP134439   4.291   3.735   4.701
 6888WAT    LP234440   4.356   3.642   4.719
 6889WAT     OW34441   5.862   4.711   0.607
 6889WAT    HW134442   5.858   4.793   0.558
 6889WAT    HW234443   5.784   4.663   0.579
 6889WAT    LP134444   5.920   4.675   0.591
 6889WAT    LP234445   5.860   4.723   0.676
 6890WAT     OW34446   6.685   3.686   0.056
 6890WAT    HW134447   6.728   3.738  -0.011
 6890WAT    HW234448   6.671   3.601   0.014
 6890WAT    LP134449   6.726   3.679   0.112
 6890WAT    LP234450   6.624   3.715   0.075
 6891WAT     OW34451   1.210   1.219   5.045
 6891WAT    HW134452   1.292   1.208   5.092
 6891WAT    HW234453   1.234   1.263   4.963
 6891WAT    LP134454   1.181   1.156   5.031
 6891WAT    LP234455   1.165   1.258   5.081
 6892WAT     OW34456   4.262   0.064   5.298
 6892WAT    HW134457   4.275  -0.000   5.367
 6892WAT    HW234458   4.350   0.084   5.266
 6892WAT    LP134459   4.222   0.038   5.246
 6892WAT    LP234460   4.231   0.122   5.323
 6893WAT     OW34461   1.389   2.482   1.844
 6893WAT    HW134462   1.420   2.449   1.760
 6893WAT    HW234463   1.302   2.518   1.825
 6893WAT    LP134464   1.385   2.430   1.891
 6893WAT    LP234465   1.431   2.532   1.868
 6894WAT     OW34466   2.893   2.979   4.643
 6894WAT    HW134467   2.803   2.953   4.663
 6894WAT    HW234468   2.919   2.921   4.572
 6894WAT    LP134469   2.895   3.046   4.622
 6894WAT    LP234470   2.934   2.971   4.699
 6895WAT     OW34471   6.402   1.096   0.685
 6895WAT    HW134472   6.385   1.172   0.629
 6895WAT    HW234473   6.489   1.066   0.659
 6895WAT    LP134474   6.401   1.115   0.752
 6895WAT    LP234475   6.354   1.046   0.674
 6896WAT     OW34476   2.622   4.304   5.728
 6896WAT    HW134477   2.677   4.304   5.650
 6896WAT    HW234478   2.563   4.230   5.717
 6896WAT    LP134479   2.661   4.297   5.786
 6896WAT    LP234480   2.585   4.364   5.733
 6897WAT     OW34481   6.605   4.652   0.335
 6897WAT    HW134482   6.573   4.602   0.410
 6897WAT    HW234483   6.652   4.726   0.374
 6897WAT    LP134484   6.649   4.614   0.296
 6897WAT    LP234485   6.552   4.675   0.296
 6898WAT     OW34486   1.102   6.480   3.731
 6898WAT    HW134487   1.025   6.478   3.788
 6898WAT    HW234488   1.169   6.433   3.780
 6898WAT    LP134489   1.088   6.447   3.671
 6898WAT    LP234490   1.122   6.545   3.719
 6899WAT     OW34491   4.427   6.063   5.541
 6899WAT    HW134492   4.371   6.063   5.618
 6899WAT    HW234493   4.516   6.052   5.575
 6899WAT    LP134494   4.411   6.010   5.498
 6899WAT    LP234495   4.422   6.124   5.506
 6900WAT     OW34496   4.251   2.304   2.760
 6900WAT    HW134497   4.183   2.320   2.694
 6900WAT    HW234498   4.218   2.346   2.839
 6900WAT    LP134499   4.260   2.235   2.770
 6900WAT    LP234500   4.311   2.333   2.739
 6901WAT     OW34501   1.877   2.925   3.849
 6901WAT    HW134502   1.951   2.967   3.891
 6901WAT    HW234503   1.814   2.995   3.833
 6901WAT    LP134504   1.896   2.895   3.788
 6901WAT    LP234505   1.849   2.876   3.891
 6902WAT     OW34506   2.501   0.937   4.386
 6902WAT    HW134507   2.551   0.871   4.338
 6902WAT    HW234508   2.548   0.947   4.469
 6902WAT    LP134509   2.499   0.997   4.351
 6902WAT    LP234510   2.436   0.914   4.398
 6903WAT     OW34511   2.937   4.482   6.268
 6903WAT    HW134512   2.860   4.431   6.242
 6903WAT    HW234513   3.009   4.420   6.265
 6903WAT    LP134514   2.948   4.535   6.224
 6903WAT    LP234515   2.928   4.507   6.333
 6904WAT     OW34516   4.521   2.441   4.288
 6904WAT    HW134517   4.577   2.429   4.211
 6904WAT    HW234518   4.543   2.528   4.321
 6904WAT    LP134519   4.453   2.438   4.270
 6904WAT    LP234520   4.534   2.392   4.336
 6905WAT     OW34521   0.726   2.285   2.582
 6905WAT    HW134522   0.675   2.234   2.646
 6905WAT    HW234523   0.777   2.219   2.535
 6905WAT    LP134524   0.683   2.319   2.538
 6905WAT    LP234525   0.768   2.330   2.614
 6906WAT     OW34526   3.955   0.372   1.772
 6906WAT    HW134527   4.016   0.377   1.698
 6906WAT    HW234528   3.891   0.441   1.756
 6906WAT    LP134529   3.924   0.309   1.775
 6906WAT    LP234530   3.989   0.384   1.833
 6907WAT     OW34531   0.756   1.570   1.206
 6907WAT    HW134532   0.684   1.627   1.232
 6907WAT    HW234533   0.761   1.579   1.111
 6907WAT    LP134534   0.816   1.590   1.236
 6907WAT    LP234535   0.743   1.504   1.223
 6908WAT     OW34536   6.188   0.364   2.341
 6908WAT    HW134537   6.246   0.291   2.364
 6908WAT    HW234538   6.124   0.368   2.412
 6908WAT    LP134539   6.224   0.424   2.337
 6908WAT    LP234540   6.156   0.352   2.280
 6909WAT     OW34541   1.330   3.603   0.351
 6909WAT    HW134542   1.239   3.575   0.348
 6909WAT    HW234543   1.339   3.648   0.435
 6909WAT    LP134544   1.374   3.548   0.347
 6909WAT    LP234545   1.344   3.647   0.298
 6910WAT     OW34546   4.659   1.338   1.313
 6910WAT    HW134547   4.719   1.325   1.239
 6910WAT    HW234548   4.612   1.255   1.321
 6910WAT    LP134549   4.695   1.352   1.371
 6910WAT    LP234550   4.614   1.390   1.299
 6911WAT     OW34551   1.286   4.675   3.650
 6911WAT    HW134552   1.350   4.680   3.580
 6911WAT    HW234553   1.226   4.604   3.624
 6911WAT    LP134554   1.317   4.659   3.711
 6911WAT    LP234555   1.251   4.735   3.657
 6912WAT     OW34556   5.381   2.506   6.375
 6912WAT    HW134557   5.323   2.580   6.360
 6912WAT    HW234558   5.450   2.515   6.309
 6912WAT    LP134559   5.408   2.509   6.440
 6912WAT    LP234560   5.347   2.445   6.367
 6913WAT     OW34561   4.387   3.659   4.006
 6913WAT    HW134562   4.293   3.644   4.000
 6913WAT    HW234563   4.426   3.573   3.992
 6913WAT    LP134564   4.408   3.704   3.956
 6913WAT    LP234565   4.404   3.685   4.068
 6914WAT     OW34566   2.293   2.959   0.953
 6914WAT    HW134567   2.331   2.937   0.868
 6914WAT    HW234568   2.369   2.984   1.007
 6914WAT    LP134569   2.248   3.012   0.948
 6914WAT    LP234570   2.260   2.904   0.981
 6915WAT     OW34571   2.191   6.537   4.194
 6915WAT    HW134572   2.237   6.569   4.116
 6915WAT    HW234573   2.260   6.524   4.259
 6915WAT    LP134574   2.144   6.585   4.216
 6915WAT    LP234575   2.158   6.477   4.180
 6916WAT     OW34576   0.641   5.535   3.730
 6916WAT    HW134577   0.726   5.560   3.766
 6916WAT    HW234578   0.587   5.613   3.739
 6916WAT    LP134579   0.647   5.516   3.663
 6916WAT    LP234580   0.614   5.481   3.766
 6917WAT     OW34581   2.038   6.417   3.812
 6917WAT    HW134582   2.041   6.512   3.824
 6917WAT    HW234583   2.070   6.382   3.896
 6917WAT    LP134584   1.973   6.396   3.800
 6917WAT    LP234585   2.080   6.397   3.760
 6918WAT     OW34586   6.654   1.655   4.770
 6918WAT    HW134587   6.659   1.604   4.851
 6918WAT    HW234588   6.570   1.631   4.732
 6918WAT    LP134589   6.656   1.724   4.784
 6918WAT    LP234590   6.706   1.639   4.727
 6919WAT     OW34591   5.702   6.535   5.436
 6919WAT    HW134592   5.785   6.509   5.475
 6919WAT    HW234593   5.637   6.522   5.505
 6919WAT    LP134594   5.704   6.602   5.416
 6919WAT    LP234595   5.688   6.495   5.380
 6920WAT     OW34596   1.614   3.341   2.855
 6920WAT    HW134597   1.597   3.367   2.765
 6920WAT    HW234598   1.698   3.295   2.852
 6920WAT    LP134599   1.618   3.397   2.897
 6920WAT    LP234600   1.564   3.298   2.878
 6921WAT     OW34601   0.859   2.431   0.325
 6921WAT    HW134602   0.903   2.473   0.399
 6921WAT    HW234603   0.774   2.474   0.319
 6921WAT    LP134604   0.896   2.441   0.266
 6921WAT    LP234605   0.851   2.362   0.336
 6922WAT     OW34606   2.473   5.597   3.559
 6922WAT    HW134607   2.448   5.681   3.520
 6922WAT    HW234608   2.560   5.612   3.595
 6922WAT    LP134609   2.428   5.580   3.611
 6922WAT    LP234610   2.474   5.546   3.511
 6923WAT     OW34611   1.913   3.252   5.023
 6923WAT    HW134612   1.826   3.275   5.055
 6923WAT    HW234613   1.906   3.254   4.928
 6923WAT    LP134614   1.961   3.299   5.045
 6923WAT    LP234615   1.931   3.188   5.045
 6924WAT     OW34616   6.142   5.823   1.614
 6924WAT    HW134617   6.230   5.838   1.578
 6924WAT    HW234618   6.090   5.794   1.539
 6924WAT    LP134619   6.144   5.773   1.664
 6924WAT    LP234620   6.116   5.882   1.641
 6925WAT     OW34621   5.036   3.433   5.450
 6925WAT    HW134622   5.001   3.354   5.407
 6925WAT    HW234623   4.974   3.450   5.521
 6925WAT    LP134624   5.100   3.421   5.475
 6925WAT    LP234625   5.038   3.486   5.405
 6926WAT     OW34626   6.242   0.214   4.867
 6926WAT    HW134627   6.235   0.163   4.786
 6926WAT    HW234628   6.183   0.288   4.854
 6926WAT    LP134629   6.222   0.175   4.922
 6926WAT    LP234630   6.308   0.236   4.876
 6927WAT     OW34631   1.925   0.336   4.559
 6927WAT    HW134632   1.962   0.411   4.606
 6927WAT    HW234633   1.875   0.289   4.626
 6927WAT    LP134634   1.883   0.357   4.507
 6927WAT    LP234635   1.976   0.296   4.534
 6928WAT     OW34636   3.004   2.829   4.436
 6928WAT    HW134637   3.091   2.850   4.402
 6928WAT    HW234638   3.014   2.742   4.476
 6928WAT    LP134639   2.984   2.876   4.484
 6928WAT    LP234640   2.957   2.827   4.385
 6929WAT     OW34641   3.506   2.554   2.060
 6929WAT    HW134642   3.452   2.629   2.036
 6929WAT    HW234643   3.593   2.576   2.029
 6929WAT    LP134644   3.506   2.545   2.130
 6929WAT    LP234645   3.482   2.495   2.029
 6930WAT     OW34646   4.553   3.159   0.784
 6930WAT    HW134647   4.590   3.207   0.859
 6930WAT    HW234648   4.469   3.204   0.767
 6930WAT    LP134649   4.595   3.163   0.729
 6930WAT    LP234650   4.542   3.092   0.801
 6931WAT     OW34651   1.106   1.933   2.798
 6931WAT    HW134652   1.061   1.898   2.721
 6931WAT    HW234653   1.051   1.906   2.872
 6931WAT    LP134654   1.170   1.905   2.804
 6931WAT    LP234655   1.111   2.003   2.795
 6932WAT     OW34656   4.821   3.256   6.251
 6932WAT    HW134657   4.889   3.275   6.186
 6932WAT    HW234658   4.866   3.204   6.317
 6932WAT    LP134659   4.797   3.316   6.279
 6932WAT    LP234660   4.768   3.221   6.222
 6933WAT     OW34661   3.329   6.639   2.999
 6933WAT    HW134662   3.397   6.692   3.039
 6933WAT    HW234663   3.324   6.561   3.055
 6933WAT    LP134664   3.268   6.672   2.999
 6933WAT    LP234665   3.346   6.621   2.934
 6934WAT     OW34666   6.106   5.158   2.695
 6934WAT    HW134667   6.180   5.168   2.754
 6934WAT    HW234668   6.029   5.171   2.751
 6934WAT    LP134669   6.108   5.205   2.644
 6934WAT    LP234670   6.105   5.093   2.667
 6935WAT     OW34671   6.342   0.008   1.937
 6935WAT    HW134672   6.357   0.040   2.026
 6935WAT    HW234673   6.325   0.087   1.886
 6935WAT    LP134674   6.399  -0.025   1.913
 6935WAT    LP234675   6.287  -0.035   1.936
 6936WAT     OW34676   0.501   0.949   6.321
 6936WAT    HW134677   0.499   0.854   6.321
 6936WAT    HW234678   0.576   0.973   6.374
 6936WAT    LP134679   0.508   0.974   6.255
 6936WAT    LP234680   0.442   0.975   6.348
 6937WAT     OW34681   0.514   5.067   5.179
 6937WAT    HW134682   0.543   5.041   5.266
 6937WAT    HW234683   0.418   5.062   5.184
 6937WAT    LP134684   0.534   5.133   5.165
 6937WAT    LP234685   0.539   5.024   5.130
 6938WAT     OW34686   4.450   1.571   1.909
 6938WAT    HW134687   4.536   1.551   1.946
 6938WAT    HW234688   4.469   1.606   1.822
 6938WAT    LP134689   4.410   1.514   1.905
 6938WAT    LP234690   4.417   1.619   1.948
 6939WAT     OW34691   4.688   3.685   3.355
 6939WAT    HW134692   4.615   3.743   3.336
 6939WAT    HW234693   4.765   3.731   3.320
 6939WAT    LP134694   4.695   3.676   3.424
 6939WAT    LP234695   4.680   3.623   3.324
 6940WAT     OW34696   3.555   6.053   5.730
 6940WAT    HW134697   3.540   6.007   5.647
 6940WAT    HW234698   3.478   6.109   5.740
 6940WAT    LP134699   3.560   6.008   5.783
 6940WAT    LP234700   3.613   6.092   5.727
 6941WAT     OW34701   0.662   5.854   1.984
 6941WAT    HW134702   0.678   5.934   2.035
 6941WAT    HW234703   0.680   5.879   1.894
 6941WAT    LP134704   0.705   5.802   2.005
 6941WAT    LP234705   0.596   5.833   1.991
 6942WAT     OW34706   1.152   3.891   1.100
 6942WAT    HW134707   1.127   3.936   1.180
 6942WAT    HW234708   1.146   3.957   1.031
 6942WAT    LP134709   1.217   3.866   1.104
 6942WAT    LP234710   1.108   3.838   1.087
 6943WAT     OW34711   1.115   0.516   1.741
 6943WAT    HW134712   1.143   0.500   1.831
 6943WAT    HW234713   1.045   0.453   1.725
 6943WAT    LP134714   1.091   0.582   1.735
 6943WAT    LP234715   1.168   0.506   1.697
 6944WAT     OW34716   0.239   2.035   1.909
 6944WAT    HW134717   0.293   1.959   1.931
 6944WAT    HW234718   0.290   2.083   1.844
 6944WAT    LP134719   0.177   2.015   1.882
 6944WAT    LP234720   0.228   2.075   1.966
 6945WAT     OW34721   2.731   2.892   2.061
 6945WAT    HW134722   2.665   2.908   2.129
 6945WAT    HW234723   2.774   2.811   2.088
 6945WAT    LP134724   2.701   2.884   1.999
 6945WAT    LP234725   2.776   2.945   2.059
 6946WAT     OW34726   5.039   1.013   0.929
 6946WAT    HW134727   5.052   0.921   0.904
 6946WAT    HW234728   5.007   1.055   0.850
 6946WAT    LP134729   4.993   1.018   0.981
 6946WAT    LP234730   5.100   1.041   0.950
 6947WAT     OW34731   2.970   0.635   2.031
 6947WAT    HW134732   3.019   0.593   2.102
 6947WAT    HW234733   2.955   0.565   1.968
 6947WAT    LP134734   2.910   0.661   2.054
 6947WAT    LP234735   3.008   0.687   2.002
 6948WAT     OW34736   0.180   2.757   1.943
 6948WAT    HW134737   0.154   2.706   2.020
 6948WAT    HW234738   0.217   2.838   1.980
 6948WAT    LP134739   0.228   2.723   1.906
 6948WAT    LP234740   0.125   2.771   1.903
 6949WAT     OW34741   5.044   6.243   3.164
 6949WAT    HW134742   5.112   6.291   3.212
 6949WAT    HW234743   5.036   6.160   3.212
 6949WAT    LP134744   4.984   6.278   3.165
 6949WAT    LP234745   5.064   6.232   3.098
 6950WAT     OW34746   5.541   5.395   5.667
 6950WAT    HW134747   5.497   5.359   5.743
 6950WAT    HW234748   5.595   5.466   5.701
 6950WAT    LP134749   5.581   5.347   5.636
 6950WAT    LP234750   5.494   5.420   5.621
 6951WAT     OW34751   1.181   1.084   1.237
 6951WAT    HW134752   1.123   1.160   1.229
 6951WAT    HW234753   1.122   1.009   1.240
 6951WAT    LP134754   1.224   1.080   1.181
 6951WAT    LP234755   1.220   1.088   1.295
 6952WAT     OW34756   1.681   1.451   4.033
 6952WAT    HW134757   1.749   1.388   4.054
 6952WAT    HW234758   1.722   1.536   4.047
 6952WAT    LP134759   1.660   1.445   3.967
 6952WAT    LP234760   1.625   1.444   4.076
 6953WAT     OW34761   5.125   6.461   5.652
 6953WAT    HW134762   5.157   6.530   5.594
 6953WAT    HW234763   5.144   6.493   5.740
 6953WAT    LP134764   5.056   6.452   5.643
 6953WAT    LP234765   5.159   6.401   5.640
 6954WAT     OW34766   0.236   0.103   0.826
 6954WAT    HW134767   0.201   0.106   0.915
 6954WAT    HW234768   0.274   0.189   0.812
 6954WAT    LP134769   0.285   0.053   0.820
 6954WAT    LP234770   0.185   0.091   0.780
 6955WAT     OW34771   5.649   1.298   0.215
 6955WAT    HW134772   5.587   1.370   0.227
 6955WAT    HW234773   5.721   1.337   0.165
 6955WAT    LP134774   5.672   1.275   0.277
 6955WAT    LP234775   5.620   1.245   0.179
 6956WAT     OW34776   5.516   1.751   5.140
 6956WAT    HW134777   5.421   1.742   5.154
 6956WAT    HW234778   5.548   1.661   5.136
 6956WAT    LP134779   5.529   1.785   5.080
 6956WAT    LP234780   5.545   1.786   5.194
 6957WAT     OW34781   0.126   1.756   4.691
 6957WAT    HW134782   0.061   1.686   4.681
 6957WAT    HW234783   0.075   1.833   4.717
 6957WAT    LP134784   0.172   1.739   4.741
 6957WAT    LP234785   0.159   1.768   4.631
 6958WAT     OW34786   0.593   5.528   2.251
 6958WAT    HW134787   0.497   5.532   2.248
 6958WAT    HW234788   0.619   5.610   2.294
 6958WAT    LP134789   0.614   5.473   2.287
 6958WAT    LP234790   0.619   5.525   2.186
 6959WAT     OW34791   2.538   5.091   4.180
 6959WAT    HW134792   2.558   5.103   4.088
 6959WAT    HW234793   2.442   5.090   4.185
 6959WAT    LP134794   2.564   5.030   4.203
 6959WAT    LP234795   2.564   5.143   4.219
 6960WAT     OW34796   0.159   1.157   2.329
 6960WAT    HW134797   0.137   1.214   2.255
 6960WAT    HW234798   0.153   1.068   2.294
 6960WAT    LP134799   0.224   1.170   2.352
 6960WAT    LP234800   0.113   1.165   2.382
 6961WAT     OW34801   0.927   1.866   2.995
 6961WAT    HW134802   0.911   1.858   3.089
 6961WAT    HW234803   0.876   1.942   2.968
 6961WAT    LP134804   0.995   1.876   2.982
 6961WAT    LP234805   0.906   1.808   2.962
 6962WAT     OW34806   5.560   4.056   1.514
 6962WAT    HW134807   5.535   3.980   1.461
 6962WAT    HW234808   5.479   4.106   1.525
 6962WAT    LP134809   5.585   4.035   1.576
 6962WAT    LP234810   5.609   4.094   1.481
 6963WAT     OW34811   6.216   0.645   0.312
 6963WAT    HW134812   6.187   0.667   0.224
 6963WAT    HW234813   6.166   0.704   0.369
 6963WAT    LP134814   6.201   0.579   0.327
 6963WAT    LP234815   6.285   0.656   0.319
 6964WAT     OW34816   0.933   6.567   2.562
 6964WAT    HW134817   0.952   6.610   2.646
 6964WAT    HW234818   0.842   6.540   2.569
 6964WAT    LP134819   0.941   6.612   2.509
 6964WAT    LP234820   0.975   6.512   2.553
 6965WAT     OW34821   5.635   4.650   2.969
 6965WAT    HW134822   5.541   4.638   2.957
 6965WAT    HW234823   5.647   4.654   3.064
 6965WAT    LP134824   5.671   4.595   2.943
 6965WAT    LP234825   5.657   4.709   2.939
 6966WAT     OW34826   3.755   3.131   5.729
 6966WAT    HW134827   3.757   3.218   5.688
 6966WAT    HW234828   3.785   3.072   5.660
 6966WAT    LP134829   3.799   3.129   5.783
 6966WAT    LP234830   3.691   3.115   5.750
 6967WAT     OW34831   2.194   1.167   4.600
 6967WAT    HW134832   2.200   1.079   4.563
 6967WAT    HW234833   2.272   1.175   4.655
 6967WAT    LP134834   2.194   1.215   4.550
 6967WAT    LP234835   2.135   1.174   4.639
 6968WAT     OW34836   0.528   2.375   0.532
 6968WAT    HW134837   0.555   2.423   0.454
 6968WAT    HW234838   0.433   2.366   0.523
 6968WAT    LP134839   0.559   2.312   0.534
 6968WAT    LP234840   0.544   2.411   0.590
 6969WAT     OW34841   2.216   2.374   1.831
 6969WAT    HW134842   2.143   2.421   1.871
 6969WAT    HW234843   2.250   2.433   1.764
 6969WAT    LP134844   2.265   2.360   1.879
 6969WAT    LP234845   2.193   2.314   1.803
 6970WAT     OW34846   5.705   5.274   1.159
 6970WAT    HW134847   5.694   5.367   1.180
 6970WAT    HW234848   5.774   5.245   1.218
 6970WAT    LP134849   5.645   5.239   1.171
 6970WAT    LP234850   5.723   5.266   1.092
 6971WAT     OW34851   3.503   0.586   1.415
 6971WAT    HW134852   3.423   0.610   1.369
 6971WAT    HW234853   3.476   0.574   1.506
 6971WAT    LP134854   3.530   0.526   1.389
 6971WAT    LP234855   3.551   0.637   1.409
 6972WAT     OW34856   2.251   4.245   5.227
 6972WAT    HW134857   2.329   4.200   5.191
 6972WAT    HW234858   2.198   4.265   5.150
 6972WAT    LP134859   2.217   4.202   5.270
 6972WAT    LP234860   2.270   4.303   5.261
 6973WAT     OW34861   3.044   1.970   2.712
 6973WAT    HW134862   2.986   2.045   2.723
 6973WAT    HW234863   3.123   1.993   2.762
 6973WAT    LP134864   3.015   1.912   2.738
 6973WAT    LP234865   3.060   1.960   2.645
 6974WAT     OW34866   3.844   0.840   2.877
 6974WAT    HW134867   3.920   0.783   2.888
 6974WAT    HW234868   3.835   0.849   2.782
 6974WAT    LP134869   3.787   0.810   2.904
 6974WAT    LP234870   3.855   0.902   2.907
 6975WAT     OW34871   6.528   0.980   0.362
 6975WAT    HW134872   6.530   0.886   0.343
 6975WAT    HW234873   6.569   0.988   0.448
 6975WAT    LP134874   6.565   1.015   0.314
 6975WAT    LP234875   6.462   1.004   0.363
 6976WAT     OW34876   0.806   3.131   3.510
 6976WAT    HW134877   0.830   3.098   3.596
 6976WAT    HW234878   0.725   3.179   3.524
 6976WAT    LP134879   0.856   3.173   3.485
 6976WAT    LP234880   0.797   3.078   3.465
 6977WAT     OW34881   6.547   2.215   3.921
 6977WAT    HW134882   6.484   2.287   3.927
 6977WAT    HW234883   6.595   2.218   4.004
 6977WAT    LP134884   6.514   2.153   3.914
 6977WAT    LP234885   6.591   2.224   3.867
 6978WAT     OW34886   2.770   4.150   5.267
 6978WAT    HW134887   2.731   4.210   5.204
 6978WAT    HW234888   2.865   4.161   5.254
 6978WAT    LP134889   2.752   4.167   5.332
 6978WAT    LP234890   2.751   4.084   5.254
 6979WAT     OW34891   0.201   6.181   2.030
 6979WAT    HW134892   0.236   6.246   1.969
 6979WAT    HW234893   0.120   6.219   2.063
 6979WAT    LP134894   0.188   6.120   1.997
 6979WAT    LP234895   0.246   6.169   2.083
 6980WAT     OW34896   5.468   1.723   1.846
 6980WAT    HW134897   5.414   1.657   1.803
 6980WAT    HW234898   5.407   1.778   1.894
 6980WAT    LP134899   5.514   1.693   1.889
 6980WAT    LP234900   5.503   1.761   1.798
 6981WAT     OW34901   4.091   5.251   3.112
 6981WAT    HW134902   4.015   5.211   3.154
 6981WAT    HW234903   4.160   5.186   3.119
 6981WAT    LP134904   4.077   5.265   3.044
 6981WAT    LP234905   4.109   5.311   3.144
 6982WAT     OW34906   5.172   2.710   6.261
 6982WAT    HW134907   5.146   2.802   6.252
 6982WAT    HW234908   5.142   2.684   6.348
 6982WAT    LP134909   5.142   2.671   6.211
 6982WAT    LP234910   5.242   2.704   6.257
 6983WAT     OW34911   0.570   4.934   3.606
 6983WAT    HW134912   0.541   4.951   3.516
 6983WAT    HW234913   0.554   4.841   3.620
 6983WAT    LP134914   0.639   4.948   3.613
 6983WAT    LP234915   0.534   4.973   3.652
 6984WAT     OW34916   1.136   2.864   2.782
 6984WAT    HW134917   1.195   2.789   2.790
 6984WAT    HW234918   1.194   2.939   2.766
 6984WAT    LP134919   1.092   2.855   2.729
 6984WAT    LP234920   1.100   2.874   2.841
 6985WAT     OW34921   4.299   0.915   1.066
 6985WAT    HW134922   4.279   0.856   1.138
 6985WAT    HW234923   4.387   0.889   1.038
 6985WAT    LP134924   4.254   0.906   1.013
 6985WAT    LP234925   4.298   0.982   1.087
 6986WAT     OW34926   3.389   2.144   5.050
 6986WAT    HW134927   3.317   2.084   5.071
 6986WAT    HW234928   3.346   2.228   5.035
 6986WAT    LP134929   3.434   2.148   5.104
 6986WAT    LP234930   3.423   2.122   4.993
 6987WAT     OW34931   5.663   6.058   4.945
 6987WAT    HW134932   5.646   6.148   4.971
 6987WAT    HW234933   5.686   6.014   5.027
 6987WAT    LP134934   5.606   6.028   4.917
 6987WAT    LP234935   5.716   6.054   4.900
 6988WAT     OW34936   5.220   0.241   4.183
 6988WAT    HW134937   5.134   0.232   4.225
 6988WAT    HW234938   5.245   0.152   4.159
 6988WAT    LP134939   5.215   0.282   4.126
 6988WAT    LP234940   5.266   0.269   4.228
 6989WAT     OW34941   6.412   1.992   3.829
 6989WAT    HW134942   6.468   2.063   3.860
 6989WAT    HW234943   6.341   1.987   3.893
 6989WAT    LP134944   6.387   2.006   3.765
 6989WAT    LP234945   6.448   1.932   3.827
 6990WAT     OW34946   4.746   6.495   0.121
 6990WAT    HW134947   4.817   6.547   0.159
 6990WAT    HW234948   4.673   6.557   0.110
 6990WAT    LP134949   4.765   6.469   0.059
 6990WAT    LP234950   4.728   6.443   0.164
 6991WAT     OW34951   5.943   3.454   0.773
 6991WAT    HW134952   6.014   3.389   0.777
 6991WAT    HW234953   5.985   3.533   0.741
 6991WAT    LP134954   5.893   3.433   0.729
 6991WAT    LP234955   5.916   3.464   0.837
 6992WAT     OW34956   1.999   6.078   2.947
 6992WAT    HW134957   1.987   6.086   2.852
 6992WAT    HW234958   2.082   6.030   2.957
 6992WAT    LP134959   2.004   6.142   2.976
 6992WAT    LP234960   1.947   6.043   2.976
 6993WAT     OW34961   2.685   2.491   1.774
 6993WAT    HW134962   2.678   2.419   1.837
 6993WAT    HW234963   2.614   2.550   1.797
 6993WAT    LP134964   2.747   2.523   1.780
 6993WAT    LP234965   2.678   2.467   1.709
 6994WAT     OW34966   0.995   5.787   2.157
 6994WAT    HW134967   1.008   5.721   2.225
 6994WAT    HW234968   1.002   5.739   2.075
 6994WAT    LP134969   0.932   5.817   2.163
 6994WAT    LP234970   1.045   5.837   2.161
 6995WAT     OW34971   4.832   2.472   5.754
 6995WAT    HW134972   4.791   2.424   5.826
 6995WAT    HW234973   4.786   2.556   5.754
 6995WAT    LP134974   4.900   2.481   5.766
 6995WAT    LP234975   4.823   2.439   5.694
 6996WAT     OW34976   5.168   1.265   4.333
 6996WAT    HW134977   5.222   1.303   4.264
 6996WAT    HW234978   5.143   1.339   4.388
 6996WAT    LP134979   5.111   1.234   4.305
 6996WAT    LP234980   5.204   1.218   4.370
 6997WAT     OW34981   0.339   2.160   1.460
 6997WAT    HW134982   0.334   2.163   1.364
 6997WAT    HW234983   0.407   2.095   1.478
 6997WAT    LP134984   0.357   2.223   1.486
 6997WAT    LP234985   0.278   2.140   1.487
 6998WAT     OW34986   0.598   1.316   4.730
 6998WAT    HW134987   0.520   1.372   4.729
 6998WAT    HW234988   0.647   1.344   4.653
 6998WAT    LP134989   0.635   1.326   4.788
 6998WAT    LP234990   0.580   1.249   4.725
 6999WAT     OW34991   3.396   0.802   3.117
 6999WAT    HW134992   3.452   0.879   3.129
 6999WAT    HW234993   3.443   0.747   3.055
 6999WAT    LP134994   3.386   0.769   3.178
 6999WAT    LP234995   3.334   0.821   3.090
 7000WAT     OW34996   2.591   2.777   6.607
 7000WAT    HW134997   2.580   2.831   6.529
 7000WAT    HW234998   2.519   2.714   6.603
 7000WAT    LP134999   2.653   2.745   6.607
 7000WAT    LP235000   2.586   2.816   6.665
 7001WAT     OW35001   6.054   5.536   5.163
 7001WAT    HW135002   6.002   5.612   5.138
 7001WAT    HW235003   6.075   5.550   5.255
 7001WAT    LP135004   6.018   5.477   5.154
 7001WAT    LP235005   6.113   5.533   5.124
 7002WAT     OW35006   5.383   5.296   4.351
 7002WAT    HW135007   5.420   5.344   4.277
 7002WAT    HW235008   5.456   5.283   4.410
 7002WAT    LP135009   5.332   5.334   4.381
 7002WAT    LP235010   5.357   5.235   4.330
 7003WAT     OW35011   4.346   4.658   1.838
 7003WAT    HW135012   4.287   4.613   1.777
 7003WAT    HW235013   4.405   4.709   1.782
 7003WAT    LP135014   4.310   4.701   1.880
 7003WAT    LP235015   4.382   4.612   1.876
 7004WAT     OW35016   5.737   6.612   4.366
 7004WAT    HW135017   5.719   6.628   4.459
 7004WAT    HW235018   5.658   6.641   4.321
 7004WAT    LP135019   5.793   6.648   4.345
 7004WAT    LP235020   5.748   6.543   4.354
 7005WAT     OW35021   4.711   1.139   0.163
 7005WAT    HW135022   4.796   1.125   0.121
 7005WAT    HW235023   4.658   1.182   0.096
 7005WAT    LP135024   4.682   1.078   0.181
 7005WAT    LP235025   4.717   1.180   0.219
 7006WAT     OW35026   0.060   0.155   5.530
 7006WAT    HW135027   0.009   0.235   5.515
 7006WAT    HW235028   0.150   0.186   5.540
 7006WAT    LP135029   0.038   0.122   5.588
 7006WAT    LP235030   0.054   0.112   5.475
 7007WAT     OW35031   5.946   0.469   1.061
 7007WAT    HW135032   5.893   0.547   1.050
 7007WAT    HW235033   6.026   0.500   1.103
 7007WAT    LP135034   5.914   0.422   1.101
 7007WAT    LP235035   5.961   0.439   0.999
 7008WAT     OW35036   1.656   0.564   5.636
 7008WAT    HW135037   1.730   0.619   5.662
 7008WAT    HW235038   1.639   0.589   5.545
 7008WAT    LP135039   1.672   0.496   5.641
 7008WAT    LP235040   1.600   0.578   5.676
 7009WAT     OW35041   0.432   4.030   2.581
 7009WAT    HW135042   0.415   4.097   2.648
 7009WAT    HW235043   0.357   4.035   2.522
 7009WAT    LP135044   0.491   4.045   2.547
 7009WAT    LP235045   0.437   3.967   2.610
 7010WAT     OW35046   2.817   2.242   2.444
 7010WAT    HW135047   2.787   2.204   2.527
 7010WAT    HW235048   2.912   2.242   2.451
 7010WAT    LP135049   2.796   2.203   2.390
 7010WAT    LP235050   2.793   2.307   2.437
 7011WAT     OW35051   0.822   5.618   0.016
 7011WAT    HW135052   0.824   5.562   0.093
 7011WAT    HW235053   0.913   5.643   0.001
 7011WAT    LP135054   0.796   5.584  -0.039
 7011WAT    LP235055   0.783   5.675   0.028
 7012WAT     OW35056   6.398   0.173   5.780
 7012WAT    HW135057   6.377   0.194   5.689
 7012WAT    HW235058   6.435   0.084   5.775
 7012WAT    LP135059   6.445   0.218   5.805
 7012WAT    LP235060   6.341   0.174   5.820
 7013WAT     OW35061   6.370   6.621   5.106
 7013WAT    HW135062   6.301   6.685   5.120
 7013WAT    HW235063   6.339   6.543   5.151
 7013WAT    LP135064   6.378   6.608   5.037
 7013WAT    LP235065   6.431   6.643   5.133
 7014WAT     OW35066   2.785   4.131   0.470
 7014WAT    HW135067   2.832   4.214   0.470
 7014WAT    HW235068   2.764   4.116   0.378
 7014WAT    LP135069   2.825   4.079   0.494
 7014WAT    LP235070   2.727   4.135   0.508
 7015WAT     OW35071   4.714   6.477   2.492
 7015WAT    HW135072   4.638   6.500   2.438
 7015WAT    HW235073   4.742   6.560   2.531
 7015WAT    LP135074   4.697   6.431   2.541
 7015WAT    LP235075   4.765   6.450   2.452
 7016WAT     OW35076   2.799   3.560   6.601
 7016WAT    HW135077   2.720   3.566   6.654
 7016WAT    HW235078   2.769   3.527   6.516
 7016WAT    LP135079   2.829   3.623   6.594
 7016WAT    LP235080   2.845   3.516   6.630
 7017WAT     OW35081   3.751   2.250   4.038
 7017WAT    HW135082   3.695   2.178   4.064
 7017WAT    HW235083   3.709   2.287   3.961
 7017WAT    LP135084   3.755   2.298   4.089
 7017WAT    LP235085   3.816   2.228   4.023
 7018WAT     OW35086   6.161   5.210   2.227
 7018WAT    HW135087   6.069   5.197   2.203
 7018WAT    HW235088   6.173   5.158   2.306
 7018WAT    LP135089   6.204   5.188   2.176
 7018WAT    LP235090   6.174   5.278   2.241
 7019WAT     OW35091   5.206   5.147   3.405
 7019WAT    HW135092   5.243   5.073   3.357
 7019WAT    HW235093   5.206   5.120   3.496
 7019WAT    LP135094   5.245   5.204   3.396
 7019WAT    LP235095   5.140   5.160   3.383
 7020WAT     OW35096   6.676   0.251   1.028
 7020WAT    HW135097   6.672   0.242   0.932
 7020WAT    HW235098   6.719   0.335   1.042
 7020WAT    LP135099   6.612   0.251   1.055
 7020WAT    LP235100   6.713   0.199   1.055
 7021WAT     OW35101   2.830   0.611   1.625
 7021WAT    HW135102   2.778   0.537   1.657
 7021WAT    HW235103   2.820   0.609   1.530
 7021WAT    LP135104   2.806   0.671   1.652
 7021WAT    LP235105   2.898   0.603   1.643
 7022WAT     OW35106   0.188   0.080   1.096
 7022WAT    HW135107   0.270   0.115   1.129
 7022WAT    HW235108   0.121   0.117   1.154
 7022WAT    LP135109   0.177   0.101   1.030
 7022WAT    LP235110   0.188   0.010   1.099
 7023WAT     OW35111   2.818   4.711   4.457
 7023WAT    HW135112   2.767   4.763   4.395
 7023WAT    HW235113   2.765   4.709   4.536
 7023WAT    LP135114   2.828   4.646   4.432
 7023WAT    LP235115   2.880   4.741   4.469
 7024WAT     OW35116   5.722   0.113   5.348
 7024WAT    HW135117   5.702   0.023   5.373
 7024WAT    HW235118   5.810   0.108   5.311
 7024WAT    LP135119   5.677   0.136   5.300
 7024WAT    LP235120   5.721   0.155   5.404
 7025WAT     OW35121   3.425   1.445   6.360
 7025WAT    HW135122   3.380   1.401   6.289
 7025WAT    HW235123   3.468   1.375   6.409
 7025WAT    LP135124   3.472   1.490   6.335
 7025WAT    LP235125   3.380   1.479   6.401
 7026WAT     OW35126   5.822   2.832   1.996
 7026WAT    HW135127   5.857   2.798   1.913
 7026WAT    HW235128   5.899   2.850   2.050
 7026WAT    LP135129   5.785   2.890   1.986
 7026WAT    LP235130   5.781   2.784   2.027
 7027WAT     OW35131   4.506   4.579   2.053
 7027WAT    HW135132   4.451   4.526   2.111
 7027WAT    HW235133   4.450   4.598   1.977
 7027WAT    LP135134   4.526   4.638   2.085
 7027WAT    LP235135   4.563   4.543   2.033
 7028WAT     OW35136   2.840   1.651   0.423
 7028WAT    HW135137   2.787   1.730   0.409
 7028WAT    HW235138   2.775   1.582   0.440
 7028WAT    LP135139   2.877   1.636   0.366
 7028WAT    LP235140   2.882   1.659   0.478
 7029WAT     OW35141   1.664   3.611   3.036
 7029WAT    HW135142   1.659   3.521   3.002
 7029WAT    HW235143   1.746   3.613   3.085
 7029WAT    LP135144   1.665   3.657   2.984
 7029WAT    LP235145   1.610   3.624   3.078
 7030WAT     OW35146   0.409   5.176   6.541
 7030WAT    HW135147   0.427   5.270   6.540
 7030WAT    HW235148   0.483   5.137   6.494
 7030WAT    LP135149   0.407   5.152   6.607
 7030WAT    LP235150   0.349   5.162   6.509
 7031WAT     OW35151   4.965   0.473   1.385
 7031WAT    HW135152   4.997   0.391   1.425
 7031WAT    HW235153   5.043   0.528   1.380
 7031WAT    LP135154   4.939   0.461   1.322
 7031WAT    LP235155   4.917   0.502   1.426
 7032WAT     OW35156   4.234   0.671   3.330
 7032WAT    HW135157   4.291   0.602   3.297
 7032WAT    HW235158   4.237   0.739   3.264
 7032WAT    LP135159   4.169   0.647   3.338
 7032WAT    LP235160   4.258   0.695   3.392
 7033WAT     OW35161   2.915   1.358   5.658
 7033WAT    HW135162   2.955   1.439   5.690
 7033WAT    HW235163   2.822   1.368   5.677
 7033WAT    LP135164   2.926   1.350   5.589
 7033WAT    LP235165   2.941   1.302   5.692
 7034WAT     OW35166   0.072   1.301   5.640
 7034WAT    HW135167   0.015   1.376   5.658
 7034WAT    HW235168   0.068   1.290   5.545
 7034WAT    LP135169   0.138   1.315   5.660
 7034WAT    LP235170   0.049   1.244   5.672
 7035WAT     OW35171   1.729   3.075   0.564
 7035WAT    HW135172   1.804   3.090   0.621
 7035WAT    HW235173   1.679   3.156   0.568
 7035WAT    LP135174   1.749   3.062   0.498
 7035WAT    LP235175   1.690   3.021   0.587
 7036WAT     OW35176   0.283   3.193   2.348
 7036WAT    HW135177   0.311   3.102   2.360
 7036WAT    HW235178   0.272   3.227   2.436
 7036WAT    LP135179   0.331   3.229   2.313
 7036WAT    LP235180   0.222   3.195   2.313
 7037WAT     OW35181   2.092   4.223   6.351
 7037WAT    HW135182   2.083   4.305   6.302
 7037WAT    HW235183   2.023   4.228   6.417
 7037WAT    LP135184   2.082   4.168   6.309
 7037WAT    LP235185   2.155   4.219   6.381
 7038WAT     OW35186   5.620   2.114   3.042
 7038WAT    HW135187   5.702   2.088   3.001
 7038WAT    HW235188   5.646   2.159   3.122
 7038WAT    LP135189   5.584   2.157   3.000
 7038WAT    LP235190   5.581   2.058   3.057
 7039WAT     OW35191   5.082   4.104   6.417
 7039WAT    HW135192   5.144   4.144   6.356
 7039WAT    HW235193   5.093   4.153   6.498
 7039WAT    LP135194   5.017   4.110   6.393
 7039WAT    LP235195   5.097   4.036   6.427
 7040WAT     OW35196   0.396   5.393   0.311
 7040WAT    HW135197   0.307   5.360   0.293
 7040WAT    HW235198   0.397   5.409   0.405
 7040WAT    LP135199   0.444   5.346   0.293
 7040WAT    LP235200   0.407   5.453   0.276
 7041WAT     OW35201   5.909   1.012   0.775
 7041WAT    HW135202   5.994   1.049   0.800
 7041WAT    HW235203   5.909   1.014   0.679
 7041WAT    LP135204   5.903   0.946   0.799
 7041WAT    LP235205   5.857   1.051   0.801
 7042WAT     OW35206   4.324   4.443   3.857
 7042WAT    HW135207   4.318   4.538   3.848
 7042WAT    HW235208   4.368   4.429   3.941
 7042WAT    LP135209   4.260   4.414   3.859
 7042WAT    LP235210   4.361   4.415   3.805
 7043WAT     OW35211   2.934   2.325   5.163
 7043WAT    HW135212   2.970   2.352   5.078
 7043WAT    HW235213   2.873   2.255   5.142
 7043WAT    LP135214   2.985   2.302   5.205
 7043WAT    LP235215   2.902   2.379   5.194
 7044WAT     OW35216   4.349   1.080   3.732
 7044WAT    HW135217   4.442   1.062   3.747
 7044WAT    HW235218   4.323   1.134   3.807
 7044WAT    LP135219   4.339   1.114   3.672
 7044WAT    LP235220   4.312   1.020   3.731
 7045WAT     OW35221   3.433   5.051   5.547
 7045WAT    HW135222   3.468   5.139   5.559
 7045WAT    HW235223   3.494   4.995   5.596
 7045WAT    LP135224   3.369   5.046   5.574
 7045WAT    LP235225   3.432   5.033   5.479
 7046WAT     OW35226   4.168   0.704   2.574
 7046WAT    HW135227   4.208   0.790   2.565
 7046WAT    HW235228   4.140   0.681   2.485
 7046WAT    LP135229   4.214   0.657   2.599
 7046WAT    LP235230   4.112   0.707   2.617
 7047WAT     OW35231   1.328   1.319   4.815
 7047WAT    HW135232   1.380   1.399   4.814
 7047WAT    HW235233   1.285   1.318   4.729
 7047WAT    LP135234   1.369   1.263   4.822
 7047WAT    LP235235   1.281   1.321   4.866
 7048WAT     OW35236   4.431   3.208   4.814
 7048WAT    HW135237   4.476   3.292   4.807
 7048WAT    HW235238   4.478   3.150   4.755
 7048WAT    LP135239   4.434   3.184   4.880
 7048WAT    LP235240   4.364   3.214   4.795
 7049WAT     OW35241   6.445   4.852   0.544
 7049WAT    HW135242   6.409   4.777   0.497
 7049WAT    HW235243   6.540   4.843   0.534
 7049WAT    LP135244   6.423   4.912   0.515
 7049WAT    LP235245   6.427   4.851   0.611
 7050WAT     OW35246   5.674   1.148   5.524
 7050WAT    HW135247   5.703   1.063   5.559
 7050WAT    HW235248   5.717   1.154   5.439
 7050WAT    LP135249   5.604   1.149   5.517
 7050WAT    LP235250   5.694   1.200   5.566
 7051WAT     OW35251   4.398   0.424   4.032
 7051WAT    HW135252   4.356   0.396   3.951
 7051WAT    HW235253   4.451   0.349   4.059
 7051WAT    LP135254   4.439   0.480   4.020
 7051WAT    LP235255   4.350   0.440   4.080
 7052WAT     OW35256   1.158   4.921   3.186
 7052WAT    HW135257   1.133   4.959   3.270
 7052WAT    HW235258   1.194   4.995   3.137
 7052WAT    LP135259   1.206   4.871   3.194
 7052WAT    LP235260   1.102   4.894   3.153
 7053WAT     OW35261   2.327   4.930   3.198
 7053WAT    HW135262   2.342   4.840   3.227
 7053WAT    HW235263   2.324   4.981   3.279
 7053WAT    LP135264   2.379   4.952   3.157
 7053WAT    LP235265   2.266   4.935   3.164
 7054WAT     OW35266   1.341   6.123   2.048
 7054WAT    HW135267   1.336   6.064   1.972
 7054WAT    HW235268   1.276   6.089   2.109
 7054WAT    LP135269   1.405   6.121   2.076
 7054WAT    LP235270   1.325   6.189   2.029
 7055WAT     OW35271   5.297   1.603   5.700
 7055WAT    HW135272   5.368   1.591   5.763
 7055WAT    HW235273   5.324   1.552   5.624
 7055WAT    LP135274   5.237   1.577   5.726
 7055WAT    LP235275   5.289   1.670   5.684
 7056WAT     OW35276   1.834   5.180   4.425
 7056WAT    HW135277   1.780   5.108   4.458
 7056WAT    HW235278   1.855   5.155   4.335
 7056WAT    LP135279   1.799   5.240   4.426
 7056WAT    LP235280   1.893   5.186   4.463
 7057WAT     OW35281   2.050   2.518   6.253
 7057WAT    HW135282   1.999   2.441   6.280
 7057WAT    HW235283   2.004   2.551   6.176
 7057WAT    LP135284   2.051   2.566   6.303
 7057WAT    LP235285   2.115   2.499   6.236
 7058WAT     OW35286   5.260   6.026   4.683
 7058WAT    HW135287   5.177   5.992   4.716
 7058WAT    HW235288   5.259   6.006   4.589
 7058WAT    LP135289   5.265   6.095   4.694
 7058WAT    LP235290   5.314   5.994   4.714
 7059WAT     OW35291   1.183   4.109   0.932
 7059WAT    HW135292   1.255   4.144   0.984
 7059WAT    HW235293   1.214   4.114   0.842
 7059WAT    LP135294   1.169   4.043   0.950
 7059WAT    LP235295   1.125   4.148   0.940
 7060WAT     OW35296   3.757   3.050   4.735
 7060WAT    HW135297   3.806   3.131   4.720
 7060WAT    HW235298   3.761   3.037   4.829
 7060WAT    LP135299   3.691   3.056   4.713
 7060WAT    LP235300   3.788   2.997   4.701
 7061WAT     OW35301   4.691   1.906   5.710
 7061WAT    HW135302   4.726   1.821   5.737
 7061WAT    HW235303   4.768   1.962   5.701
 7061WAT    LP135304   4.657   1.900   5.649
 7061WAT    LP235305   4.647   1.931   5.759
 7062WAT     OW35306   5.538   1.256   5.199
 7062WAT    HW135307   5.483   1.215   5.132
 7062WAT    HW235308   5.489   1.243   5.280
 7062WAT    LP135309   5.600   1.224   5.202
 7062WAT    LP235310   5.547   1.324   5.186
 7063WAT     OW35311   6.427   5.242   5.291
 7063WAT    HW135312   6.351   5.186   5.277
 7063WAT    HW235313   6.502   5.182   5.290
 7063WAT    LP135314   6.433   5.289   5.239
 7063WAT    LP235315   6.423   5.275   5.352
 7064WAT     OW35316   4.504   2.514   3.886
 7064WAT    HW135317   4.558   2.471   3.952
 7064WAT    HW235318   4.466   2.443   3.835
 7064WAT    LP135319   4.453   2.552   3.917
 7064WAT    LP235320   4.542   2.556   3.845
 7065WAT     OW35321   5.220   1.345   1.937
 7065WAT    HW135322   5.196   1.334   2.029
 7065WAT    HW235323   5.139   1.329   1.888
 7065WAT    LP135324   5.244   1.410   1.925
 7065WAT    LP235325   5.269   1.299   1.919
 7066WAT     OW35326   3.165   0.494   5.768
 7066WAT    HW135327   3.238   0.554   5.784
 7066WAT    HW235328   3.156   0.493   5.672
 7066WAT    LP135329   3.180   0.430   5.792
 7066WAT    LP235330   3.107   0.517   5.798
 7067WAT     OW35331   1.871   2.609   3.252
 7067WAT    HW135332   1.829   2.535   3.208
 7067WAT    HW235333   1.799   2.651   3.299
 7067WAT    LP135334   1.920   2.586   3.296
 7067WAT    LP235335   1.899   2.653   3.206
 7068WAT     OW35336   1.261   1.657   1.566
 7068WAT    HW135337   1.356   1.661   1.578
 7068WAT    HW235338   1.248   1.600   1.491
 7068WAT    LP135339   1.230   1.630   1.623
 7068WAT    LP235340   1.235   1.721   1.554
 7069WAT     OW35341   5.901   4.381   0.536
 7069WAT    HW135342   5.980   4.373   0.483
 7069WAT    HW235343   5.915   4.459   0.589
 7069WAT    LP135344   5.844   4.388   0.496
 7069WAT    LP235345   5.894   4.324   0.577
 7070WAT     OW35346   4.122   2.235   5.775
 7070WAT    HW135347   4.168   2.311   5.811
 7070WAT    HW235348   4.089   2.264   5.690
 7070WAT    LP135349   4.166   2.181   5.767
 7070WAT    LP235350   4.069   2.216   5.817
 7071WAT     OW35351   0.221   5.570   6.024
 7071WAT    HW135352   0.212   5.660   5.993
 7071WAT    HW235353   0.286   5.530   5.966
 7071WAT    LP135354   0.243   5.569   6.091
 7071WAT    LP235355   0.160   5.536   6.020
 7072WAT     OW35356   5.491   4.610   5.018
 7072WAT    HW135357   5.518   4.693   5.057
 7072WAT    HW235358   5.448   4.562   5.089
 7072WAT    LP135359   5.446   4.621   4.965
 7072WAT    LP235360   5.547   4.575   4.994
 7073WAT     OW35361   5.190   5.902   1.992
 7073WAT    HW135362   5.179   5.815   2.030
 7073WAT    HW235363   5.137   5.901   1.913
 7073WAT    LP135364   5.167   5.952   2.037
 7073WAT    LP235365   5.257   5.914   1.977
 7074WAT     OW35366   0.089   0.696   6.328
 7074WAT    HW135367   0.111   0.710   6.236
 7074WAT    HW235368   0.134   0.615   6.351
 7074WAT    LP135369   0.112   0.749   6.367
 7074WAT    LP235370   0.020   0.690   6.336
 7075WAT     OW35371   4.351   4.254   1.438
 7075WAT    HW135372   4.393   4.333   1.472
 7075WAT    HW235373   4.417   4.185   1.446
 7075WAT    LP135374   4.294   4.238   1.476
 7075WAT    LP235375   4.332   4.264   1.371
 7076WAT     OW35376   5.424   0.785   0.634
 7076WAT    HW135377   5.420   0.728   0.557
 7076WAT    HW235378   5.516   0.809   0.641
 7076WAT    LP135379   5.384   0.841   0.625
 7076WAT    LP235380   5.403   0.750   0.691
 7077WAT     OW35381   2.504   0.128   2.631
 7077WAT    HW135382   2.595   0.105   2.645
 7077WAT    HW235383   2.498   0.145   2.537
 7077WAT    LP135384   2.462   0.075   2.648
 7077WAT    LP235385   2.486   0.185   2.668
 7078WAT     OW35386   1.357   4.349   3.461
 7078WAT    HW135387   1.279   4.401   3.478
 7078WAT    HW235388   1.374   4.362   3.367
 7078WAT    LP135389   1.411   4.373   3.499
 7078WAT    LP235390   1.346   4.282   3.475
 7079WAT     OW35391   2.923   0.603   0.986
 7079WAT    HW135392   2.859   0.596   0.916
 7079WAT    HW235393   2.928   0.697   1.006
 7079WAT    LP135394   2.902   0.567   1.042
 7079WAT    LP235395   2.986   0.579   0.966
 7080WAT     OW35396   2.189   3.374   5.770
 7080WAT    HW135397   2.193   3.337   5.858
 7080WAT    HW235398   2.157   3.302   5.716
 7080WAT    LP135399   2.144   3.428   5.768
 7080WAT    LP235400   2.252   3.395   5.749
 7081WAT     OW35401   2.273   2.588   5.417
 7081WAT    HW135402   2.305   2.678   5.404
 7081WAT    HW235403   2.324   2.536   5.355
 7081WAT    LP135404   2.284   2.567   5.483
 7081WAT    LP235405   2.205   2.584   5.402
 7082WAT     OW35406   0.379   1.038   3.461
 7082WAT    HW135407   0.427   1.034   3.544
 7082WAT    HW235408   0.298   0.989   3.478
 7082WAT    LP135409   0.365   1.104   3.445
 7082WAT    LP235410   0.416   1.008   3.410
 7083WAT     OW35411   4.537   4.549   5.977
 7083WAT    HW135412   4.478   4.615   5.942
 7083WAT    HW235413   4.484   4.498   6.038
 7083WAT    LP135414   4.562   4.508   5.926
 7083WAT    LP235415   4.591   4.579   6.011
 7084WAT     OW35416   0.349   1.463   6.284
 7084WAT    HW135417   0.266   1.436   6.325
 7084WAT    HW235418   0.417   1.431   6.344
 7084WAT    LP135419   0.356   1.433   6.221
 7084WAT    LP235420   0.352   1.532   6.278
 7085WAT     OW35421   2.506   4.657   3.690
 7085WAT    HW135422   2.588   4.615   3.715
 7085WAT    HW235423   2.508   4.660   3.594
 7085WAT    LP135424   2.451   4.620   3.712
 7085WAT    LP235425   2.503   4.722   3.716
 7086WAT     OW35426   2.716   5.623   5.822
 7086WAT    HW135427   2.761   5.541   5.801
 7086WAT    HW235428   2.733   5.680   5.747
 7086WAT    LP135429   2.648   5.612   5.830
 7086WAT    LP235430   2.742   5.651   5.881
 7087WAT     OW35431   0.969   5.918   1.510
 7087WAT    HW135432   1.023   5.984   1.467
 7087WAT    HW235433   0.994   5.921   1.602
 7087WAT    LP135434   0.901   5.933   1.503
 7087WAT    LP235435   0.981   5.854   1.483
 7088WAT     OW35436   1.667   0.998   5.146
 7088WAT    HW135437   1.730   1.071   5.147
 7088WAT    HW235438   1.682   0.954   5.230
 7088WAT    LP135439   1.602   1.022   5.142
 7088WAT    LP235440   1.680   0.955   5.093
 7089WAT     OW35441   5.138   5.418   4.409
 7089WAT    HW135442   5.106   5.369   4.485
 7089WAT    HW235443   5.226   5.384   4.394
 7089WAT    LP135444   5.097   5.407   4.354
 7089WAT    LP235445   5.140   5.487   4.423
 7090WAT     OW35446   4.160   2.569   2.385
 7090WAT    HW135447   4.206   2.627   2.446
 7090WAT    HW235448   4.106   2.628   2.332
 7090WAT    LP135449   4.206   2.535   2.344
 7090WAT    LP235450   4.121   2.523   2.420
 7091WAT     OW35451   0.176   4.814   2.374
 7091WAT    HW135452   0.173   4.880   2.443
 7091WAT    HW235453   0.126   4.852   2.301
 7091WAT    LP135454   0.242   4.801   2.354
 7091WAT    LP235455   0.146   4.754   2.395
 7092WAT     OW35456   4.518   1.848   3.554
 7092WAT    HW135457   4.597   1.870   3.604
 7092WAT    HW235458   4.514   1.914   3.485
 7092WAT    LP135459   4.524   1.784   3.526
 7092WAT    LP235460   4.461   1.851   3.594
 7093WAT     OW35461   5.296   1.532   2.278
 7093WAT    HW135462   5.274   1.444   2.248
 7093WAT    HW235463   5.387   1.545   2.251
 7093WAT    LP135464   5.255   1.580   2.248
 7093WAT    LP235465   5.290   1.537   2.348
 7094WAT     OW35466   4.627   1.157   2.998
 7094WAT    HW135467   4.586   1.184   2.916
 7094WAT    HW235468   4.566   1.186   3.066
 7094WAT    LP135469   4.635   1.087   3.000
 7094WAT    LP235470   4.689   1.187   3.006
 7095WAT     OW35471   2.161   3.095   3.091
 7095WAT    HW135472   2.244   3.118   3.050
 7095WAT    HW235473   2.184   3.036   3.162
 7095WAT    LP135474   2.129   3.153   3.117
 7095WAT    LP235475   2.118   3.064   3.045
 7096WAT     OW35476   0.135   5.006   3.100
 7096WAT    HW135477   0.144   5.079   3.162
 7096WAT    HW235478   0.200   4.943   3.128
 7096WAT    LP135479   0.070   4.979   3.104
 7096WAT    LP235480   0.147   5.028   3.035
 7097WAT     OW35481   6.220   0.108   4.604
 7097WAT    HW135482   6.172   0.040   4.651
 7097WAT    HW235483   6.227   0.073   4.515
 7097WAT    LP135484   6.184   0.168   4.604
 7097WAT    LP235485   6.283   0.118   4.632
 7098WAT     OW35486   2.752   5.712   2.724
 7098WAT    HW135487   2.788   5.656   2.655
 7098WAT    HW235488   2.828   5.734   2.778
 7098WAT    LP135489   2.723   5.769   2.698
 7098WAT    LP235490   2.705   5.677   2.762
 7099WAT     OW35491   2.562   2.099   5.291
 7099WAT    HW135492   2.486   2.145   5.255
 7099WAT    HW235493   2.536   2.007   5.292
 7099WAT    LP135494   2.618   2.109   5.250
 7099WAT    LP235495   2.575   2.122   5.356
 7100WAT     OW35496   6.332   1.328   0.547
 7100WAT    HW135497   6.337   1.405   0.603
 7100WAT    HW235498   6.238   1.312   0.536
 7100WAT    LP135499   6.362   1.341   0.485
 7100WAT    LP235500   6.363   1.273   0.577
 7101WAT     OW35501   6.599   2.641   2.526
 7101WAT    HW135502   6.690   2.665   2.511
 7101WAT    HW235503   6.549   2.711   2.483
 7101WAT    LP135504   6.584   2.579   2.497
 7101WAT    LP235505   6.584   2.639   2.594
 7102WAT     OW35506   4.710   2.366   4.720
 7102WAT    HW135507   4.641   2.302   4.735
 7102WAT    HW235508   4.742   2.388   4.807
 7102WAT    LP135509   4.761   2.338   4.681
 7102WAT    LP235510   4.685   2.423   4.687
 7103WAT     OW35511   5.779   5.188   4.292
 7103WAT    HW135512   5.760   5.095   4.284
 7103WAT    HW235513   5.719   5.219   4.360
 7103WAT    LP135514   5.846   5.198   4.312
 7103WAT    LP235515   5.768   5.221   4.232
 7104WAT     OW35516   2.366   2.885   0.699
 7104WAT    HW135517   2.438   2.931   0.656
 7104WAT    HW235518   2.395   2.794   0.704
 7104WAT    LP135519   2.353   2.911   0.762
 7104WAT    LP235520   2.308   2.890   0.660
 7105WAT     OW35521   6.528   5.890   1.083
 7105WAT    HW135522   6.609   5.861   1.041
 7105WAT    HW235523   6.505   5.971   1.038
 7105WAT    LP135524   6.477   5.842   1.075
 7105WAT    LP235525   6.538   5.901   1.151
 7106WAT     OW35526   0.398   3.638   4.450
 7106WAT    HW135527   0.344   3.686   4.513
 7106WAT    HW235528   0.470   3.697   4.430
 7106WAT    LP135529   0.422   3.579   4.479
 7106WAT    LP235530   0.361   3.623   4.393
 7107WAT     OW35531   4.109   4.023   4.723
 7107WAT    HW135532   4.157   4.025   4.640
 7107WAT    HW235533   4.047   3.951   4.713
 7107WAT    LP135534   4.153   4.011   4.776
 7107WAT    LP235535   4.076   4.084   4.733
 7108WAT     OW35536   4.168   6.327   3.981
 7108WAT    HW135537   4.112   6.270   4.035
 7108WAT    HW235538   4.230   6.267   3.940
 7108WAT    LP135539   4.129   6.360   3.933
 7108WAT    LP235540   4.201   6.373   4.021
 7109WAT     OW35541   3.756   0.178   1.760
 7109WAT    HW135542   3.829   0.240   1.767
 7109WAT    HW235543   3.787   0.111   1.699
 7109WAT    LP135544   3.741   0.150   1.823
 7109WAT    LP235545   3.699   0.210   1.735
 7110WAT     OW35546   0.152   5.049   5.445
 7110WAT    HW135547   0.241   5.078   5.462
 7110WAT    HW235548   0.114   5.032   5.531
 7110WAT    LP135549   0.116   5.099   5.411
 7110WAT    LP235550   0.152   4.991   5.406
 7111WAT     OW35551   6.367   5.542   2.805
 7111WAT    HW135552   6.400   5.476   2.745
 7111WAT    HW235553   6.272   5.538   2.796
 7111WAT    LP135554   6.387   5.528   2.871
 7111WAT    LP235555   6.391   5.606   2.787
 7112WAT     OW35556   1.727   3.505   1.915
 7112WAT    HW135557   1.730   3.576   1.979
 7112WAT    HW235558   1.696   3.429   1.965
 7112WAT    LP135559   1.683   3.520   1.863
 7112WAT    LP235560   1.791   3.493   1.888
 7113WAT     OW35561   0.802   2.373   5.603
 7113WAT    HW135562   0.738   2.342   5.539
 7113WAT    HW235563   0.882   2.324   5.583
 7113WAT    LP135564   0.813   2.442   5.595
 7113WAT    LP235565   0.781   2.360   5.668
 7114WAT     OW35566   5.950   5.631   4.677
 7114WAT    HW135567   5.941   5.707   4.619
 7114WAT    HW235568   6.044   5.618   4.685
 7114WAT    LP135569   5.920   5.644   4.739
 7114WAT    LP235570   5.919   5.575   4.648
 7115WAT     OW35571   6.532   6.029   3.629
 7115WAT    HW135572   6.575   5.987   3.704
 7115WAT    HW235573   6.584   6.107   3.612
 7115WAT    LP135574   6.533   5.986   3.573
 7115WAT    LP235575   6.466   6.046   3.645
 7116WAT     OW35576   0.644   2.620   3.988
 7116WAT    HW135577   0.708   2.677   4.031
 7116WAT    HW235578   0.698   2.551   3.948
 7116WAT    LP135579   0.599   2.593   4.034
 7116WAT    LP235580   0.609   2.655   3.939
 7117WAT     OW35581   6.645   1.943   6.333
 7117WAT    HW135582   6.551   1.937   6.317
 7117WAT    HW235583   6.664   2.037   6.338
 7117WAT    LP135584   6.662   1.912   6.394
 7117WAT    LP235585   6.681   1.913   6.281
 7118WAT     OW35586   4.572   1.975   6.082
 7118WAT    HW135587   4.620   2.046   6.124
 7118WAT    HW235588   4.507   1.948   6.147
 7118WAT    LP135589   4.541   1.997   6.023
 7118WAT    LP235590   4.615   1.922   6.067
 7119WAT     OW35591   3.469   5.758   2.501
 7119WAT    HW135592   3.477   5.666   2.474
 7119WAT    HW235593   3.468   5.754   2.597
 7119WAT    LP135594   3.524   5.795   2.478
 7119WAT    LP235595   3.410   5.786   2.476
 7120WAT     OW35596   5.089   2.051   2.591
 7120WAT    HW135597   5.127   2.045   2.679
 7120WAT    HW235598   5.004   2.007   2.599
 7120WAT    LP135599   5.081   2.117   2.573
 7120WAT    LP235600   5.129   2.018   2.544
 7121WAT     OW35601   1.709   6.452   3.618
 7121WAT    HW135602   1.621   6.452   3.654
 7121WAT    HW235603   1.733   6.359   3.611
 7121WAT    LP135604   1.710   6.482   3.555
 7121WAT    LP235605   1.754   6.486   3.661
 7122WAT     OW35606   3.819   2.363   2.588
 7122WAT    HW135607   3.783   2.451   2.598
 7122WAT    HW235608   3.754   2.316   2.536
 7122WAT    LP135609   3.881   2.365   2.555
 7122WAT    LP235610   3.827   2.333   2.651
 7123WAT     OW35611   1.667   4.252   0.046
 7123WAT    HW135612   1.670   4.234   0.140
 7123WAT    HW235613   1.610   4.183   0.011
 7123WAT    LP135614   1.640   4.315   0.033
 7123WAT    LP235615   1.731   4.247   0.018
 7124WAT     OW35616   5.053   0.559   4.828
 7124WAT    HW135617   5.071   0.557   4.922
 7124WAT    HW235618   5.040   0.467   4.805
 7124WAT    LP135619   4.996   0.596   4.814
 7124WAT    LP235620   5.108   0.586   4.793
 7125WAT     OW35621   4.399   2.953   2.471
 7125WAT    HW135622   4.342   3.029   2.457
 7125WAT    HW235623   4.444   2.941   2.387
 7125WAT    LP135624   4.445   2.966   2.522
 7125WAT    LP235625   4.362   2.896   2.487
 7126WAT     OW35626   2.058   4.624   3.578
 7126WAT    HW135627   1.971   4.662   3.569
 7126WAT    HW235628   2.112   4.695   3.613
 7126WAT    LP135629   2.056   4.570   3.623
 7126WAT    LP235630   2.082   4.601   3.517
 7127WAT     OW35631   6.164   2.231   4.754
 7127WAT    HW135632   6.164   2.136   4.768
 7127WAT    HW235633   6.074   2.251   4.727
 7127WAT    LP135634   6.180   2.265   4.813
 7127WAT    LP235635   6.209   2.249   4.704
 7128WAT     OW35636   3.799   1.423   0.657
 7128WAT    HW135637   3.710   1.389   0.657
 7128WAT    HW235638   3.849   1.357   0.706
 7128WAT    LP135639   3.824   1.429   0.592
 7128WAT    LP235640   3.802   1.485   0.689
 7129WAT     OW35641   4.085   0.853   0.904
 7129WAT    HW135642   4.017   0.918   0.921
 7129WAT    HW235643   4.161   0.884   0.953
 7129WAT    LP135644   4.065   0.790   0.928
 7129WAT    LP235645   4.100   0.849   0.836
 7130WAT     OW35646   2.362   3.238   0.653
 7130WAT    HW135647   2.385   3.305   0.589
 7130WAT    HW235648   2.306   3.176   0.606
 7130WAT    LP135649   2.420   3.205   0.676
 7130WAT    LP235650   2.328   3.266   0.707
 7131WAT     OW35651   5.790   3.878   4.189
 7131WAT    HW135652   5.765   3.807   4.247
 7131WAT    HW235653   5.786   3.957   4.243
 7131WAT    LP135654   5.855   3.868   4.164
 7131WAT    LP235655   5.745   3.883   4.135
 7132WAT     OW35656   6.609   5.952   5.475
 7132WAT    HW135657   6.560   5.932   5.395
 7132WAT    HW235658   6.594   5.876   5.532
 7132WAT    LP135659   6.677   5.960   5.461
 7132WAT    LP235660   6.585   6.010   5.505
 7133WAT     OW35661   3.385   1.362   3.716
 7133WAT    HW135662   3.414   1.405   3.796
 7133WAT    HW235663   3.465   1.345   3.667
 7133WAT    LP135664   3.351   1.303   3.731
 7133WAT    LP235665   3.342   1.405   3.680
 7134WAT     OW35666   2.427   1.684   5.634
 7134WAT    HW135667   2.344   1.727   5.657
 7134WAT    HW235668   2.402   1.616   5.571
 7134WAT    LP135669   2.471   1.730   5.606
 7134WAT    LP235670   2.456   1.655   5.691
 7135WAT     OW35671   0.496   6.420   3.581
 7135WAT    HW135672   0.479   6.353   3.648
 7135WAT    HW235673   0.471   6.502   3.622
 7135WAT    LP135674   0.564   6.420   3.564
 7135WAT    LP235675   0.458   6.408   3.524
 7136WAT     OW35676   5.386   0.294   6.501
 7136WAT    HW135677   5.343   0.367   6.546
 7136WAT    HW235678   5.480   0.311   6.511
 7136WAT    LP135679   5.369   0.233   6.532
 7136WAT    LP235680   5.368   0.292   6.434
 7137WAT     OW35681   2.270   1.506   3.690
 7137WAT    HW135682   2.290   1.464   3.774
 7137WAT    HW235683   2.348   1.556   3.669
 7137WAT    LP135684   2.256   1.458   3.641
 7137WAT    LP235685   2.214   1.548   3.697
 7138WAT     OW35686   2.929   4.381   2.542
 7138WAT    HW135687   2.841   4.352   2.565
 7138WAT    HW235688   2.927   4.476   2.553
 7138WAT    LP135689   2.977   4.352   2.585
 7138WAT    LP235690   2.945   4.364   2.476
 7139WAT     OW35691   4.955   4.506   5.303
 7139WAT    HW135692   4.939   4.575   5.368
 7139WAT    HW235693   4.868   4.476   5.278
 7139WAT    LP135694   4.989   4.533   5.247
 7139WAT    LP235695   4.993   4.454   5.330
 7140WAT     OW35696   3.010   5.276   5.929
 7140WAT    HW135697   3.078   5.343   5.934
 7140WAT    HW235698   2.942   5.314   5.873
 7140WAT    LP135699   3.036   5.217   5.900
 7140WAT    LP235700   2.985   5.261   5.992
 7141WAT     OW35701   1.176   0.914   1.530
 7141WAT    HW135702   1.146   0.859   1.603
 7141WAT    HW235703   1.096   0.955   1.497
 7141WAT    LP135704   1.221   0.963   1.553
 7141WAT    LP235705   1.206   0.875   1.481
 7142WAT     OW35706   1.818   5.650   1.250
 7142WAT    HW135707   1.774   5.635   1.334
 7142WAT    HW235708   1.752   5.694   1.197
 7142WAT    LP135709   1.874   5.690   1.259
 7142WAT    LP235710   1.836   5.589   1.221
 7143WAT     OW35711   1.830   3.787   1.203
 7143WAT    HW135712   1.870   3.706   1.172
 7143WAT    HW235713   1.757   3.758   1.258
 7143WAT    LP135714   1.876   3.824   1.241
 7143WAT    LP235715   1.807   3.825   1.150
 7144WAT     OW35716   0.059   1.714   1.492
 7144WAT    HW135717   0.028   1.797   1.457
 7144WAT    HW235718   0.148   1.732   1.522
 7144WAT    LP135719   0.019   1.693   1.545
 7144WAT    LP235720   0.060   1.665   1.442
 7145WAT     OW35721   0.421   0.606   2.016
 7145WAT    HW135722   0.453   0.593   2.106
 7145WAT    HW235723   0.327   0.620   2.027
 7145WAT    LP135724   0.451   0.663   1.987
 7145WAT    LP235725   0.434   0.550   1.977
 7146WAT     OW35726   4.017   1.625   4.286
 7146WAT    HW135727   4.060   1.643   4.202
 7146WAT    HW235728   4.034   1.702   4.339
 7146WAT    LP135729   3.948   1.616   4.276
 7146WAT    LP235730   4.044   1.568   4.316
 7147WAT     OW35731   2.772   5.507   6.488
 7147WAT    HW135732   2.834   5.554   6.543
 7147WAT    HW235733   2.694   5.563   6.485
 7147WAT    LP135734   2.798   5.498   6.423
 7147WAT    LP235735   2.756   5.445   6.516
 7148WAT     OW35736   0.603   0.083   4.985
 7148WAT    HW135737   0.546   0.105   4.912
 7148WAT    HW235738   0.623   0.166   5.027
 7148WAT    LP135739   0.570   0.040   5.030
 7148WAT    LP235740   0.661   0.052   4.962
 7149WAT     OW35741   0.054   5.060   5.707
 7149WAT    HW135742  -0.040   5.057   5.721
 7149WAT    HW235743   0.080   5.148   5.733
 7149WAT    LP135744   0.087   5.012   5.746
 7149WAT    LP235745   0.069   5.049   5.639
 7150WAT     OW35746   1.135   2.186   0.823
 7150WAT    HW135747   1.107   2.277   0.831
 7150WAT    HW235748   1.100   2.157   0.739
 7150WAT    LP135749   1.205   2.182   0.823
 7150WAT    LP235750   1.110   2.147   0.876
 7151WAT     OW35751   4.520   3.148   3.943
 7151WAT    HW135752   4.475   3.095   3.877
 7151WAT    HW235753   4.508   3.100   4.025
 7151WAT    LP135754   4.588   3.154   3.928
 7151WAT    LP235755   4.491   3.212   3.948
 7152WAT     OW35756   5.248   6.060   1.669
 7152WAT    HW135757   5.167   6.014   1.693
 7152WAT    HW235758   5.288   6.084   1.752
 7152WAT    LP135759   5.290   6.018   1.632
 7152WAT    LP235760   5.233   6.117   1.631
 7153WAT     OW35761   3.713   4.857   6.355
 7153WAT    HW135762   3.625   4.880   6.323
 7153WAT    HW235763   3.720   4.900   6.440
 7153WAT    LP135764   3.719   4.788   6.361
 7153WAT    LP235765   3.762   4.881   6.311
 7154WAT     OW35766   5.178   0.177   5.916
 7154WAT    HW135767   5.132   0.200   5.835
 7154WAT    HW235768   5.134   0.226   5.984
 7154WAT    LP135769   5.173   0.108   5.928
 7154WAT    LP235770   5.246   0.195   5.912
 7155WAT     OW35771   6.517   0.727   3.342
 7155WAT    HW135772   6.443   0.762   3.391
 7155WAT    HW235773   6.583   0.796   3.347
 7155WAT    LP135774   6.541   0.668   3.372
 7155WAT    LP235775   6.500   0.714   3.276
 7156WAT     OW35776   2.808   0.152   0.306
 7156WAT    HW135777   2.855   0.227   0.342
 7156WAT    HW235778   2.760   0.115   0.381
 7156WAT    LP135779   2.763   0.172   0.256
 7156WAT    LP235780   2.852   0.105   0.280
 7157WAT     OW35781   1.392   0.602   4.081
 7157WAT    HW135782   1.470   0.553   4.054
 7157WAT    HW235783   1.386   0.673   4.017
 7157WAT    LP135784   1.335   0.562   4.079
 7157WAT    LP235785   1.400   0.628   4.146
 7158WAT     OW35786   3.303   6.116   1.069
 7158WAT    HW135787   3.301   6.207   1.097
 7158WAT    HW235788   3.212   6.095   1.048
 7158WAT    LP135789   3.343   6.108   1.012
 7158WAT    LP235790   3.326   6.074   1.120
 7159WAT     OW35791   1.127   2.549   1.785
 7159WAT    HW135792   1.084   2.469   1.815
 7159WAT    HW235793   1.073   2.620   1.820
 7159WAT    LP135794   1.192   2.553   1.811
 7159WAT    LP235795   1.130   2.551   1.715
 7160WAT     OW35796   5.518   2.231   6.103
 7160WAT    HW135797   5.521   2.192   6.015
 7160WAT    HW235798   5.579   2.178   6.154
 7160WAT    LP135799   5.539   2.298   6.101
 7160WAT    LP235800   5.453   2.227   6.130
 7161WAT     OW35801   6.488   6.114   0.118
 7161WAT    HW135802   6.514   6.023   0.104
 7161WAT    HW235803   6.446   6.139   0.035
 7161WAT    LP135804   6.443   6.119   0.171
 7161WAT    LP235805   6.544   6.154   0.130
 7162WAT     OW35806   4.030   1.949   1.028
 7162WAT    HW135807   4.016   1.924   0.937
 7162WAT    HW235808   3.982   2.031   1.038
 7162WAT    LP135809   4.006   1.900   1.072
 7162WAT    LP235810   4.099   1.959   1.041
 7163WAT     OW35811   6.237   0.150   1.029
 7163WAT    HW135812   6.236   0.234   0.984
 7163WAT    HW235813   6.323   0.145   1.070
 7163WAT    LP135814   6.186   0.147   1.078
 7163WAT    LP235815   6.228   0.097   0.984
 7164WAT     OW35816   2.240   3.600   2.274
 7164WAT    HW135817   2.168   3.650   2.235
 7164WAT    HW235818   2.310   3.665   2.284
 7164WAT    LP135819   2.222   3.574   2.336
 7164WAT    LP235820   2.260   3.549   2.231
 7165WAT     OW35821   0.883   3.750   2.968
 7165WAT    HW135822   0.807   3.809   2.962
 7165WAT    HW235823   0.909   3.735   2.877
 7165WAT    LP135824   0.935   3.779   3.005
 7165WAT    LP235825   0.864   3.689   2.999
 7166WAT     OW35826   0.796   4.046   0.880
 7166WAT    HW135827   0.825   4.137   0.884
 7166WAT    HW235828   0.836   4.011   0.801
 7166WAT    LP135829   0.818   4.011   0.937
 7166WAT    LP235830   0.726   4.042   0.876
 7167WAT     OW35831   0.608   4.367   6.007
 7167WAT    HW135832   0.593   4.418   6.086
 7167WAT    HW235833   0.661   4.293   6.036
 7167WAT    LP135834   0.548   4.345   5.979
 7167WAT    LP235835   0.644   4.405   5.960
 7168WAT     OW35836   1.742   6.259   2.014
 7168WAT    HW135837   1.705   6.277   1.928
 7168WAT    HW235838   1.762   6.345   2.051
 7168WAT    LP135839   1.696   6.225   2.054
 7168WAT    LP235840   1.800   6.221   2.009
 7169WAT     OW35841   6.544   6.603   6.099
 7169WAT    HW135842   6.485   6.547   6.047
 7169WAT    HW235843   6.548   6.560   6.184
 7169WAT    LP135844   6.607   6.606   6.069
 7169WAT    LP235845   6.517   6.667   6.105
 7170WAT     OW35846   6.431   1.429   3.030
 7170WAT    HW135847   6.474   1.435   3.116
 7170WAT    HW235848   6.362   1.365   3.043
 7170WAT    LP135849   6.404   1.491   3.012
 7170WAT    LP235850   6.476   1.408   2.981
 7171WAT     OW35851   5.822   4.922   5.058
 7171WAT    HW135852   5.823   4.972   4.976
 7171WAT    HW235853   5.864   4.839   5.036
 7171WAT    LP135854   5.857   4.955   5.108
 7171WAT    LP235855   5.756   4.911   5.079
 7172WAT     OW35856   6.475   2.287   2.894
 7172WAT    HW135857   6.490   2.374   2.857
 7172WAT    HW235858   6.563   2.255   2.915
 7172WAT    LP135859   6.436   2.291   2.952
 7172WAT    LP235860   6.444   2.245   2.847
 7173WAT     OW35861   6.365   3.309   5.266
 7173WAT    HW135862   6.384   3.363   5.190
 7173WAT    HW235863   6.287   3.259   5.242
 7173WAT    LP135864   6.418   3.266   5.280
 7173WAT    LP235865   6.352   3.349   5.322
 7174WAT     OW35866   5.600   4.478   6.320
 7174WAT    HW135867   5.618   4.385   6.306
 7174WAT    HW235868   5.636   4.521   6.242
 7174WAT    LP135869   5.531   4.490   6.325
 7174WAT    LP235870   5.632   4.501   6.378
 7175WAT     OW35871   5.983   6.588   6.385
 7175WAT    HW135872   6.013   6.614   6.472
 7175WAT    HW235873   5.890   6.614   6.383
 7175WAT    LP135874   6.019   6.623   6.336
 7175WAT    LP235875   5.990   6.519   6.376
 7176WAT     OW35876   5.710   2.417   0.354
 7176WAT    HW135877   5.684   2.325   0.346
 7176WAT    HW235878   5.643   2.465   0.305
 7176WAT    LP135879   5.710   2.436   0.422
 7176WAT    LP235880   5.773   2.427   0.327
 7177WAT     OW35881   4.387   5.101   2.072
 7177WAT    HW135882   4.317   5.066   2.127
 7177WAT    HW235883   4.467   5.086   2.123
 7177WAT    LP135884   4.390   5.067   2.011
 7177WAT    LP235885   4.378   5.169   2.060
 7178WAT     OW35886   6.083   6.020   4.170
 7178WAT    HW135887   6.012   6.082   4.188
 7178WAT    HW235888   6.041   5.935   4.166
 7178WAT    LP135889   6.114   6.036   4.110
 7178WAT    LP235890   6.131   6.021   4.222
 7179WAT     OW35891   2.217   4.635   0.482
 7179WAT    HW135892   2.224   4.697   0.410
 7179WAT    HW235893   2.294   4.578   0.472
 7179WAT    LP135894   2.219   4.668   0.544
 7179WAT    LP235895   2.158   4.597   0.477
 7180WAT     OW35896   0.252   5.075   0.957
 7180WAT    HW135897   0.260   5.077   0.862
 7180WAT    HW235898   0.194   5.148   0.978
 7180WAT    LP135899   0.224   5.014   0.978
 7180WAT    LP235900   0.315   5.083   0.987
 7181WAT     OW35901   6.427   0.539   2.552
 7181WAT    HW135902   6.477   0.476   2.501
 7181WAT    HW235903   6.367   0.486   2.605
 7181WAT    LP135904   6.469   0.577   2.593
 7181WAT    LP235905   6.391   0.582   2.510
 7182WAT     OW35906   4.872   6.014   2.128
 7182WAT    HW135907   4.936   5.961   2.175
 7182WAT    HW235908   4.913   6.101   2.121
 7182WAT    LP135909   4.859   5.988   2.065
 7182WAT    LP235910   4.812   6.018   2.164
 7183WAT     OW35911   4.666   1.639   0.583
 7183WAT    HW135912   4.649   1.545   0.571
 7183WAT    HW235913   4.643   1.656   0.674
 7183WAT    LP135914   4.733   1.653   0.571
 7183WAT    LP235915   4.625   1.677   0.540
 7184WAT     OW35916   3.273   3.758   2.489
 7184WAT    HW135917   3.358   3.714   2.484
 7184WAT    HW235918   3.237   3.729   2.573
 7184WAT    LP135919   3.281   3.828   2.488
 7184WAT    LP235920   3.232   3.738   2.436
 7185WAT     OW35921   4.811   5.487   3.046
 7185WAT    HW135922   4.858   5.494   3.129
 7185WAT    HW235923   4.880   5.476   2.981
 7185WAT    LP135924   4.768   5.431   3.047
 7185WAT    LP235925   4.774   5.544   3.034
 7186WAT     OW35926   2.750   4.526   3.697
 7186WAT    HW135927   2.765   4.456   3.760
 7186WAT    HW235928   2.749   4.482   3.612
 7186WAT    LP135929   2.689   4.558   3.709
 7186WAT    LP235930   2.802   4.573   3.700
 7187WAT     OW35931   3.049   4.246   0.698
 7187WAT    HW135932   3.108   4.222   0.627
 7187WAT    HW235933   2.982   4.302   0.657
 7187WAT    LP135934   3.019   4.189   0.726
 7187WAT    LP235935   3.083   4.282   0.748
 7188WAT     OW35936   3.454   3.581   2.092
 7188WAT    HW135937   3.537   3.578   2.138
 7188WAT    HW235938   3.457   3.663   2.042
 7188WAT    LP135939   3.446   3.526   2.050
 7188WAT    LP235940   3.400   3.583   2.138
 7189WAT     OW35941   1.953   3.269   3.376
 7189WAT    HW135942   2.009   3.307   3.308
 7189WAT    HW235943   1.979   3.177   3.379
 7189WAT    LP135944   1.965   3.300   3.438
 7189WAT    LP235945   1.886   3.276   3.360
 7190WAT     OW35946   6.128   1.297   2.773
 7190WAT    HW135947   6.085   1.212   2.786
 7190WAT    HW235948   6.092   1.353   2.841
 7190WAT    LP135949   6.197   1.291   2.780
 7190WAT    LP235950   6.114   1.322   2.709
 7191WAT     OW35951   1.719   2.040   4.237
 7191WAT    HW135952   1.760   2.062   4.321
 7191WAT    HW235953   1.791   2.010   4.183
 7191WAT    LP135954   1.671   1.990   4.246
 7191WAT    LP235955   1.688   2.097   4.209
 7192WAT     OW35956   0.639   0.774   2.337
 7192WAT    HW135957   0.567   0.712   2.325
 7192WAT    HW235958   0.695   0.761   2.260
 7192WAT    LP135959   0.615   0.840   2.339
 7192WAT    LP235960   0.674   0.760   2.396
 7193WAT     OW35961   3.614   0.614   6.205
 7193WAT    HW135962   3.571   0.611   6.290
 7193WAT    HW235963   3.598   0.703   6.173
 7193WAT    LP135964   3.683   0.602   6.211
 7193WAT    LP235965   3.586   0.567   6.161
 7194WAT     OW35966   6.433   2.517   5.073
 7194WAT    HW135967   6.370   2.446   5.059
 7194WAT    HW235968   6.430   2.533   5.168
 7194WAT    LP135969   6.497   2.498   5.053
 7194WAT    LP235970   6.414   2.575   5.038
 7195WAT     OW35971   2.680   6.104   1.892
 7195WAT    HW135972   2.670   6.198   1.911
 7195WAT    HW235973   2.591   6.075   1.870
 7195WAT    LP135974   2.724   6.094   1.839
 7195WAT    LP235975   2.703   6.070   1.948
 7196WAT     OW35976   0.242   3.712   2.465
 7196WAT    HW135977   0.173   3.727   2.400
 7196WAT    HW235978   0.324   3.725   2.417
 7196WAT    LP135979   0.236   3.757   2.518
 7196WAT    LP235980   0.238   3.646   2.490
 7197WAT     OW35981   2.436   6.027   5.053
 7197WAT    HW135982   2.376   5.957   5.079
 7197WAT    HW235983   2.401   6.060   4.971
 7197WAT    LP135984   2.437   6.078   5.102
 7197WAT    LP235985   2.501   6.003   5.044
 7198WAT     OW35986   3.297   0.723   3.362
 7198WAT    HW135987   3.318   0.740   3.270
 7198WAT    HW235988   3.322   0.631   3.375
 7198WAT    LP135989   3.335   0.764   3.404
 7198WAT    LP235990   3.229   0.732   3.374
 7199WAT     OW35991   6.417   5.969   1.977
 7199WAT    HW135992   6.474   6.007   2.043
 7199WAT    HW235993   6.336   6.020   1.982
 7199WAT    LP135994   6.445   5.974   1.913
 7199WAT    LP235995   6.404   5.901   1.991
 7200WAT     OW35996   0.644   0.595   3.075
 7200WAT    HW135997   0.598   0.676   3.056
 7200WAT    HW235998   0.575   0.531   3.092
 7200WAT    LP135999   0.683   0.575   3.020
 7200WAT    LP236000   0.685   0.603   3.131
 7201WAT     OW36001   2.465   1.630   4.023
 7201WAT    HW136002   2.398   1.695   4.002
 7201WAT    HW236003   2.485   1.644   4.115
 7201WAT    LP136004   2.440   1.565   4.012
 7201WAT    LP236005   2.522   1.640   3.983
 7202WAT     OW36006   6.105   5.539   2.730
 7202WAT    HW136007   6.103   5.490   2.649
 7202WAT    HW236008   6.022   5.520   2.772
 7202WAT    LP136009   6.159   5.519   2.771
 7202WAT    LP236010   6.111   5.608   2.717
 7203WAT     OW36011   6.026   3.279   4.771
 7203WAT    HW136012   5.975   3.345   4.819
 7203WAT    HW236013   5.960   3.228   4.723
 7203WAT    LP136014   6.071   3.310   4.727
 7203WAT    LP236015   6.061   3.239   4.816
 7204WAT     OW36016   5.241   6.348   3.364
 7204WAT    HW136017   5.308   6.416   3.374
 7204WAT    HW236018   5.284   6.281   3.311
 7204WAT    LP136019   5.222   6.322   3.426
 7204WAT    LP236020   5.185   6.373   3.331
 7205WAT     OW36021   4.253   6.145   3.584
 7205WAT    HW136022   4.261   6.055   3.554
 7205WAT    HW236023   4.160   6.165   3.573
 7205WAT    LP136024   4.271   6.151   3.651
 7205WAT    LP236025   4.292   6.188   3.545
 7206WAT     OW36026   0.789   4.777   4.969
 7206WAT    HW136027   0.850   4.847   4.991
 7206WAT    HW236028   0.829   4.698   5.006
 7206WAT    LP136029   0.726   4.789   4.998
 7206WAT    LP236030   0.781   4.771   4.900
 7207WAT     OW36031   4.707   4.774   4.054
 7207WAT    HW136032   4.697   4.854   4.004
 7207WAT    HW236033   4.637   4.778   4.120
 7207WAT    LP136034   4.699   4.718   4.013
 7207WAT    LP236035   4.769   4.771   4.085
 7208WAT     OW36036   0.966   5.171   2.354
 7208WAT    HW136037   1.009   5.239   2.302
 7208WAT    HW236038   0.874   5.196   2.355
 7208WAT    LP136039   0.975   5.108   2.324
 7208WAT    LP236040   0.992   5.170   2.419
 7209WAT     OW36041   2.679   2.964   0.910
 7209WAT    HW136042   2.646   2.876   0.928
 7209WAT    HW236043   2.771   2.952   0.888
 7209WAT    LP136044   2.644   2.992   0.856
 7209WAT    LP236045   2.672   3.006   0.966
 7210WAT     OW36046   0.953   2.699   2.146
 7210WAT    HW136047   1.036   2.676   2.186
 7210WAT    HW236048   0.896   2.624   2.166
 7210WAT    LP136049   0.927   2.757   2.175
 7210WAT    LP236050   0.960   2.707   2.077
 7211WAT     OW36051   1.058   0.027   3.584
 7211WAT    HW136052   0.993   0.074   3.636
 7211WAT    HW236053   1.079  -0.050   3.635
 7211WAT    LP136054   1.032   0.010   3.521
 7211WAT    LP236055   1.115   0.067   3.574
 7212WAT     OW36056   1.737   5.944   1.347
 7212WAT    HW136057   1.691   6.021   1.380
 7212WAT    HW236058   1.796   5.919   1.418
 7212WAT    LP136059   1.692   5.892   1.333
 7212WAT    LP236060   1.773   5.959   1.289
 7213WAT     OW36061   6.611   2.057   3.428
 7213WAT    HW136062   6.623   1.964   3.449
 7213WAT    HW236063   6.638   2.103   3.507
 7213WAT    LP136064   6.652   2.075   3.374
 7213WAT    LP236065   6.545   2.071   3.412
 7214WAT     OW36066   2.680   1.457   2.926
 7214WAT    HW136067   2.705   1.438   2.836
 7214WAT    HW236068   2.673   1.553   2.929
 7214WAT    LP136069   2.619   1.427   2.942
 7214WAT    LP236070   2.729   1.435   2.970
 7215WAT     OW36071   0.758   0.370   0.480
 7215WAT    HW136072   0.772   0.407   0.567
 7215WAT    HW236073   0.818   0.418   0.423
 7215WAT    LP136074   0.772   0.301   0.479
 7215WAT    LP236075   0.692   0.380   0.459
 7216WAT     OW36076   5.920   5.789   4.183
 7216WAT    HW136077   5.946   5.697   4.179
 7216WAT    HW236078   5.863   5.794   4.259
 7216WAT    LP136079   5.976   5.830   4.191
 7216WAT    LP236080   5.886   5.807   4.125
 7217WAT     OW36081   0.988   4.962   5.048
 7217WAT    HW136082   0.989   5.052   5.080
 7217WAT    HW236083   1.030   4.911   5.118
 7217WAT    LP136084   0.922   4.940   5.038
 7217WAT    LP236085   1.024   4.956   4.988
 7218WAT     OW36086   5.191   4.409   3.861
 7218WAT    HW136087   5.262   4.418   3.924
 7218WAT    HW236088   5.112   4.432   3.911
 7218WAT    LP136089   5.200   4.452   3.807
 7218WAT    LP236090   5.187   4.343   3.838
 7219WAT     OW36091   2.988   0.906   1.952
 7219WAT    HW136092   2.913   0.887   1.895
 7219WAT    HW236093   3.009   0.822   1.993
 7219WAT    LP136094   3.042   0.929   1.915
 7219WAT    LP236095   2.970   0.954   2.001
 7220WAT     OW36096   4.684   3.945   6.168
 7220WAT    HW136097   4.739   4.012   6.208
 7220WAT    HW236098   4.683   3.967   6.075
 7220WAT    LP136099   4.711   3.881   6.177
 7220WAT    LP236100   4.619   3.947   6.195
 7221WAT     OW36101   1.067   3.061   4.969
 7221WAT    HW136102   1.091   2.986   4.915
 7221WAT    HW236103   0.992   3.100   4.924
 7221WAT    LP136104   1.049   3.041   5.033
 7221WAT    LP236105   1.120   3.107   4.973
 7222WAT     OW36106   5.789   0.823   1.405
 7222WAT    HW136107   5.774   0.910   1.443
 7222WAT    HW236108   5.811   0.768   1.481
 7222WAT    LP136109   5.732   0.799   1.373
 7222WAT    LP236110   5.843   0.824   1.360
 7223WAT     OW36111   1.554   5.101   6.541
 7223WAT    HW136112   1.616   5.093   6.468
 7223WAT    HW236113   1.513   5.015   6.547
 7223WAT    LP136114   1.588   5.117   6.600
 7223WAT    LP236115   1.506   5.150   6.527
 7224WAT     OW36116   2.973   0.030   5.064
 7224WAT    HW136117   3.023   0.013   5.144
 7224WAT    HW236118   3.024   0.095   5.016
 7224WAT    LP136119   2.966  -0.029   5.026
 7224WAT    LP236120   2.909   0.055   5.080
 7225WAT     OW36121   5.864   2.551   1.029
 7225WAT    HW136122   5.868   2.518   0.939
 7225WAT    HW236123   5.869   2.473   1.083
 7225WAT    LP136124   5.918   2.594   1.042
 7225WAT    LP236125   5.804   2.586   1.040
 7226WAT     OW36126   5.968   2.996   0.853
 7226WAT    HW136127   5.897   2.938   0.881
 7226WAT    HW236128   5.927   3.054   0.788
 7226WAT    LP136129   5.993   3.033   0.907
 7226WAT    LP236130   6.020   2.960   0.823
 7227WAT     OW36131   3.958   5.208   3.745
 7227WAT    HW136132   3.965   5.214   3.650
 7227WAT    HW236133   3.878   5.157   3.760
 7227WAT    LP136134   4.014   5.175   3.772
 7227WAT    LP236135   3.952   5.272   3.773
 7228WAT     OW36136   0.238   2.952   4.538
 7228WAT    HW136137   0.303   2.980   4.602
 7228WAT    HW236138   0.156   2.990   4.569
 7228WAT    LP136139   0.254   2.977   4.474
 7228WAT    LP236140   0.235   2.883   4.535
 7229WAT     OW36141   4.442   2.344   6.250
 7229WAT    HW136142   4.475   2.371   6.336
 7229WAT    HW236143   4.504   2.278   6.220
 7229WAT    LP136144   4.378   2.317   6.255
 7229WAT    LP236145   4.441   2.399   6.206
 7230WAT     OW36146   2.018   4.690   0.104
 7230WAT    HW136147   1.969   4.735   0.036
 7230WAT    HW236148   1.951   4.654   0.162
 7230WAT    LP136149   2.057   4.638   0.077
 7230WAT    LP236150   2.060   4.734   0.139
 7231WAT     OW36151   6.573   5.844   2.604
 7231WAT    HW136152   6.565   5.851   2.508
 7231WAT    HW236153   6.650   5.790   2.618
 7231WAT    LP136154   6.581   5.908   2.632
 7231WAT    LP236155   6.515   5.814   2.630
 7232WAT     OW36156   1.232   2.213   4.904
 7232WAT    HW136157   1.197   2.301   4.918
 7232WAT    HW236158   1.161   2.155   4.932
 7232WAT    LP136159   1.248   2.203   4.837
 7232WAT    LP236160   1.289   2.203   4.944
 7233WAT     OW36161   5.493   0.344   0.417
 7233WAT    HW136162   5.425   0.302   0.471
 7233WAT    HW236163   5.575   0.308   0.450
 7233WAT    LP136164   5.484   0.327   0.350
 7233WAT    LP236165   5.491   0.413   0.424
 7234WAT     OW36166   4.096   4.197   5.570
 7234WAT    HW136167   4.131   4.283   5.591
 7234WAT    HW236168   4.002   4.204   5.587
 7234WAT    LP136169   4.108   4.181   5.503
 7234WAT    LP236170   4.125   4.148   5.611
 7235WAT     OW36171   6.298   0.966   3.135
 7235WAT    HW136172   6.284   0.987   3.227
 7235WAT    HW236173   6.214   0.985   3.093
 7235WAT    LP136174   6.349   1.006   3.108
 7235WAT    LP236175   6.315   0.899   3.127
 7236WAT     OW36176   3.002   5.721   2.859
 7236WAT    HW136177   2.987   5.628   2.872
 7236WAT    HW236178   3.038   5.752   2.942
 7236WAT    LP136179   3.048   5.731   2.807
 7236WAT    LP236180   2.942   5.754   2.844
 7237WAT     OW36181   1.177   1.768   0.560
 7237WAT    HW136182   1.176   1.756   0.465
 7237WAT    HW236183   1.263   1.734   0.587
 7237WAT    LP136184   1.171   1.836   0.577
 7237WAT    LP236185   1.126   1.732   0.590
 7238WAT     OW36186   3.249   3.285   6.081
 7238WAT    HW136187   3.343   3.276   6.065
 7238WAT    HW236188   3.243   3.317   6.171
 7238WAT    LP136189   3.220   3.330   6.036
 7238WAT    LP236190   3.217   3.223   6.075
 7239WAT     OW36191   2.779   6.658   4.399
 7239WAT    HW136192   2.818   6.651   4.486
 7239WAT    HW236193   2.708   6.720   4.409
 7239WAT    LP136194   2.826   6.681   4.352
 7239WAT    LP236195   2.754   6.595   4.378
 7240WAT     OW36196   2.737   0.576   0.384
 7240WAT    HW136197   2.715   0.669   0.374
 7240WAT    HW236198   2.675   0.544   0.449
 7240WAT    LP136199   2.729   0.542   0.323
 7240WAT    LP236200   2.803   0.569   0.407
 7241WAT     OW36201   1.738   1.060   3.651
 7241WAT    HW136202   1.672   1.071   3.719
 7241WAT    HW236203   1.807   1.122   3.675
 7241WAT    LP136204   1.763   0.995   3.650
 7241WAT    LP236205   1.712   1.076   3.588
 7242WAT     OW36206   6.109   6.591   4.757
 7242WAT    HW136207   6.044   6.588   4.827
 7242WAT    HW236208   6.090   6.516   4.702
 7242WAT    LP136209   6.103   6.651   4.721
 7242WAT    LP236210   6.174   6.587   4.784
 7243WAT     OW36211   4.271   6.274   0.100
 7243WAT    HW136212   4.184   6.265   0.061
 7243WAT    HW236213   4.316   6.337   0.043
 7243WAT    LP136214   4.267   6.299   0.165
 7243WAT    LP236215   4.304   6.213   0.100
 7244WAT     OW36216   4.455   2.104   6.467
 7244WAT    HW136217   4.475   2.197   6.473
 7244WAT    HW236218   4.540   2.060   6.469
 7244WAT    LP136219   4.415   2.084   6.520
 7244WAT    LP236220   4.422   2.090   6.406
 7245WAT     OW36221   0.567   2.136   0.668
 7245WAT    HW136222   0.659   2.113   0.659
 7245WAT    HW236223   0.555   2.211   0.611
 7245WAT    LP136224   0.526   2.083   0.648
 7245WAT    LP236225   0.552   2.153   0.735
 7246WAT     OW36226   2.531   5.064   5.044
 7246WAT    HW136227   2.465   5.133   5.038
 7246WAT    HW236228   2.602   5.093   4.987
 7246WAT    LP136229   2.553   5.057   5.110
 7246WAT    LP236230   2.505   5.003   5.021
 7247WAT     OW36231   3.322   5.165   6.268
 7247WAT    HW136232   3.352   5.253   6.291
 7247WAT    HW236233   3.233   5.161   6.301
 7247WAT    LP136234   3.323   5.156   6.198
 7247WAT    LP236235   3.363   5.117   6.298
 7248WAT     OW36236   2.229   5.328   0.077
 7248WAT    HW136237   2.196   5.373   0.155
 7248WAT    HW236238   2.324   5.325   0.090
 7248WAT    LP136239   2.203   5.264   0.073
 7248WAT    LP236240   2.213   5.364   0.019
 7249WAT     OW36241   3.121   2.839   0.354
 7249WAT    HW136242   3.169   2.792   0.423
 7249WAT    HW236243   3.102   2.773   0.288
 7249WAT    LP136244   3.062   2.866   0.380
 7249WAT    LP236245   3.160   2.891   0.328
 7250WAT     OW36246   4.004   0.448   6.101
 7250WAT    HW136247   4.097   0.471   6.092
 7250WAT    HW236248   3.972   0.504   6.172
 7250WAT    LP136249   3.970   0.462   6.041
 7250WAT    LP236250   3.997   0.380   6.117
 7251WAT     OW36251   0.151   4.146   3.710
 7251WAT    HW136252   0.071   4.102   3.740
 7251WAT    HW236253   0.120   4.226   3.668
 7251WAT    LP136254   0.193   4.160   3.764
 7251WAT    LP236255   0.185   4.106   3.663
 7252WAT     OW36256   0.750   6.273   6.612
 7252WAT    HW136257   0.758   6.368   6.604
 7252WAT    HW236258   0.807   6.250   6.685
 7252WAT    LP136259   0.683   6.255   6.626
 7252WAT    LP236260   0.771   6.241   6.554
 7253WAT     OW36261   5.895   5.471   6.521
 7253WAT    HW136262   5.853   5.439   6.600
 7253WAT    HW236263   5.989   5.458   6.536
 7253WAT    LP136264   5.874   5.435   6.465
 7253WAT    LP236265   5.881   5.539   6.511
 7254WAT     OW36266   3.145   5.387   6.480
 7254WAT    HW136267   3.172   5.346   6.563
 7254WAT    HW236268   3.104   5.316   6.431
 7254WAT    LP136269   3.100   5.439   6.492
 7254WAT    LP236270   3.201   5.412   6.446
 7255WAT     OW36271   3.853   1.101   1.242
 7255WAT    HW136272   3.894   1.048   1.310
 7255WAT    HW236273   3.759   1.081   1.249
 7255WAT    LP136274   3.865   1.169   1.252
 7255WAT    LP236275   3.876   1.082   1.178
 7256WAT     OW36276   2.999   5.165   3.924
 7256WAT    HW136277   2.937   5.238   3.926
 7256WAT    HW236278   2.998   5.135   3.833
 7256WAT    LP136279   3.063   5.187   3.942
 7256WAT    LP236280   2.979   5.114   3.968
 7257WAT     OW36281   3.964   2.894   1.211
 7257WAT    HW136282   3.872   2.909   1.233
 7257WAT    HW236283   4.013   2.942   1.278
 7257WAT    LP136284   3.979   2.826   1.213
 7257WAT    LP236285   3.978   2.920   1.148
 7258WAT     OW36286   3.742   2.627   2.663
 7258WAT    HW136287   3.660   2.614   2.711
 7258WAT    HW236288   3.806   2.652   2.730
 7258WAT    LP136289   3.761   2.567   2.632
 7258WAT    LP236290   3.735   2.677   2.615
 7259WAT     OW36291   5.340   5.728   3.098
 7259WAT    HW136292   5.295   5.790   3.155
 7259WAT    HW236293   5.432   5.733   3.125
 7259WAT    LP136294   5.315   5.664   3.108
 7259WAT    LP236295   5.333   5.747   3.031
 7260WAT     OW36296   5.547   3.871   2.803
 7260WAT    HW136297   5.486   3.815   2.850
 7260WAT    HW236298   5.632   3.853   2.843
 7260WAT    LP136299   5.548   3.855   2.735
 7260WAT    LP236300   5.530   3.939   2.811
 7261WAT     OW36301   1.242   5.558   1.572
 7261WAT    HW136302   1.157   5.600   1.559
 7261WAT    HW236303   1.305   5.621   1.535
 7261WAT    LP136304   1.254   5.547   1.640
 7261WAT    LP236305   1.245   5.497   1.537
 7262WAT     OW36306   1.910   3.546   2.859
 7262WAT    HW136307   1.998   3.510   2.874
 7262WAT    HW236308   1.859   3.517   2.935
 7262WAT    LP136309   1.912   3.616   2.856
 7262WAT    LP236310   1.883   3.521   2.800
 7263WAT     OW36311   2.750   4.102   0.197
 7263WAT    HW136312   2.731   4.017   0.159
 7263WAT    HW236313   2.691   4.163   0.152
 7263WAT    LP136314   2.738   4.102   0.266
 7263WAT    LP236315   2.817   4.120   0.186
 7264WAT     OW36316   6.033   0.465   2.141
 7264WAT    HW136317   5.991   0.396   2.090
 7264WAT    HW236318   6.097   0.419   2.195
 7264WAT    LP136319   6.065   0.511   2.099
 7264WAT    LP236320   5.986   0.499   2.180
 7265WAT     OW36321   4.705   1.900   1.017
 7265WAT    HW136322   4.672   1.827   0.964
 7265WAT    HW236323   4.651   1.975   0.991
 7265WAT    LP136324   4.698   1.887   1.085
 7265WAT    LP236325   4.773   1.912   1.002
 7266WAT     OW36326   5.129   3.837   6.427
 7266WAT    HW136327   5.103   3.929   6.426
 7266WAT    HW236328   5.071   3.796   6.492
 7266WAT    LP136329   5.119   3.808   6.364
 7266WAT    LP236330   5.196   3.830   6.446
 7267WAT     OW36331   4.283   0.218   2.090
 7267WAT    HW136332   4.195   0.191   2.063
 7267WAT    HW236333   4.313   0.147   2.147
 7267WAT    LP136334   4.325   0.225   2.035
 7267WAT    LP236335   4.281   0.278   2.125
 7268WAT     OW36336   4.447   6.015   6.633
 7268WAT    HW136337   4.448   6.096   6.582
 7268WAT    HW236338   4.508   6.031   6.705
 7268WAT    LP136339   4.382   6.003   6.658
 7268WAT    LP236340   4.467   5.961   6.594
 7269WAT     OW36341   3.022   2.684   2.851
 7269WAT    HW136342   2.934   2.661   2.880
 7269WAT    HW236343   3.055   2.605   2.807
 7269WAT    LP136344   3.020   2.738   2.806
 7269WAT    LP236345   3.062   2.701   2.906
 7270WAT     OW36346   6.401   1.561   4.715
 7270WAT    HW136347   6.409   1.475   4.756
 7270WAT    HW236348   6.363   1.543   4.629
 7270WAT    LP136349   6.359   1.603   4.752
 7270WAT    LP236350   6.464   1.591   4.708
 7271WAT     OW36351   3.787   5.070   0.957
 7271WAT    HW136352   3.806   5.120   1.036
 7271WAT    HW236353   3.805   5.131   0.885
 7271WAT    LP136354   3.828   5.014   0.952
 7271WAT    LP236355   3.720   5.050   0.956
 7272WAT     OW36356   5.690   4.917   4.303
 7272WAT    HW136357   5.643   4.836   4.324
 7272WAT    HW236358   5.782   4.892   4.302
 7272WAT    LP136359   5.670   4.941   4.240
 7272WAT    LP236360   5.678   4.966   4.352
 7273WAT     OW36361   2.428   4.334   3.904
 7273WAT    HW136362   2.440   4.323   3.998
 7273WAT    HW236363   2.384   4.418   3.894
 7273WAT    LP136364   2.490   4.334   3.871
 7273WAT    LP236365   2.389   4.282   3.878
 7274WAT     OW36366   6.153   3.927   1.591
 7274WAT    HW136367   6.126   3.946   1.682
 7274WAT    HW236368   6.143   3.832   1.583
 7274WAT    LP136369   6.111   3.960   1.546
 7274WAT    LP236370   6.219   3.946   1.581
 7275WAT     OW36371   2.570   1.982   3.365
 7275WAT    HW136372   2.612   2.066   3.381
 7275WAT    HW236373   2.527   1.961   3.449
 7275WAT    LP136374   2.522   1.987   3.314
 7275WAT    LP236375   2.617   1.933   3.349
 7276WAT     OW36376   0.114   3.423   2.893
 7276WAT    HW136377   0.139   3.456   2.807
 7276WAT    HW236378   0.023   3.394   2.882
 7276WAT    LP136379   0.155   3.369   2.912
 7276WAT    LP236380   0.118   3.473   2.942
 7277WAT     OW36381   5.891   0.281   2.001
 7277WAT    HW136382   5.806   0.321   2.017
 7277WAT    HW236383   5.897   0.274   1.906
 7277WAT    LP136384   5.943   0.322   2.026
 7277WAT    LP236385   5.895   0.218   2.031
 7278WAT     OW36386   2.783   1.301   1.930
 7278WAT    HW136387   2.748   1.228   1.880
 7278WAT    HW236388   2.860   1.265   1.975
 7278WAT    LP136389   2.802   1.354   1.887
 7278WAT    LP236390   2.736   1.325   1.976
 7279WAT     OW36391   5.960   4.879   4.302
 7279WAT    HW136392   5.998   4.913   4.221
 7279WAT    HW236393   5.994   4.790   4.309
 7279WAT    LP136394   5.980   4.917   4.357
 7279WAT    LP236395   5.890   4.878   4.298
 7280WAT     OW36396   1.547   6.512   3.200
 7280WAT    HW136397   1.622   6.526   3.257
 7280WAT    HW236398   1.527   6.599   3.165
 7280WAT    LP136399   1.562   6.467   3.149
 7280WAT    LP236400   1.492   6.487   3.237
 7281WAT     OW36401   6.242   4.840   5.368
 7281WAT    HW136402   6.329   4.840   5.408
 7281WAT    HW236403   6.233   4.753   5.328
 7281WAT    LP136404   6.192   4.850   5.416
 7281WAT    LP236405   6.237   4.890   5.319
 7282WAT     OW36406   0.485   2.078   5.783
 7282WAT    HW136407   0.413   2.045   5.838
 7282WAT    HW236408   0.503   2.166   5.817
 7282WAT    LP136409   0.542   2.037   5.790
 7282WAT    LP236410   0.466   2.080   5.716
 7283WAT     OW36411   3.706   4.505   1.501
 7283WAT    HW136412   3.709   4.415   1.534
 7283WAT    HW236413   3.621   4.538   1.531
 7283WAT    LP136414   3.758   4.543   1.527
 7283WAT    LP236415   3.709   4.506   1.431
 7284WAT     OW36416   2.933   3.793   6.642
 7284WAT    HW136417   2.860   3.855   6.649
 7284WAT    HW236418   2.891   3.708   6.629
 7284WAT    LP136419   2.974   3.809   6.587
 7284WAT    LP236420   2.971   3.793   6.700
 7285WAT     OW36421   2.779   2.596   2.596
 7285WAT    HW136422   2.844   2.537   2.635
 7285WAT    HW236423   2.817   2.683   2.605
 7285WAT    LP136424   2.769   2.580   2.528
 7285WAT    LP236425   2.718   2.591   2.630
 7286WAT     OW36426   3.708   5.422   2.138
 7286WAT    HW136427   3.629   5.474   2.123
 7286WAT    HW236428   3.749   5.415   2.052
 7286WAT    LP136429   3.751   5.453   2.184
 7286WAT    LP236430   3.691   5.358   2.163
 7287WAT     OW36431   2.502   0.058   4.937
 7287WAT    HW136432   2.565   0.054   5.009
 7287WAT    HW236433   2.471  -0.032   4.927
 7287WAT    LP136434   2.449   0.101   4.952
 7287WAT    LP236435   2.533   0.080   4.878
 7288WAT     OW36436   1.600   4.586   0.415
 7288WAT    HW136437   1.590   4.612   0.507
 7288WAT    HW236438   1.554   4.502   0.410
 7288WAT    LP136439   1.570   4.633   0.372
 7288WAT    LP236440   1.667   4.578   0.399
 7289WAT     OW36441   2.697   0.518   3.140
 7289WAT    HW136442   2.683   0.473   3.056
 7289WAT    HW236443   2.792   0.530   3.144
 7289WAT    LP136444   2.663   0.579   3.141
 7289WAT    LP236445   2.675   0.478   3.193
 7290WAT     OW36446   1.127   3.926   3.943
 7290WAT    HW136447   1.193   3.901   3.878
 7290WAT    HW236448   1.110   4.019   3.926
 7290WAT    LP136449   1.069   3.888   3.935
 7290WAT    LP236450   1.152   3.917   4.008
 7291WAT     OW36451   3.126   5.533   4.265
 7291WAT    HW136452   3.038   5.507   4.235
 7291WAT    HW236453   3.117   5.626   4.287
 7291WAT    LP136454   3.145   5.496   4.321
 7291WAT    LP236455   3.173   5.524   4.214
 7292WAT     OW36456   5.234   1.886   6.131
 7292WAT    HW136457   5.184   1.894   6.050
 7292WAT    HW236458   5.320   1.855   6.102
 7292WAT    LP136459   5.240   1.948   6.163
 7292WAT    LP236460   5.205   1.839   6.174
 7293WAT     OW36461   0.176   1.717   2.651
 7293WAT    HW136462   0.086   1.744   2.634
 7293WAT    HW236463   0.190   1.737   2.744
 7293WAT    LP136464   0.184   1.648   2.640
 7293WAT    LP236465   0.221   1.753   2.611
 7294WAT     OW36466   5.249   3.022   5.803
 7294WAT    HW136467   5.290   3.106   5.780
 7294WAT    HW236468   5.176   3.046   5.860
 7294WAT    LP136469   5.227   2.989   5.746
 7294WAT    LP236470   5.295   2.982   5.838
 7295WAT     OW36471   5.755   6.048   3.285
 7295WAT    HW136472   5.819   5.985   3.318
 7295WAT    HW236473   5.742   6.024   3.193
 7295WAT    LP136474   5.695   6.044   3.321
 7295WAT    LP236475   5.780   6.113   3.290
 7296WAT     OW36476   3.121   6.566   0.764
 7296WAT    HW136477   3.171   6.578   0.845
 7296WAT    HW236478   3.029   6.564   0.792
 7296WAT    LP136479   3.132   6.619   0.720
 7296WAT    LP236480   3.139   6.505   0.733
 7297WAT     OW36481   3.338   3.836   0.882
 7297WAT    HW136482   3.249   3.870   0.894
 7297WAT    HW236483   3.356   3.786   0.961
 7297WAT    LP136484   3.341   3.794   0.825
 7297WAT    LP236485   3.384   3.888   0.874
 7298WAT     OW36486   2.449   3.195   6.438
 7298WAT    HW136487   2.488   3.218   6.353
 7298WAT    HW236488   2.372   3.143   6.416
 7298WAT    LP136489   2.494   3.158   6.477
 7298WAT    LP236490   2.431   3.253   6.473
 7299WAT     OW36491   5.759   4.377   5.928
 7299WAT    HW136492   5.771   4.413   5.840
 7299WAT    HW236493   5.702   4.300   5.914
 7299WAT    LP136494   5.820   4.357   5.955
 7299WAT    LP236495   5.728   4.423   5.970
 7300WAT     OW36496   5.850   1.722   3.133
 7300WAT    HW136497   5.785   1.734   3.064
 7300WAT    HW236498   5.833   1.793   3.195
 7300WAT    LP136499   5.842   1.660   3.164
 7300WAT    LP236500   5.915   1.727   3.107
 7301WAT     OW36501   3.710   1.162   0.075
 7301WAT    HW136502   3.744   1.235   0.126
 7301WAT    HW236503   3.785   1.131   0.024
 7301WAT    LP136504   3.686   1.111   0.118
 7301WAT    LP236505   3.658   1.182   0.033
 7302WAT     OW36506   4.385   5.369   5.184
 7302WAT    HW136507   4.311   5.327   5.141
 7302WAT    HW236508   4.362   5.370   5.277
 7302WAT    LP136509   4.444   5.333   5.173
 7302WAT    LP236510   4.394   5.435   5.160
 7303WAT     OW36511   5.360   4.314   3.016
 7303WAT    HW136512   5.387   4.259   2.943
 7303WAT    HW236513   5.426   4.299   3.084
 7303WAT    LP136514   5.359   4.382   2.997
 7303WAT    LP236515   5.296   4.296   3.039
 7304WAT     OW36516   6.058   6.020   2.209
 7304WAT    HW136517   6.100   6.066   2.137
 7304WAT    HW236518   6.028   5.938   2.171
 7304WAT    LP136519   6.104   6.008   2.260
 7304WAT    LP236520   6.004   6.057   2.234
 7305WAT     OW36521   1.576   2.873   5.019
 7305WAT    HW136522   1.530   2.790   5.003
 7305WAT    HW236523   1.602   2.868   5.111
 7305WAT    LP136524   1.632   2.879   4.977
 7305WAT    LP236525   1.533   2.927   5.008
 7306WAT     OW36526   5.834   6.296   4.493
 7306WAT    HW136527   5.902   6.326   4.553
 7306WAT    HW236528   5.845   6.351   4.415
 7306WAT    LP136529   5.842   6.229   4.477
 7306WAT    LP236530   5.770   6.307   4.521
 7307WAT     OW36531   3.843   1.019   2.045
 7307WAT    HW136532   3.800   0.943   2.084
 7307WAT    HW236533   3.936   1.007   2.065
 7307WAT    LP136534   3.832   1.020   1.976
 7307WAT    LP236535   3.819   1.078   2.073
 7308WAT     OW36536   2.843   5.380   5.737
 7308WAT    HW136537   2.770   5.328   5.705
 7308WAT    HW236538   2.913   5.363   5.675
 7308WAT    LP136539   2.826   5.448   5.737
 7308WAT    LP236540   2.861   5.361   5.801
 7309WAT     OW36541   2.479   1.662   3.605
 7309WAT    HW136542   2.485   1.635   3.513
 7309WAT    HW236543   2.460   1.756   3.600
 7309WAT    LP136544   2.428   1.628   3.638
 7309WAT    LP236545   2.540   1.651   3.637
 7310WAT     OW36546   0.004   2.545   2.854
 7310WAT    HW136547  -0.004   2.610   2.923
 7310WAT    HW236548  -0.086   2.527   2.827
 7310WAT    LP136549   0.042   2.570   2.800
 7310WAT    LP236550   0.034   2.486   2.878
 7311WAT     OW36551   6.556   6.673   4.653
 7311WAT    HW136552   6.504   6.606   4.696
 7311WAT    HW236553   6.548   6.750   4.710
 7311WAT    LP136554   6.623   6.654   4.648
 7311WAT    LP236555   6.531   6.687   4.590
 7312WAT     OW36556   0.782   2.094   5.255
 7312WAT    HW136557   0.877   2.108   5.260
 7312WAT    HW236558   0.771   1.999   5.267
 7312WAT    LP136559   0.749   2.129   5.306
 7312WAT    LP236560   0.757   2.114   5.193
 7313WAT     OW36561   2.574   0.122   5.531
 7313WAT    HW136562   2.574   0.067   5.453
 7313WAT    HW236563   2.548   0.064   5.602
 7313WAT    LP136564   2.638   0.148   5.543
 7313WAT    LP236565   2.528   0.175   5.524
 7314WAT     OW36566   4.252   5.136   1.654
 7314WAT    HW136567   4.197   5.209   1.628
 7314WAT    HW236568   4.245   5.073   1.583
 7314WAT    LP136569   4.318   5.156   1.663
 7314WAT    LP236570   4.228   5.108   1.714
 7315WAT     OW36571   0.910   5.187   3.887
 7315WAT    HW136572   0.912   5.130   3.810
 7315WAT    HW236573   0.823   5.225   3.886
 7315WAT    LP136574   0.920   5.150   3.945
 7315WAT    LP236575   0.959   5.237   3.882
 7316WAT     OW36576   6.285   2.399   4.212
 7316WAT    HW136577   6.343   2.444   4.274
 7316WAT    HW236578   6.203   2.447   4.217
 7316WAT    LP136579   6.312   2.402   4.147
 7316WAT    LP236580   6.276   2.332   4.230
 7317WAT     OW36581   2.495   4.292   2.111
 7317WAT    HW136582   2.527   4.203   2.098
 7317WAT    HW236583   2.440   4.310   2.035
 7317WAT    LP136584   2.458   4.296   2.171
 7317WAT    LP236585   2.549   4.337   2.114
 7318WAT     OW36586   1.427   1.987   1.677
 7318WAT    HW136587   1.522   1.981   1.668
 7318WAT    HW236588   1.404   1.911   1.730
 7318WAT    LP136589   1.409   2.046   1.709
 7318WAT    LP236590   1.396   1.984   1.614
 7319WAT     OW36591   5.144   5.407   6.428
 7319WAT    HW136592   5.203   5.414   6.503
 7319WAT    HW236593   5.058   5.389   6.467
 7319WAT    LP136594   5.142   5.468   6.392
 7319WAT    LP236595   5.163   5.355   6.385
 7320WAT     OW36596   2.007   2.505   5.418
 7320WAT    HW136597   2.100   2.529   5.420
 7320WAT    HW236598   2.006   2.413   5.390
 7320WAT    LP136599   1.979   2.512   5.482
 7320WAT    LP236600   1.972   2.545   5.372
 7321WAT     OW36601   6.665   6.212   0.312
 7321WAT    HW136602   6.616   6.189   0.234
 7321WAT    HW236603   6.600   6.217   0.382
 7321WAT    LP136604   6.713   6.163   0.327
 7321WAT    LP236605   6.697   6.274   0.304
 7322WAT     OW36606   3.761   6.363   3.328
 7322WAT    HW136607   3.743   6.275   3.295
 7322WAT    HW236608   3.728   6.362   3.418
 7322WAT    LP136609   3.829   6.376   3.327
 7322WAT    LP236610   3.727   6.411   3.290
 7323WAT     OW36611   2.950   3.437   3.585
 7323WAT    HW136612   3.020   3.495   3.554
 7323WAT    HW236613   2.997   3.366   3.629
 7323WAT    LP136614   2.908   3.470   3.629
 7323WAT    LP236615   2.913   3.412   3.531
 7324WAT     OW36616   2.177   0.422   6.310
 7324WAT    HW136617   2.117   0.485   6.350
 7324WAT    HW236618   2.236   0.397   6.381
 7324WAT    LP136619   2.142   0.367   6.285
 7324WAT    LP236620   2.212   0.452   6.257
 7325WAT     OW36621   5.383   2.657   3.361
 7325WAT    HW136622   5.340   2.599   3.424
 7325WAT    HW236623   5.443   2.709   3.413
 7325WAT    LP136624   5.417   2.619   3.313
 7325WAT    LP236625   5.335   2.697   3.330
 7326WAT     OW36626   6.637   6.307   5.333
 7326WAT    HW136627   6.548   6.275   5.319
 7326WAT    HW236628   6.652   6.370   5.263
 7326WAT    LP136629   6.642   6.338   5.396
 7326WAT    LP236630   6.683   6.254   5.330
 7327WAT     OW36631   1.664   6.069   0.628
 7327WAT    HW136632   1.607   5.995   0.609
 7327WAT    HW236633   1.705   6.047   0.711
 7327WAT    LP136634   1.712   6.076   0.578
 7327WAT    LP236635   1.627   6.128   0.633
 7328WAT     OW36636   0.876   5.021   4.118
 7328WAT    HW136637   0.811   4.967   4.074
 7328WAT    HW236638   0.913   5.075   4.048
 7328WAT    LP136639   0.846   5.061   4.167
 7328WAT    LP236640   0.925   4.981   4.147
 7329WAT     OW36641   1.271   2.891   0.693
 7329WAT    HW136642   1.331   2.925   0.760
 7329WAT    HW236643   1.271   2.957   0.624
 7329WAT    LP136644   1.294   2.829   0.669
 7329WAT    LP236645   1.207   2.883   0.720
 7330WAT     OW36646   0.235   0.251   2.746
 7330WAT    HW136647   0.293   0.218   2.677
 7330WAT    HW236648   0.172   0.180   2.759
 7330WAT    LP136649   0.270   0.264   2.804
 7330WAT    LP236650   0.202   0.309   2.725
 7331WAT     OW36651   4.233   4.124   3.064
 7331WAT    HW136652   4.168   4.068   3.107
 7331WAT    HW236653   4.236   4.202   3.119
 7331WAT    LP136654   4.295   4.092   3.062
 7331WAT    LP236655   4.213   4.140   2.999
 7332WAT     OW36656   4.308   1.139   0.136
 7332WAT    HW136657   4.334   1.091   0.215
 7332WAT    HW236658   4.245   1.081   0.092
 7332WAT    LP136659   4.278   1.200   0.153
 7332WAT    LP236660   4.363   1.150   0.095
 7333WAT     OW36661   1.975   4.306   5.618
 7333WAT    HW136662   2.024   4.258   5.551
 7333WAT    HW236663   2.040   4.322   5.687
 7333WAT    LP136664   1.951   4.367   5.593
 7333WAT    LP236665   1.922   4.268   5.642
 7334WAT     OW36666   3.944   0.119   0.177
 7334WAT    HW136667   3.903   0.154   0.256
 7334WAT    HW236668   4.013   0.062   0.209
 7334WAT    LP136669   3.897   0.083   0.139
 7334WAT    LP236670   3.970   0.171   0.138
 7335WAT     OW36671   1.701   3.620   2.462
 7335WAT    HW136672   1.686   3.581   2.376
 7335WAT    HW236673   1.620   3.668   2.481
 7335WAT    LP136674   1.712   3.571   2.511
 7335WAT    LP236675   1.755   3.664   2.460
 7336WAT     OW36676   6.768   0.546   0.122
 7336WAT    HW136677   6.801   0.467   0.080
 7336WAT    HW236678   6.695   0.574   0.067
 7336WAT    LP136679   6.746   0.532   0.187
 7336WAT    LP236680   6.817   0.595   0.124
 7337WAT     OW36681   4.110   5.836   3.999
 7337WAT    HW136682   4.100   5.745   4.028
 7337WAT    HW236683   4.022   5.864   3.975
 7337WAT    LP136684   4.136   5.876   4.050
 7337WAT    LP236685   4.153   5.839   3.943
 7338WAT     OW36686   0.936   1.142   1.944
 7338WAT    HW136687   1.020   1.118   1.906
 7338WAT    HW236688   0.924   1.083   2.017
 7338WAT    LP136689   0.936   1.209   1.966
 7338WAT    LP236690   0.884   1.134   1.897
 7339WAT     OW36691   0.383   6.563   0.868
 7339WAT    HW136692   0.335   6.641   0.843
 7339WAT    HW236693   0.427   6.587   0.949
 7339WAT    LP136694   0.340   6.509   0.878
 7339WAT    LP236695   0.430   6.546   0.818
 7340WAT     OW36696   0.688   5.043   5.928
 7340WAT    HW136697   0.752   4.972   5.933
 7340WAT    HW236698   0.644   5.031   5.844
 7340WAT    LP136699   0.642   5.038   5.981
 7340WAT    LP236700   0.720   5.105   5.930
 7341WAT     OW36701   1.121   1.209   2.901
 7341WAT    HW136702   1.179   1.224   2.827
 7341WAT    HW236703   1.166   1.142   2.954
 7341WAT    LP136704   1.112   1.268   2.938
 7341WAT    LP236705   1.059   1.186   2.880
 7342WAT     OW36706   6.653   1.615   0.351
 7342WAT    HW136707   6.605   1.532   0.351
 7342WAT    HW236708   6.705   1.612   0.432
 7342WAT    LP136709   6.695   1.619   0.295
 7342WAT    LP236710   6.609   1.669   0.352
 7343WAT     OW36711   4.693   3.614   5.202
 7343WAT    HW136712   4.698   3.540   5.263
 7343WAT    HW236713   4.781   3.622   5.167
 7343WAT    LP136714   4.647   3.602   5.151
 7343WAT    LP236715   4.675   3.673   5.236
 7344WAT     OW36716   0.259   5.810   5.886
 7344WAT    HW136717   0.303   5.883   5.931
 7344WAT    HW236718   0.318   5.788   5.814
 7344WAT    LP136719   0.252   5.756   5.929
 7344WAT    LP236720   0.197   5.830   5.861
 7345WAT     OW36721   0.464   3.284   4.824
 7345WAT    HW136722   0.445   3.360   4.879
 7345WAT    HW236723   0.467   3.320   4.735
 7345WAT    LP136724   0.525   3.256   4.841
 7345WAT    LP236725   0.413   3.236   4.830
 7346WAT     OW36726   1.845   0.165   6.580
 7346WAT    HW136727   1.782   0.236   6.569
 7346WAT    HW236728   1.828   0.107   6.505
 7346WAT    LP136729   1.910   0.189   6.578
 7346WAT    LP236730   1.834   0.131   6.640
 7347WAT     OW36731   4.752   2.749   4.807
 7347WAT    HW136732   4.774   2.816   4.742
 7347WAT    HW236733   4.837   2.715   4.835
 7347WAT    LP136734   4.717   2.777   4.860
 7347WAT    LP236735   4.714   2.698   4.778
 7348WAT     OW36736   3.548   0.967   0.194
 7348WAT    HW136737   3.594   0.950   0.276
 7348WAT    HW236738   3.599   1.036   0.151
 7348WAT    LP136739   3.546   0.910   0.154
 7348WAT    LP236740   3.483   0.989   0.207
 7349WAT     OW36741   2.775   2.354   0.097
 7349WAT    HW136742   2.792   2.399   0.014
 7349WAT    HW236743   2.709   2.408   0.140
 7349WAT    LP136744   2.750   2.289   0.085
 7349WAT    LP236745   2.833   2.350   0.135
 7350WAT     OW36746   1.115   5.445   4.194
 7350WAT    HW136747   1.143   5.534   4.213
 7350WAT    HW236748   1.109   5.441   4.098
 7350WAT    LP136749   1.162   5.399   4.218
 7350WAT    LP236750   1.053   5.431   4.223
 7351WAT     OW36751   4.056   3.670   1.856
 7351WAT    HW136752   4.040   3.703   1.945
 7351WAT    HW236753   3.991   3.715   1.802
 7351WAT    LP136754   4.121   3.686   1.835
 7351WAT    LP236755   4.047   3.600   1.854
 7352WAT     OW36756   4.167   0.937   1.588
 7352WAT    HW136757   4.194   0.846   1.601
 7352WAT    HW236758   4.161   0.973   1.676
 7352WAT    LP136759   4.215   0.971   1.550
 7352WAT    LP236760   4.105   0.939   1.556
 7353WAT     OW36761   2.030   3.984   1.179
 7353WAT    HW136762   1.963   3.921   1.206
 7353WAT    HW236763   2.112   3.944   1.206
 7353WAT    LP136764   2.029   3.993   1.109
 7353WAT    LP236765   2.020   4.046   1.210
 7354WAT     OW36766   1.368   1.130   1.044
 7354WAT    HW136767   1.299   1.087   1.095
 7354WAT    HW236768   1.377   1.217   1.082
 7354WAT    LP136769   1.428   1.094   1.050
 7354WAT    LP236770   1.350   1.134   0.976
 7355WAT     OW36771   3.985   1.605   2.071
 7355WAT    HW136772   3.894   1.579   2.057
 7355WAT    HW236773   4.017   1.630   1.984
 7355WAT    LP136774   3.989   1.659   2.115
 7355WAT    LP236775   4.023   1.551   2.096
 7356WAT     OW36776   6.561   2.197   0.137
 7356WAT    HW136777   6.598   2.240   0.214
 7356WAT    HW236778   6.618   2.121   0.122
 7356WAT    LP136779   6.495   2.176   0.150
 7356WAT    LP236780   6.562   2.240   0.082
 7357WAT     OW36781   4.199   5.400   3.552
 7357WAT    HW136782   4.113   5.362   3.533
 7357WAT    HW236783   4.196   5.488   3.514
 7357WAT    LP136784   4.209   5.404   3.622
 7357WAT    LP236785   4.250   5.362   3.523
 7358WAT     OW36786   6.708   5.667   0.767
 7358WAT    HW136787   6.716   5.588   0.713
 7358WAT    HW236788   6.702   5.739   0.704
 7358WAT    LP136789   6.651   5.664   0.807
 7358WAT    LP236790   6.765   5.674   0.808
 7359WAT     OW36791   3.086   2.229   2.450
 7359WAT    HW136792   3.138   2.255   2.526
 7359WAT    HW236793   3.122   2.280   2.378
 7359WAT    LP136794   3.094   2.160   2.438
 7359WAT    LP236795   3.019   2.243   2.460
 7360WAT     OW36796   4.872   6.341   5.981
 7360WAT    HW136797   4.846   6.407   5.917
 7360WAT    HW236798   4.789   6.306   6.014
 7360WAT    LP136799   4.909   6.290   5.950
 7360WAT    LP236800   4.909   6.370   6.033
 7361WAT     OW36801   1.644   2.728   0.423
 7361WAT    HW136802   1.733   2.759   0.407
 7361WAT    HW236803   1.633   2.734   0.518
 7361WAT    LP136804   1.597   2.768   0.390
 7361WAT    LP236805   1.636   2.661   0.401
 7362WAT     OW36806   5.995   2.054   6.396
 7362WAT    HW136807   6.003   2.149   6.397
 7362WAT    HW236808   5.909   2.036   6.435
 7362WAT    LP136809   5.998   2.029   6.331
 7362WAT    LP236810   6.046   2.024   6.434
 7363WAT     OW36811   2.363   1.348   1.784
 7363WAT    HW136812   2.358   1.257   1.755
 7363WAT    HW236813   2.374   1.343   1.879
 7363WAT    LP136814   2.417   1.381   1.754
 7363WAT    LP236815   2.303   1.382   1.768
 7364WAT     OW36816   3.901   4.257   2.870
 7364WAT    HW136817   3.820   4.309   2.868
 7364WAT    HW236818   3.876   4.175   2.912
 7364WAT    LP136819   3.925   4.246   2.805
 7364WAT    LP236820   3.950   4.290   2.908
 7365WAT     OW36821   3.036   1.887   4.334
 7365WAT    HW136822   3.103   1.886   4.265
 7365WAT    HW236823   2.953   1.896   4.287
 7365WAT    LP136824   3.037   1.827   4.370
 7365WAT    LP236825   3.046   1.940   4.378
 7366WAT     OW36826   0.535   2.786   2.158
 7366WAT    HW136827   0.620   2.831   2.154
 7366WAT    HW236828   0.527   2.759   2.250
 7366WAT    LP136829   0.484   2.830   2.140
 7366WAT    LP236830   0.535   2.731   2.116
 7367WAT     OW36831   2.401   2.004   3.873
 7367WAT    HW136832   2.355   1.929   3.913
 7367WAT    HW236833   2.349   2.080   3.899
 7367WAT    LP136834   2.466   2.009   3.898
 7367WAT    LP236835   2.403   1.998   3.804
 7368WAT     OW36836   4.623   5.209   6.315
 7368WAT    HW136837   4.673   5.185   6.392
 7368WAT    HW236838   4.540   5.162   6.324
 7368WAT    LP136839   4.612   5.278   6.313
 7368WAT    LP236840   4.656   5.189   6.256
 7369WAT     OW36841   0.645   5.768   0.856
 7369WAT    HW136842   0.633   5.698   0.791
 7369WAT    HW236843   0.638   5.723   0.940
 7369WAT    LP136844   0.708   5.798   0.849
 7369WAT    LP236845   0.595   5.816   0.849
 7370WAT     OW36846   1.851   4.496   3.961
 7370WAT    HW136847   1.924   4.467   3.906
 7370WAT    HW236848   1.789   4.534   3.899
 7370WAT    LP136849   1.822   4.442   3.994
 7370WAT    LP236850   1.872   4.544   4.007
 7371WAT     OW36851   0.285   4.982   4.363
 7371WAT    HW136852   0.376   4.973   4.334
 7371WAT    HW236853   0.286   4.960   4.456
 7371WAT    LP136854   0.262   5.048   4.353
 7371WAT    LP236855   0.244   4.938   4.327
 7372WAT     OW36856   0.499   1.676   5.708
 7372WAT    HW136857   0.556   1.742   5.747
 7372WAT    HW236858   0.555   1.628   5.647
 7372WAT    LP136859   0.474   1.633   5.757
 7372WAT    LP236860   0.446   1.706   5.674
 7373WAT     OW36861   3.757   0.594   0.180
 7373WAT    HW136862   3.671   0.623   0.212
 7373WAT    HW236863   3.737   0.523   0.119
 7373WAT    LP136864   3.791   0.646   0.147
 7373WAT    LP236865   3.796   0.570   0.233
 7374WAT     OW36866   1.137   4.870   0.953
 7374WAT    HW136867   1.170   4.910   0.872
 7374WAT    HW236868   1.120   4.944   1.011
 7374WAT    LP136869   1.078   4.834   0.940
 7374WAT    LP236870   1.185   4.827   0.980
 7375WAT     OW36871   4.855   0.225   3.395
 7375WAT    HW136872   4.926   0.244   3.456
 7375WAT    HW236873   4.840   0.308   3.350
 7375WAT    LP136874   4.874   0.175   3.350
 7375WAT    LP236875   4.798   0.205   3.430
 7376WAT     OW36876   0.803   5.299   4.968
 7376WAT    HW136877   0.778   5.227   4.910
 7376WAT    HW236878   0.727   5.313   5.024
 7376WAT    LP136879   0.859   5.281   5.006
 7376WAT    LP236880   0.818   5.357   4.932
 7377WAT     OW36881   2.588   5.048   5.308
 7377WAT    HW136882   2.554   5.134   5.333
 7377WAT    HW236883   2.568   5.041   5.214
 7377WAT    LP136884   2.657   5.045   5.319
 7377WAT    LP236885   2.557   4.997   5.344
 7378WAT     OW36886   3.538   3.120   1.705
 7378WAT    HW136887   3.614   3.063   1.703
 7378WAT    HW236888   3.467   3.067   1.670
 7378WAT    LP136889   3.524   3.140   1.770
 7378WAT    LP236890   3.548   3.177   1.665
 7379WAT     OW36891   1.582   0.971   0.950
 7379WAT    HW136892   1.516   1.025   0.993
 7379WAT    HW236893   1.638   0.939   1.021
 7379WAT    LP136894   1.552   0.918   0.916
 7379WAT    LP236895   1.620   1.009   0.904
 7380WAT     OW36896   3.454   3.004   2.125
 7380WAT    HW136897   3.530   2.978   2.073
 7380WAT    HW236898   3.379   2.993   2.066
 7380WAT    LP136899   3.447   2.963   2.181
 7380WAT    LP236900   3.459   3.071   2.146
 7381WAT     OW36901   6.232   5.488   4.956
 7381WAT    HW136902   6.169   5.515   5.023
 7381WAT    HW236903   6.315   5.482   5.002
 7381WAT    LP136904   6.214   5.426   4.929
 7381WAT    LP236905   6.235   5.536   4.905
 7382WAT     OW36906   5.061   2.829   3.755
 7382WAT    HW136907   5.060   2.825   3.659
 7382WAT    HW236908   4.987   2.885   3.777
 7382WAT    LP136909   5.054   2.766   3.782
 7382WAT    LP236910   5.121   2.858   3.778
 7383WAT     OW36911   2.355   5.344   4.787
 7383WAT    HW136912   2.274   5.376   4.748
 7383WAT    HW236913   2.372   5.261   4.743
 7383WAT    LP136914   2.407   5.389   4.775
 7383WAT    LP236915   2.348   5.335   4.856
 7384WAT     OW36916   6.052   0.618   3.410
 7384WAT    HW136917   5.966   0.648   3.380
 7384WAT    HW236918   6.069   0.539   3.359
 7384WAT    LP136919   6.101   0.666   3.399
 7384WAT    LP236920   6.050   0.603   3.479
 7385WAT     OW36921   6.295   1.501   4.474
 7385WAT    HW136922   6.253   1.417   4.458
 7385WAT    HW236923   6.228   1.566   4.452
 7385WAT    LP136924   6.314   1.507   4.542
 7385WAT    LP236925   6.352   1.509   4.434
 7386WAT     OW36926   4.440   3.666   2.238
 7386WAT    HW136927   4.360   3.617   2.219
 7386WAT    HW236928   4.465   3.637   2.326
 7386WAT    LP136929   4.490   3.651   2.192
 7386WAT    LP236930   4.427   3.735   2.238
 7387WAT     OW36931   0.709   4.859   3.952
 7387WAT    HW136932   0.771   4.851   3.879
 7387WAT    HW236933   0.685   4.769   3.973
 7387WAT    LP136934   0.740   4.890   4.007
 7387WAT    LP236935   0.653   4.896   3.933
 7388WAT     OW36936   3.608   2.733   4.947
 7388WAT    HW136937   3.694   2.710   4.910
 7388WAT    HW236938   3.550   2.663   4.918
 7388WAT    LP136939   3.611   2.734   5.017
 7388WAT    LP236940   3.587   2.795   4.923
 7389WAT     OW36941   3.481   0.749   2.285
 7389WAT    HW136942   3.520   0.676   2.335
 7389WAT    HW236943   3.442   0.805   2.352
 7389WAT    LP136944   3.531   0.783   2.250
 7389WAT    LP236945   3.433   0.726   2.241
 7390WAT     OW36946   0.834   3.479   2.594
 7390WAT    HW136947   0.811   3.399   2.642
 7390WAT    HW236948   0.752   3.507   2.553
 7390WAT    LP136949   0.858   3.528   2.638
 7390WAT    LP236950   0.883   3.465   2.546
 7391WAT     OW36951   1.060   3.171   5.919
 7391WAT    HW136952   1.142   3.160   5.870
 7391WAT    HW236953   1.015   3.087   5.910
 7391WAT    LP136954   1.073   3.186   5.986
 7391WAT    LP236955   1.021   3.222   5.890
 7392WAT     OW36956   4.140   1.280   1.780
 7392WAT    HW136957   4.047   1.283   1.806
 7392WAT    HW236958   4.176   1.205   1.827
 7392WAT    LP136959   4.146   1.271   1.711
 7392WAT    LP236960   4.172   1.339   1.799
 7393WAT     OW36961   3.270   4.455   0.076
 7393WAT    HW136962   3.308   4.369   0.057
 7393WAT    HW236963   3.176   4.442   0.072
 7393WAT    LP136964   3.289   4.477   0.140
 7393WAT    LP236965   3.291   4.502   0.029
 7394WAT     OW36966   4.687   0.878   5.037
 7394WAT    HW136967   4.779   0.875   5.063
 7394WAT    HW236968   4.686   0.838   4.950
 7394WAT    LP136969   4.648   0.841   5.081
 7394WAT    LP236970   4.664   0.944   5.034
 7395WAT     OW36971   2.910   2.863   4.170
 7395WAT    HW136972   2.931   2.871   4.263
 7395WAT    HW236973   2.888   2.771   4.157
 7395WAT    LP136974   2.856   2.904   4.153
 7395WAT    LP236975   2.965   2.881   4.130
 7396WAT     OW36976   4.375   5.230   2.932
 7396WAT    HW136977   4.360   5.197   3.020
 7396WAT    HW236978   4.469   5.244   2.927
 7396WAT    LP136979   4.354   5.183   2.884
 7396WAT    LP236980   4.340   5.290   2.922
 7397WAT     OW36981   3.251   3.153   4.893
 7397WAT    HW136982   3.313   3.081   4.891
 7397WAT    HW236983   3.166   3.111   4.901
 7397WAT    LP136984   3.264   3.195   4.947
 7397WAT    LP236985   3.255   3.190   4.834
 7398WAT     OW36986   2.055   2.223   3.801
 7398WAT    HW136987   1.988   2.244   3.866
 7398WAT    HW236988   2.138   2.234   3.848
 7398WAT    LP136989   2.048   2.158   3.778
 7398WAT    LP236990   2.051   2.268   3.747
 7399WAT     OW36991   2.885   5.444   5.303
 7399WAT    HW136992   2.927   5.360   5.286
 7399WAT    HW236993   2.911   5.467   5.392
 7399WAT    LP136994   2.907   5.493   5.258
 7399WAT    LP236995   2.815   5.438   5.298
 7400WAT     OW36996   5.102   0.284   0.367
 7400WAT    HW136997   5.076   0.373   0.344
 7400WAT    HW236998   5.019   0.236   0.371
 7400WAT    LP136999   5.143   0.257   0.317
 7400WAT    LP237000   5.135   0.282   0.428
 7401WAT     OW37001   1.025   2.303   6.197
 7401WAT    HW137002   0.956   2.261   6.249
 7401WAT    HW237003   0.982   2.377   6.155
 7401WAT    LP137004   1.077   2.325   6.239
 7401WAT    LP237005   1.051   2.258   6.150
 7402WAT     OW37006   6.527   2.638   1.463
 7402WAT    HW137007   6.603   2.638   1.405
 7402WAT    HW237008   6.541   2.564   1.521
 7402WAT    LP137009   6.523   2.698   1.499
 7402WAT    LP237010   6.468   2.630   1.426
 7403WAT     OW37011   0.954   2.466   4.135
 7403WAT    HW137012   1.018   2.400   4.164
 7403WAT    HW237013   1.008   2.541   4.111
 7403WAT    LP137014   0.918   2.442   4.080
 7403WAT    LP237015   0.910   2.482   4.187
 7404WAT     OW37016   4.051   5.922   6.168
 7404WAT    HW137017   3.989   5.851   6.181
 7404WAT    HW237018   3.999   6.002   6.177
 7404WAT    LP137019   4.102   5.920   6.217
 7404WAT    LP237020   4.080   5.919   6.105
 7405WAT     OW37021   0.986   2.408   0.077
 7405WAT    HW137022   1.036   2.489   0.081
 7405WAT    HW237023   0.946   2.400   0.164
 7405WAT    LP137024   0.937   2.411   0.027
 7405WAT    LP237025   1.028   2.353   0.064
 7406WAT     OW37026   1.937   2.769   0.851
 7406WAT    HW137027   1.893   2.684   0.853
 7406WAT    HW237028   2.007   2.761   0.915
 7406WAT    LP137029   1.964   2.781   0.787
 7406WAT    LP237030   1.893   2.820   0.868
 7407WAT     OW37031   1.741   5.629   4.742
 7407WAT    HW137032   1.726   5.711   4.788
 7407WAT    HW237033   1.667   5.621   4.682
 7407WAT    LP137034   1.801   5.631   4.706
 7407WAT    LP237035   1.742   5.575   4.786
 7408WAT     OW37036   5.645   4.071   0.483
 7408WAT    HW137037   5.740   4.064   0.489
 7408WAT    HW237038   5.614   4.052   0.572
 7408WAT    LP137039   5.626   4.135   0.463
 7408WAT    LP237040   5.620   4.024   0.438
 7409WAT     OW37041   3.616   0.306   0.791
 7409WAT    HW137042   3.651   0.355   0.865
 7409WAT    HW237043   3.692   0.262   0.753
 7409WAT    LP137044   3.568   0.259   0.812
 7409WAT    LP237045   3.587   0.350   0.744
 7410WAT     OW37046   3.179   3.464   0.785
 7410WAT    HW137047   3.237   3.517   0.731
 7410WAT    HW237048   3.160   3.519   0.861
 7410WAT    LP137049   3.120   3.449   0.750
 7410WAT    LP237050   3.210   3.405   0.805
 7411WAT     OW37051   4.907   4.682   5.507
 7411WAT    HW137052   4.892   4.775   5.487
 7411WAT    HW237053   4.822   4.651   5.541
 7411WAT    LP137054   4.925   4.647   5.450
 7411WAT    LP237055   4.957   4.675   5.556
 7412WAT     OW37056   4.778   0.831   5.710
 7412WAT    HW137057   4.828   0.876   5.643
 7412WAT    HW237058   4.686   0.851   5.689
 7412WAT    LP137059   4.789   0.762   5.707
 7412WAT    LP237060   4.794   0.855   5.774
 7413WAT     OW37061   5.799   4.082   1.378
 7413WAT    HW137062   5.722   4.075   1.435
 7413WAT    HW237063   5.776   4.150   1.315
 7413WAT    LP137064   5.855   4.101   1.415
 7413WAT    LP237065   5.812   4.021   1.346
 7414WAT     OW37066   2.983   5.644   3.645
 7414WAT    HW137067   2.978   5.581   3.573
 7414WAT    HW237068   3.056   5.701   3.621
 7414WAT    LP137069   2.924   5.680   3.650
 7414WAT    LP237070   2.996   5.611   3.705
 7415WAT     OW37071   3.819   0.780   4.679
 7415WAT    HW137072   3.804   0.752   4.770
 7415WAT    HW237073   3.904   0.823   4.681
 7415WAT    LP137074   3.819   0.725   4.636
 7415WAT    LP237075   3.769   0.825   4.659
 7416WAT     OW37076   4.193   5.513   6.266
 7416WAT    HW137077   4.104   5.526   6.298
 7416WAT    HW237078   4.230   5.601   6.261
 7416WAT    LP137079   4.230   5.474   6.311
 7416WAT    LP237080   4.193   5.483   6.203
 7417WAT     OW37081   1.090   6.130   1.351
 7417WAT    HW137082   1.003   6.140   1.314
 7417WAT    HW237083   1.143   6.096   1.280
 7417WAT    LP137084   1.115   6.192   1.373
 7417WAT    LP237085   1.090   6.086   1.405
 7418WAT     OW37086   3.029   5.992   3.411
 7418WAT    HW137087   2.979   6.049   3.353
 7418WAT    HW237088   3.001   5.904   3.388
 7418WAT    LP137089   3.098   6.000   3.401
 7418WAT    LP237090   3.013   6.006   3.478
 7419WAT     OW37091   4.985   2.296   5.109
 7419WAT    HW137092   4.992   2.298   5.204
 7419WAT    HW237093   5.069   2.331   5.078
 7419WAT    LP137094   4.975   2.231   5.086
 7419WAT    LP237095   4.932   2.337   5.087
 7420WAT     OW37096   0.177   3.929   0.468
 7420WAT    HW137097   0.122   3.906   0.542
 7420WAT    HW237098   0.258   3.963   0.508
 7420WAT    LP137099   0.191   3.873   0.429
 7420WAT    LP237100   0.147   3.978   0.428
 7421WAT     OW37101   3.726   1.429   5.296
 7421WAT    HW137102   3.643   1.469   5.321
 7421WAT    HW237103   3.757   1.481   5.222
 7421WAT    LP137104   3.771   1.432   5.350
 7421WAT    LP237105   3.716   1.362   5.277
 7422WAT     OW37106   3.603   0.574   3.871
 7422WAT    HW137107   3.511   0.548   3.872
 7422WAT    HW237108   3.628   0.572   3.778
 7422WAT    LP137109   3.612   0.638   3.898
 7422WAT    LP237110   3.642   0.528   3.907
 7423WAT     OW37111   0.041   1.582   3.420
 7423WAT    HW137112   0.125   1.583   3.466
 7423WAT    HW237113   0.018   1.489   3.414
 7423WAT    LP137114  -0.008   1.617   3.457
 7423WAT    LP237115   0.047   1.611   3.357
 7424WAT     OW37116   3.288   0.701   2.101
 7424WAT    HW137117   3.366   0.706   2.156
 7424WAT    HW237118   3.215   0.699   2.163
 7424WAT    LP137119   3.283   0.756   2.059
 7424WAT    LP237120   3.289   0.642   2.062
 7425WAT     OW37121   3.907   1.998   1.606
 7425WAT    HW137122   3.887   1.912   1.570
 7425WAT    HW237123   3.999   2.012   1.586
 7425WAT    LP137124   3.867   2.047   1.576
 7425WAT    LP237125   3.896   1.999   1.675
 7426WAT     OW37126   3.889   0.806   0.061
 7426WAT    HW137127   3.851   0.723   0.091
 7426WAT    HW237128   3.877   0.865   0.135
 7426WAT    LP137129   3.957   0.798   0.047
 7426WAT    LP237130   3.855   0.829   0.005
 7427WAT     OW37131   2.701   6.100   6.292
 7427WAT    HW137132   2.667   6.084   6.379
 7427WAT    HW237133   2.624   6.102   6.235
 7427WAT    LP137134   2.735   6.162   6.290
 7427WAT    LP237135   2.745   6.049   6.272
 7428WAT     OW37136   4.469   3.071   3.139
 7428WAT    HW137137   4.405   3.099   3.074
 7428WAT    HW237138   4.417   3.035   3.211
 7428WAT    LP137139   4.511   3.022   3.113
 7428WAT    LP237140   4.507   3.126   3.161
 7429WAT     OW37141   0.972   4.437   4.801
 7429WAT    HW137142   0.955   4.482   4.884
 7429WAT    HW237143   1.026   4.498   4.751
 7429WAT    LP137144   1.006   4.376   4.812
 7429WAT    LP237145   0.912   4.424   4.768
 7430WAT     OW37146   6.099   4.346   2.137
 7430WAT    HW137147   6.121   4.411   2.203
 7430WAT    HW237148   6.183   4.323   2.097
 7430WAT    LP137149   6.070   4.289   2.167
 7430WAT    LP237150   6.056   4.372   2.089
 7431WAT     OW37151   0.903   6.239   0.739
 7431WAT    HW137152   0.934   6.314   0.687
 7431WAT    HW237153   0.978   6.215   0.793
 7431WAT    LP137154   0.848   6.257   0.779
 7431WAT    LP237155   0.884   6.186   0.697
 7432WAT     OW37156   3.862   0.817   6.428
 7432WAT    HW137157   3.887   0.817   6.520
 7432WAT    HW237158   3.770   0.844   6.428
 7432WAT    LP137159   3.901   0.863   6.392
 7432WAT    LP237160   3.870   0.754   6.400
 7433WAT     OW37161   5.474   2.974   4.385
 7433WAT    HW137162   5.555   2.924   4.380
 7433WAT    HW237163   5.429   2.957   4.302
 7433WAT    LP137164   5.435   2.952   4.439
 7433WAT    LP237165   5.487   3.043   4.393
 7434WAT     OW37166   2.192   6.091   1.050
 7434WAT    HW137167   2.265   6.100   1.111
 7434WAT    HW237168   2.114   6.096   1.105
 7434WAT    LP137169   2.192   6.143   1.003
 7434WAT    LP237170   2.195   6.029   1.017
 7435WAT     OW37171   5.438   6.611   0.177
 7435WAT    HW137172   5.388   6.692   0.186
 7435WAT    HW237173   5.400   6.553   0.244
 7435WAT    LP137174   5.429   6.584   0.114
 7435WAT    LP237175   5.506   6.622   0.189
 7436WAT     OW37176   2.835   1.250   3.944
 7436WAT    HW137177   2.789   1.280   4.022
 7436WAT    HW237178   2.891   1.323   3.918
 7436WAT    LP137179   2.874   1.193   3.958
 7436WAT    LP237180   2.790   1.234   3.893
 7437WAT     OW37181   1.021   3.891   4.895
 7437WAT    HW137182   1.080   3.944   4.949
 7437WAT    HW237183   0.935   3.930   4.908
 7437WAT    LP137184   1.040   3.894   4.827
 7437WAT    LP237185   1.021   3.824   4.916
 7438WAT     OW37186   4.408   4.260   4.963
 7438WAT    HW137187   4.365   4.340   4.993
 7438WAT    HW237188   4.426   4.276   4.871
 7438WAT    LP137189   4.468   4.250   4.999
 7438WAT    LP237190   4.366   4.205   4.972
 7439WAT     OW37191   5.842   2.192   3.509
 7439WAT    HW137192   5.923   2.162   3.470
 7439WAT    HW237193   5.868   2.236   3.590
 7439WAT    LP137194   5.809   2.236   3.467
 7439WAT    LP237195   5.800   2.138   3.524
 7440WAT     OW37196   3.469   3.509   3.390
 7440WAT    HW137197   3.404   3.526   3.322
 7440WAT    HW237198   3.509   3.425   3.366
 7440WAT    LP137199   3.517   3.560   3.393
 7440WAT    LP237200   3.438   3.504   3.453
 7441WAT     OW37201   4.672   0.092   4.989
 7441WAT    HW137202   4.703   0.170   4.943
 7441WAT    HW237203   4.751   0.043   5.010
 7441WAT    LP137204   4.638   0.110   5.047
 7441WAT    LP237205   4.629   0.055   4.948
 7442WAT     OW37206   1.333   1.095   2.087
 7442WAT    HW137207   1.415   1.047   2.076
 7442WAT    HW237208   1.276   1.060   2.019
 7442WAT    LP137209   1.306   1.084   2.151
 7442WAT    LP237210   1.343   1.164   2.078
 7443WAT     OW37211   3.147   4.768   3.811
 7443WAT    HW137212   3.221   4.727   3.767
 7443WAT    HW237213   3.074   4.759   3.750
 7443WAT    LP137214   3.133   4.735   3.871
 7443WAT    LP237215   3.160   4.836   3.824
 7444WAT     OW37216   5.819   0.735   4.651
 7444WAT    HW137217   5.789   0.798   4.586
 7444WAT    HW237218   5.905   0.768   4.678
 7444WAT    LP137219   5.775   0.732   4.705
 7444WAT    LP237220   5.825   0.671   4.623
 7445WAT     OW37221   5.150   5.803   0.024
 7445WAT    HW137222   5.061   5.777   0.004
 7445WAT    HW237223   5.158   5.892  -0.010
 7445WAT    LP137224   5.162   5.803   0.093
 7445WAT    LP237225   5.196   5.761  -0.008
 7446WAT     OW37226   4.058   0.519   1.992
 7446WAT    HW137227   4.016   0.488   2.072
 7446WAT    HW237228   4.024   0.461   1.923
 7446WAT    LP137229   4.040   0.585   1.979
 7446WAT    LP237230   4.127   0.513   1.997
 7447WAT     OW37231   0.347   4.512   5.315
 7447WAT    HW137232   0.429   4.550   5.285
 7447WAT    HW237233   0.355   4.510   5.411
 7447WAT    LP137234   0.293   4.551   5.296
 7447WAT    LP237235   0.339   4.447   5.290
 7448WAT     OW37236   5.284   0.346   2.673
 7448WAT    HW137237   5.322   0.429   2.705
 7448WAT    HW237238   5.347   0.314   2.609
 7448WAT    LP137239   5.277   0.301   2.726
 7448WAT    LP237240   5.222   0.357   2.644
 7449WAT     OW37241   4.697   1.566   5.537
 7449WAT    HW137242   4.714   1.586   5.629
 7449WAT    HW237243   4.603   1.579   5.526
 7449WAT    LP137244   4.733   1.609   5.496
 7449WAT    LP237245   4.715   1.500   5.523
 7450WAT     OW37246   6.196   1.507   4.175
 7450WAT    HW137247   6.160   1.552   4.252
 7450WAT    HW237248   6.220   1.578   4.115
 7450WAT    LP137249   6.252   1.469   4.192
 7450WAT    LP237250   6.147   1.466   4.146
 7451WAT     OW37251   5.209   5.950   4.416
 7451WAT    HW137252   5.169   5.863   4.404
 7451WAT    HW237253   5.278   5.954   4.349
 7451WAT    LP137254   5.161   6.000   4.405
 7451WAT    LP237255   5.236   5.956   4.480
 7452WAT     OW37256   4.362   6.529   0.704
 7452WAT    HW137257   4.328   6.452   0.659
 7452WAT    HW237258   4.433   6.496   0.759
 7452WAT    LP137259   4.385   6.576   0.658
 7452WAT    LP237260   4.312   6.558   0.744
 7453WAT     OW37261   0.982   5.461   3.609
 7453WAT    HW137262   0.944   5.499   3.687
 7453WAT    HW237263   0.921   5.392   3.582
 7453WAT    LP137264   0.988   5.509   3.558
 7453WAT    LP237265   1.045   5.434   3.622
 7454WAT     OW37266   4.596   5.140   0.336
 7454WAT    HW137267   4.526   5.205   0.331
 7454WAT    HW237268   4.555   5.064   0.377
 7454WAT    LP137269   4.619   5.124   0.271
 7454WAT    LP237270   4.649   5.164   0.374
 7455WAT     OW37271   3.588   0.728   0.668
 7455WAT    HW137272   3.618   0.785   0.597
 7455WAT    HW237273   3.577   0.642   0.628
 7455WAT    LP137274   3.636   0.726   0.720
 7455WAT    LP237275   3.527   0.751   0.694
 7456WAT     OW37276   5.935   5.528   5.915
 7456WAT    HW137277   5.957   5.453   5.970
 7456WAT    HW237278   5.931   5.602   5.976
 7456WAT    LP137279   5.984   5.539   5.867
 7456WAT    LP237280   5.873   5.518   5.884
 7457WAT     OW37281   5.021   0.292   4.754
 7457WAT    HW137282   5.060   0.214   4.792
 7457WAT    HW237283   5.040   0.285   4.660
 7457WAT    LP137284   4.951   0.293   4.765
 7457WAT    LP237285   5.049   0.350   4.781
 7458WAT     OW37286   1.778   3.918   3.525
 7458WAT    HW137287   1.773   3.884   3.614
 7458WAT    HW237288   1.805   3.843   3.472
 7458WAT    LP137289   1.715   3.942   3.503
 7458WAT    LP237290   1.825   3.970   3.520
 7459WAT     OW37291   4.808   4.129   2.489
 7459WAT    HW137292   4.871   4.125   2.417
 7459WAT    HW237293   4.861   4.126   2.568
 7459WAT    LP137294   4.771   4.189   2.486
 7459WAT    LP237295   4.763   4.075   2.487
 7460WAT     OW37296   1.842   2.239   1.310
 7460WAT    HW137297   1.886   2.155   1.305
 7460WAT    HW237298   1.749   2.218   1.318
 7460WAT    LP137299   1.864   2.275   1.366
 7460WAT    LP237300   1.854   2.277   1.252
 7461WAT     OW37301   5.621   2.798   1.524
 7461WAT    HW137302   5.597   2.830   1.437
 7461WAT    HW237303   5.620   2.876   1.580
 7461WAT    LP137304   5.575   2.750   1.547
 7461WAT    LP237305   5.685   2.770   1.523
 7462WAT     OW37306   6.570   6.431   2.866
 7462WAT    HW137307   6.561   6.465   2.955
 7462WAT    HW237308   6.654   6.384   2.867
 7462WAT    LP137309   6.518   6.387   2.850
 7462WAT    LP237310   6.572   6.483   2.819
 7463WAT     OW37311   4.799   4.671   2.734
 7463WAT    HW137312   4.893   4.686   2.723
 7463WAT    HW237313   4.771   4.631   2.652
 7463WAT    LP137314   4.787   4.629   2.788
 7463WAT    LP237315   4.765   4.732   2.744
 7464WAT     OW37316   3.348   3.015   5.267
 7464WAT    HW137317   3.428   3.011   5.320
 7464WAT    HW237318   3.294   3.081   5.310
 7464WAT    LP137319   3.363   3.034   5.201
 7464WAT    LP237320   3.315   2.953   5.266
 7465WAT     OW37321   0.438   3.522   4.972
 7465WAT    HW137322   0.366   3.529   5.036
 7465WAT    HW237323   0.517   3.516   5.026
 7465WAT    LP137324   0.430   3.464   4.933
 7465WAT    LP237325   0.440   3.578   4.931
 7466WAT     OW37326   1.473   1.220   3.256
 7466WAT    HW137327   1.531   1.153   3.291
 7466WAT    HW237328   1.386   1.196   3.287
 7466WAT    LP137329   1.491   1.283   3.280
 7466WAT    LP237330   1.475   1.221   3.186
 7467WAT     OW37331   4.489   5.900   0.374
 7467WAT    HW137332   4.558   5.868   0.432
 7467WAT    HW237333   4.536   5.954   0.310
 7467WAT    LP137334   4.457   5.847   0.342
 7467WAT    LP237335   4.443   5.939   0.410
 7468WAT     OW37336   6.451   1.421   2.611
 7468WAT    HW137337   6.501   1.398   2.532
 7468WAT    HW237338   6.386   1.484   2.581
 7468WAT    LP137339   6.420   1.364   2.639
 7468WAT    LP237340   6.493   1.450   2.659
 7469WAT     OW37341   3.456   3.094   4.002
 7469WAT    HW137342   3.399   3.019   4.017
 7469WAT    HW237343   3.461   3.102   3.907
 7469WAT    LP137344   3.429   3.152   4.031
 7469WAT    LP237345   3.520   3.083   4.029
 7470WAT     OW37346   6.013   2.097   5.200
 7470WAT    HW137347   5.934   2.095   5.254
 7470WAT    HW237348   5.991   2.047   5.122
 7470WAT    LP137349   6.030   2.163   5.184
 7470WAT    LP237350   6.067   2.067   5.234
 7471WAT     OW37351   1.318   3.688   0.614
 7471WAT    HW137352   1.368   3.743   0.675
 7471WAT    HW237353   1.279   3.620   0.669
 7471WAT    LP137354   1.269   3.726   0.582
 7471WAT    LP237355   1.361   3.659   0.566
 7472WAT     OW37356   4.740   2.465   2.468
 7472WAT    HW137357   4.673   2.493   2.405
 7472WAT    HW237358   4.726   2.370   2.477
 7472WAT    LP137359   4.804   2.478   2.443
 7472WAT    LP237360   4.731   2.497   2.529
 7473WAT     OW37361   3.304   5.863   6.028
 7473WAT    HW137362   3.394   5.855   5.995
 7473WAT    HW237363   3.285   5.956   6.023
 7473WAT    LP137364   3.260   5.825   5.989
 7473WAT    LP237365   3.301   5.841   6.095
 7474WAT     OW37366   1.772   0.008   6.364
 7474WAT    HW137367   1.827  -0.008   6.288
 7474WAT    HW237368   1.720  -0.072   6.374
 7474WAT    LP137369   1.811   0.019   6.421
 7474WAT    LP237370   1.730   0.063   6.353
 7475WAT     OW37371   2.180   3.538   2.527
 7475WAT    HW137372   2.100   3.588   2.542
 7475WAT    HW237373   2.194   3.544   2.433
 7475WAT    LP137374   2.234   3.566   2.562
 7475WAT    LP237375   2.172   3.471   2.547
 7476WAT     OW37376   1.696   5.470   2.686
 7476WAT    HW137377   1.601   5.469   2.672
 7476WAT    HW237378   1.722   5.378   2.679
 7476WAT    LP137379   1.728   5.509   2.638
 7476WAT    LP237380   1.711   5.494   2.750
 7477WAT     OW37381   1.660   2.333   0.101
 7477WAT    HW137382   1.635   2.384   0.177
 7477WAT    HW237383   1.614   2.250   0.110
 7477WAT    LP137384   1.641   2.366   0.042
 7477WAT    LP237385   1.730   2.323   0.100
 7478WAT     OW37386   3.952   2.621   1.199
 7478WAT    HW137387   3.863   2.595   1.222
 7478WAT    HW237388   3.949   2.717   1.197
 7478WAT    LP137389   3.998   2.599   1.247
 7478WAT    LP237390   3.970   2.596   1.136
 7479WAT     OW37391   2.021   0.075   3.114
 7479WAT    HW137392   2.085   0.064   3.184
 7479WAT    HW237393   1.961   0.143   3.146
 7479WAT    LP137394   2.052   0.096   3.055
 7479WAT    LP237395   1.986   0.016   3.102
 7480WAT     OW37396   1.312   6.533   5.885
 7480WAT    HW137397   1.366   6.454   5.884
 7480WAT    HW237398   1.239   6.511   5.944
 7480WAT    LP137399   1.348   6.587   5.910
 7480WAT    LP237400   1.288   6.548   5.821
 7481WAT     OW37401   5.735   5.102   2.532
 7481WAT    HW137402   5.771   5.019   2.501
 7481WAT    HW237403   5.745   5.099   2.627
 7481WAT    LP137404   5.770   5.156   2.505
 7481WAT    LP237405   5.667   5.107   2.514
 7482WAT     OW37406   2.491   0.833   2.226
 7482WAT    HW137407   2.495   0.801   2.316
 7482WAT    HW237408   2.576   0.811   2.189
 7482WAT    LP137409   2.439   0.802   2.191
 7482WAT    LP237410   2.481   0.903   2.225
 7483WAT     OW37411   1.041   6.187   6.477
 7483WAT    HW137412   1.095   6.263   6.457
 7483WAT    HW237413   0.965   6.194   6.418
 7483WAT    LP137414   1.076   6.127   6.464
 7483WAT    LP237415   1.020   6.187   6.544
 7484WAT     OW37416   4.751   0.273   6.462
 7484WAT    HW137417   4.844   0.293   6.466
 7484WAT    HW237418   4.746   0.192   6.411
 7484WAT    LP137419   4.725   0.263   6.526
 7484WAT    LP237420   4.716   0.324   6.430
 7485WAT     OW37421   6.722   3.642   2.685
 7485WAT    HW137422   6.688   3.630   2.774
 7485WAT    HW237423   6.649   3.616   2.628
 7485WAT    LP137424   6.739   3.709   2.674
 7485WAT    LP237425   6.778   3.601   2.674
 7486WAT     OW37426   0.139   0.575   1.300
 7486WAT    HW137427   0.107   0.638   1.364
 7486WAT    HW237428   0.230   0.601   1.284
 7486WAT    LP137429   0.137   0.510   1.325
 7486WAT    LP237430   0.102   0.579   1.241
 7487WAT     OW37431   5.062   5.335   1.921
 7487WAT    HW137432   5.132   5.385   1.879
 7487WAT    HW237433   4.998   5.400   1.947
 7487WAT    LP137434   5.034   5.288   1.877
 7487WAT    LP237435   5.087   5.301   1.978
 7488WAT     OW37436   2.791   1.413   6.528
 7488WAT    HW137437   2.870   1.454   6.563
 7488WAT    HW237438   2.776   1.457   6.444
 7488WAT    LP137439   2.801   1.345   6.518
 7488WAT    LP237440   2.737   1.423   6.571
 7489WAT     OW37441   0.233   4.603   6.051
 7489WAT    HW137442   0.250   4.607   6.145
 7489WAT    HW237443   0.302   4.656   6.011
 7489WAT    LP137444   0.237   4.537   6.028
 7489WAT    LP237445   0.170   4.629   6.036
 7490WAT     OW37446   2.539   2.924   1.856
 7490WAT    HW137447   2.577   2.969   1.780
 7490WAT    HW237448   2.607   2.926   1.922
 7490WAT    LP137449   2.482   2.959   1.879
 7490WAT    LP237450   2.521   2.859   1.840
 7491WAT     OW37451   1.361   1.187   6.237
 7491WAT    HW137452   1.390   1.263   6.188
 7491WAT    HW237453   1.310   1.135   6.175
 7491WAT    LP137454   1.416   1.150   6.260
 7491WAT    LP237455   1.322   1.206   6.292
 7492WAT     OW37456   6.378   1.823   0.795
 7492WAT    HW137457   6.353   1.905   0.752
 7492WAT    HW237458   6.385   1.845   0.887
 7492WAT    LP137459   6.329   1.774   0.785
 7492WAT    LP237460   6.439   1.800   0.770
 7493WAT     OW37461   1.338   5.975   6.058
 7493WAT    HW137462   1.410   5.945   6.003
 7493WAT    HW237463   1.313   6.059   6.020
 7493WAT    LP137464   1.285   5.930   6.057
 7493WAT    LP237465   1.360   5.984   6.124
 7494WAT     OW37466   3.376   6.101   6.362
 7494WAT    HW137467   3.390   6.050   6.441
 7494WAT    HW237468   3.288   6.079   6.334
 7494WAT    LP137469   3.381   6.170   6.376
 7494WAT    LP237470   3.423   6.084   6.313
 7495WAT     OW37471   2.478   4.523   5.799
 7495WAT    HW137472   2.439   4.478   5.874
 7495WAT    HW237473   2.538   4.459   5.761
 7495WAT    LP137474   2.429   4.541   5.753
 7495WAT    LP237475   2.513   4.580   5.820
 7496WAT     OW37476   4.928   4.408   0.529
 7496WAT    HW137477   4.915   4.314   0.545
 7496WAT    HW237478   4.953   4.412   0.437
 7496WAT    LP137479   4.869   4.444   0.541
 7496WAT    LP237480   4.979   4.433   0.570
 7497WAT     OW37481   5.236   1.305   4.858
 7497WAT    HW137482   5.183   1.353   4.921
 7497WAT    HW237483   5.173   1.255   4.806
 7497WAT    LP137484   5.272   1.349   4.817
 7497WAT    LP237485   5.281   1.262   4.890
 7498WAT     OW37486   3.137   5.188   0.902
 7498WAT    HW137487   3.178   5.112   0.863
 7498WAT    HW237488   3.045   5.165   0.910
 7498WAT    LP137489   3.164   5.201   0.966
 7498WAT    LP237490   3.145   5.245   0.862
 7499WAT     OW37491   3.852   1.177   4.987
 7499WAT    HW137492   3.841   1.153   5.079
 7499WAT    HW237493   3.762   1.186   4.954
 7499WAT    LP137494   3.886   1.238   4.981
 7499WAT    LP237495   3.886   1.127   4.952
 7500WAT     OW37496   6.401   0.717   3.086
 7500WAT    HW137497   6.370   0.808   3.094
 7500WAT    HW237498   6.436   0.696   3.172
 7500WAT    LP137499   6.347   0.675   3.070
 7500WAT    LP237500   6.450   0.712   3.037
 7501WAT     OW37501   0.585   2.416   1.152
 7501WAT    HW137502   0.491   2.401   1.157
 7501WAT    HW237503   0.594   2.502   1.110
 7501WAT    LP137504   0.614   2.416   1.216
 7501WAT    LP237505   0.616   2.366   1.113
 7502WAT     OW37506   2.515   3.720   6.023
 7502WAT    HW137507   2.462   3.796   6.046
 7502WAT    HW237508   2.511   3.663   6.100
 7502WAT    LP137509   2.490   3.687   5.967
 7502WAT    LP237510   2.581   3.739   6.011
 7503WAT     OW37511   5.220   5.888   3.294
 7503WAT    HW137512   5.278   5.881   3.370
 7503WAT    HW237513   5.135   5.859   3.326
 7503WAT    LP137514   5.217   5.954   3.272
 7503WAT    LP237515   5.242   5.847   3.242
 7504WAT     OW37516   1.196   2.488   1.147
 7504WAT    HW137517   1.157   2.438   1.218
 7504WAT    HW237518   1.290   2.479   1.159
 7504WAT    LP137519   1.176   2.462   1.085
 7504WAT    LP237520   1.176   2.556   1.151
 7505WAT     OW37521   1.143   1.324   5.851
 7505WAT    HW137522   1.129   1.403   5.903
 7505WAT    HW237523   1.234   1.299   5.869
 7505WAT    LP137524   1.099   1.273   5.871
 7505WAT    LP237525   1.134   1.337   5.783
 7506WAT     OW37526   2.436   4.907   3.765
 7506WAT    HW137527   2.455   4.907   3.859
 7506WAT    HW237528   2.469   4.822   3.735
 7506WAT    LP137529   2.367   4.912   3.753
 7506WAT    LP237530   2.469   4.959   3.733
 7507WAT     OW37531   4.313   5.013   0.992
 7507WAT    HW137532   4.310   4.922   1.020
 7507WAT    HW237533   4.240   5.022   0.930
 7507WAT    LP137534   4.305   5.056   1.046
 7507WAT    LP237535   4.374   5.027   0.960
 7508WAT     OW37536   5.800   2.105   5.604
 7508WAT    HW137537   5.882   2.105   5.654
 7508WAT    HW237538   5.764   2.017   5.619
 7508WAT    LP137539   5.756   2.154   5.628
 7508WAT    LP237540   5.813   2.115   5.536
 7509WAT     OW37541   2.601   5.132   3.918
 7509WAT    HW137542   2.659   5.206   3.901
 7509WAT    HW237543   2.641   5.059   3.871
 7509WAT    LP137544   2.598   5.118   3.987
 7509WAT    LP237545   2.537   5.145   3.894
 7510WAT     OW37546   1.764   4.722   5.986
 7510WAT    HW137547   1.840   4.690   5.938
 7510WAT    HW237548   1.690   4.704   5.927
 7510WAT    LP137549   1.756   4.687   6.046
 7510WAT    LP237550   1.769   4.790   5.998
 7511WAT     OW37551   6.172   2.541   3.087
 7511WAT    HW137552   6.239   2.600   3.119
 7511WAT    HW237553   6.213   2.454   3.086
 7511WAT    LP137554   6.116   2.541   3.129
 7511WAT    LP237555   6.152   2.559   3.022
 7512WAT     OW37556   6.499   3.341   0.364
 7512WAT    HW137557   6.458   3.277   0.306
 7512WAT    HW237558   6.448   3.421   0.352
 7512WAT    LP137559   6.497   3.319   0.430
 7512WAT    LP237560   6.566   3.352   0.345
 7513WAT     OW37561   1.548   1.293   2.723
 7513WAT    HW137562   1.549   1.263   2.814
 7513WAT    HW237563   1.614   1.238   2.680
 7513WAT    LP137564   1.485   1.283   2.694
 7513WAT    LP237565   1.565   1.360   2.719
 7514WAT     OW37566   5.653   3.662   0.562
 7514WAT    HW137567   5.565   3.699   0.554
 7514WAT    HW237568   5.705   3.732   0.601
 7514WAT    LP137569   5.652   3.606   0.603
 7514WAT    LP237570   5.678   3.645   0.498
 7515WAT     OW37571   1.835   0.612   2.095
 7515WAT    HW137572   1.826   0.707   2.101
 7515WAT    HW237573   1.916   0.599   2.045
 7515WAT    LP137574   1.841   0.584   2.159
 7515WAT    LP237575   1.781   0.584   2.062
 7516WAT     OW37576   0.955   5.911   1.033
 7516WAT    HW137577   0.934   5.919   0.940
 7516WAT    HW237578   0.949   5.817   1.051
 7516WAT    LP137579   1.020   5.935   1.046
 7516WAT    LP237580   0.909   5.947   1.072
 7517WAT     OW37581   3.666   2.065   5.315
 7517WAT    HW137582   3.670   2.126   5.242
 7517WAT    HW237583   3.749   2.077   5.361
 7517WAT    LP137584   3.612   2.080   5.357
 7517WAT    LP237585   3.659   1.999   5.292
 7518WAT     OW37586   6.766   6.327   2.113
 7518WAT    HW137587   6.801   6.411   2.083
 7518WAT    HW237588   6.782   6.327   2.208
 7518WAT    LP137589   6.697   6.323   2.100
 7518WAT    LP237590   6.799   6.274   2.083
 7519WAT     OW37591   1.608   2.961   0.114
 7519WAT    HW137592   1.647   2.877   0.087
 7519WAT    HW237593   1.557   2.989   0.038
 7519WAT    LP137594   1.567   2.952   0.169
 7519WAT    LP237595   1.658   3.007   0.129
 7520WAT     OW37596   3.717   6.502   4.021
 7520WAT    HW137597   3.661   6.557   4.077
 7520WAT    HW237598   3.795   6.487   4.073
 7520WAT    LP137599   3.685   6.442   4.006
 7520WAT    LP237600   3.733   6.536   3.962
 7521WAT     OW37601   0.338   1.697   0.377
 7521WAT    HW137602   0.310   1.682   0.287
 7521WAT    HW237603   0.425   1.737   0.369
 7521WAT    LP137604   0.294   1.740   0.410
 7521WAT    LP237605   0.342   1.637   0.412
 7522WAT     OW37606   6.015   0.820   5.685
 7522WAT    HW137607   6.022   0.800   5.778
 7522WAT    HW237608   6.089   0.878   5.668
 7522WAT    LP137609   6.019   0.762   5.647
 7522WAT    LP237610   5.954   0.853   5.672
 7523WAT     OW37611   1.065   6.178   2.398
 7523WAT    HW137612   1.098   6.121   2.328
 7523WAT    HW237613   1.086   6.131   2.479
 7523WAT    LP137614   1.097   6.240   2.396
 7523WAT    LP237615   0.996   6.187   2.392
 7524WAT     OW37616   1.196   3.707   2.444
 7524WAT    HW137617   1.151   3.774   2.392
 7524WAT    HW237618   1.149   3.626   2.426
 7524WAT    LP137619   1.263   3.701   2.424
 7524WAT    LP237620   1.194   3.723   2.512
 7525WAT     OW37621   1.995   1.547   4.625
 7525WAT    HW137622   1.980   1.535   4.531
 7525WAT    HW237623   2.087   1.572   4.632
 7525WAT    LP137624   1.953   1.597   4.650
 7525WAT    LP237625   1.983   1.487   4.660
 7526WAT     OW37626   3.746   6.532   0.350
 7526WAT    HW137627   3.803   6.532   0.273
 7526WAT    HW237628   3.730   6.439   0.368
 7526WAT    LP137629   3.777   6.562   0.405
 7526WAT    LP237630   3.686   6.565   0.337
 7527WAT     OW37631   6.037   3.539   5.916
 7527WAT    HW137632   6.102   3.605   5.940
 7527WAT    HW237633   6.083   3.479   5.858
 7527WAT    LP137634   6.014   3.506   5.973
 7527WAT    LP237635   5.982   3.569   5.883
 7528WAT     OW37636   4.768   1.943   4.007
 7528WAT    HW137637   4.853   1.900   4.011
 7528WAT    HW237638   4.785   2.034   4.030
 7528WAT    LP137639   4.741   1.939   3.942
 7528WAT    LP237640   4.723   1.914   4.052
 7529WAT     OW37641   0.985   6.450   0.592
 7529WAT    HW137642   0.979   6.530   0.644
 7529WAT    HW237643   1.076   6.447   0.563
 7529WAT    LP137644   0.970   6.394   0.631
 7529WAT    LP237645   0.941   6.452   0.537
 7530WAT     OW37646   2.376   4.646   5.164
 7530WAT    HW137647   2.338   4.725   5.204
 7530WAT    HW237648   2.454   4.678   5.119
 7530WAT    LP137649   2.392   4.599   5.214
 7530WAT    LP237650   2.331   4.618   5.119
 7531WAT     OW37651   5.374   0.120   5.647
 7531WAT    HW137652   5.388   0.081   5.733
 7531WAT    HW237653   5.460   0.149   5.619
 7531WAT    LP137654   5.349   0.072   5.602
 7531WAT    LP237655   5.329   0.174   5.651
 7532WAT     OW37656   6.701   4.284   0.412
 7532WAT    HW137657   6.726   4.198   0.377
 7532WAT    HW237658   6.760   4.297   0.486
 7532WAT    LP137659   6.711   4.334   0.364
 7532WAT    LP237660   6.634   4.284   0.432
 7533WAT     OW37661   6.290   4.168   4.350
 7533WAT    HW137662   6.286   4.104   4.421
 7533WAT    HW237663   6.200   4.174   4.319
 7533WAT    LP137664   6.313   4.230   4.373
 7533WAT    LP237665   6.332   4.145   4.299
 7534WAT     OW37666   4.331   2.687   4.595
 7534WAT    HW137667   4.419   2.654   4.613
 7534WAT    HW237668   4.300   2.719   4.680
 7534WAT    LP137669   4.333   2.739   4.549
 7534WAT    LP237670   4.290   2.636   4.571
 7535WAT     OW37671   3.951   1.935   2.633
 7535WAT    HW137672   3.873   1.897   2.593
 7535WAT    HW237673   3.998   1.975   2.560
 7535WAT    LP137674   3.934   1.983   2.681
 7535WAT    LP237675   3.990   1.885   2.663
 7536WAT     OW37676   0.904   2.789   0.316
 7536WAT    HW137677   0.941   2.875   0.335
 7536WAT    HW237678   0.979   2.730   0.320
 7536WAT    LP137679   0.856   2.771   0.364
 7536WAT    LP237680   0.874   2.788   0.253
 7537WAT     OW37681   0.786   0.987   3.613
 7537WAT    HW137682   0.838   1.031   3.545
 7537WAT    HW237683   0.751   0.909   3.570
 7537WAT    LP137684   0.827   0.970   3.667
 7537WAT    LP237685   0.735   1.029   3.635
 7538WAT     OW37686   2.783   5.342   2.685
 7538WAT    HW137687   2.688   5.346   2.674
 7538WAT    HW237688   2.817   5.402   2.618
 7538WAT    LP137689   2.801   5.364   2.749
 7538WAT    LP237690   2.806   5.277   2.674
 7539WAT     OW37691   5.455   3.795   3.197
 7539WAT    HW137692   5.512   3.871   3.212
 7539WAT    HW237693   5.419   3.775   3.283
 7539WAT    LP137694   5.404   3.812   3.152
 7539WAT    LP237695   5.492   3.741   3.172
 7540WAT     OW37696   2.267   3.658   6.367
 7540WAT    HW137697   2.261   3.722   6.438
 7540WAT    HW237698   2.362   3.646   6.355
 7540WAT    LP137699   2.236   3.598   6.384
 7540WAT    LP237700   2.238   3.683   6.308
 7541WAT     OW37701   2.204   5.103   1.687
 7541WAT    HW137702   2.154   5.106   1.605
 7541WAT    HW237703   2.273   5.039   1.670
 7541WAT    LP137704   2.231   5.166   1.701
 7541WAT    LP237705   2.164   5.083   1.740
 7542WAT     OW37706   6.689   4.349   2.266
 7542WAT    HW137707   6.686   4.275   2.205
 7542WAT    HW237708   6.599   4.381   2.270
 7542WAT    LP137709   6.710   4.327   2.330
 7542WAT    LP237710   6.733   4.399   2.243
 7543WAT     OW37711   1.690   0.814   3.319
 7543WAT    HW137712   1.786   0.815   3.312
 7543WAT    HW237713   1.668   0.724   3.340
 7543WAT    LP137714   1.669   0.857   3.370
 7543WAT    LP237715   1.661   0.834   3.259
 7544WAT     OW37716   0.732   6.286   4.271
 7544WAT    HW137717   0.794   6.273   4.199
 7544WAT    HW237718   0.697   6.374   4.256
 7544WAT    LP137719   0.681   6.239   4.269
 7544WAT    LP237720   0.765   6.283   4.333
 7545WAT     OW37721   2.645   0.201   4.753
 7545WAT    HW137722   2.608   0.289   4.762
 7545WAT    HW237723   2.597   0.148   4.817
 7545WAT    LP137724   2.635   0.176   4.689
 7545WAT    LP237725   2.714   0.201   4.768
 7546WAT     OW37726   0.404   0.227   3.292
 7546WAT    HW137727   0.421   0.136   3.314
 7546WAT    HW237728   0.315   0.243   3.324
 7546WAT    LP137729   0.449   0.269   3.324
 7546WAT    LP237730   0.407   0.237   3.223
 7547WAT     OW37731   2.210   4.024   5.674
 7547WAT    HW137732   2.154   4.052   5.746
 7547WAT    HW237733   2.174   4.066   5.596
 7547WAT    LP137734   2.276   4.045   5.684
 7547WAT    LP237735   2.209   3.954   5.667
 7548WAT     OW37736   0.956   1.335   6.303
 7548WAT    HW137737   0.879   1.290   6.337
 7548WAT    HW237738   0.926   1.424   6.285
 7548WAT    LP137739   1.008   1.335   6.351
 7548WAT    LP237740   0.979   1.304   6.244
 7549WAT     OW37741   5.018   4.648   4.875
 7549WAT    HW137742   5.070   4.618   4.949
 7549WAT    HW237743   4.961   4.716   4.912
 7549WAT    LP137744   5.059   4.675   4.825
 7549WAT    LP237745   4.980   4.596   4.848
 7550WAT     OW37746   1.995   1.854   0.272
 7550WAT    HW137747   1.988   1.763   0.299
 7550WAT    HW237748   2.014   1.902   0.353
 7550WAT    LP137749   2.047   1.862   0.226
 7550WAT    LP237750   1.935   1.876   0.243
 7551WAT     OW37751   3.984   1.663   4.693
 7551WAT    HW137752   3.916   1.597   4.680
 7551WAT    HW237753   3.937   1.740   4.723
 7551WAT    LP137754   4.030   1.642   4.742
 7551WAT    LP237755   4.018   1.676   4.634
 7552WAT     OW37756   4.946   3.187   4.338
 7552WAT    HW137757   4.944   3.191   4.242
 7552WAT    HW237758   4.997   3.262   4.365
 7552WAT    LP137759   4.881   3.190   4.364
 7552WAT    LP237760   4.976   3.127   4.359
 7553WAT     OW37761   3.697   2.953   0.535
 7553WAT    HW137762   3.705   2.893   0.610
 7553WAT    HW237763   3.765   2.924   0.475
 7553WAT    LP137764   3.634   2.948   0.506
 7553WAT    LP237765   3.708   3.019   0.556
 7554WAT     OW37766   5.985   6.681   5.727
 7554WAT    HW137767   5.906   6.723   5.762
 7554WAT    HW237768   6.033   6.752   5.686
 7554WAT    LP137769   6.023   6.652   5.779
 7554WAT    LP237770   5.968   6.632   5.680
 7555WAT     OW37771   0.144   5.732   5.095
 7555WAT    HW137772   0.133   5.656   5.152
 7555WAT    HW237773   0.185   5.698   5.016
 7555WAT    LP137774   0.082   5.761   5.080
 7555WAT    LP237775   0.185   5.780   5.126
 7556WAT     OW37776   0.502   6.245   5.898
 7556WAT    HW137777   0.423   6.288   5.865
 7556WAT    HW237778   0.557   6.234   5.820
 7556WAT    LP137779   0.534   6.285   5.945
 7556WAT    LP237780   0.487   6.183   5.927
 7557WAT     OW37781   5.960   4.399   6.383
 7557WAT    HW137782   5.896   4.342   6.424
 7557WAT    HW237783   5.961   4.372   6.291
 7557WAT    LP137784   5.942   4.466   6.389
 7557WAT    LP237785   6.024   4.390   6.411
 7558WAT     OW37786   3.035   6.670   2.686
 7558WAT    HW137787   3.077   6.729   2.749
 7558WAT    HW237788   3.018   6.590   2.736
 7558WAT    LP137789   2.975   6.697   2.663
 7558WAT    LP237790   3.077   6.657   2.632
 7559WAT     OW37791   4.017   0.100   4.115
 7559WAT    HW137792   4.103   0.106   4.157
 7559WAT    HW237793   3.965   0.169   4.157
 7559WAT    LP137794   4.022   0.112   4.047
 7559WAT    LP237795   3.988   0.037   4.127
 7560WAT     OW37796   6.681   5.485   2.523
 7560WAT    HW137797   6.725   5.562   2.560
 7560WAT    HW237798   6.601   5.520   2.483
 7560WAT    LP137799   6.721   5.453   2.476
 7560WAT    LP237800   6.664   5.439   2.574
 7561WAT     OW37801   6.482   5.542   3.058
 7561WAT    HW137802   6.550   5.610   3.051
 7561WAT    HW237803   6.446   5.534   2.970
 7561WAT    LP137804   6.510   5.482   3.079
 7561WAT    LP237805   6.433   5.562   3.104
 7562WAT     OW37806   1.505   4.691   0.178
 7562WAT    HW137807   1.423   4.733   0.204
 7562WAT    HW237808   1.547   4.667   0.261
 7562WAT    LP137809   1.492   4.634   0.139
 7562WAT    LP237810   1.545   4.735   0.142
 7563WAT     OW37811   0.504   6.279   2.334
 7563WAT    HW137812   0.596   6.265   2.356
 7563WAT    HW237813   0.479   6.202   2.284
 7563WAT    LP137814   0.465   6.284   2.392
 7563WAT    LP237815   0.497   6.337   2.296
 7564WAT     OW37816   5.358   0.592   5.962
 7564WAT    HW137817   5.294   0.612   6.031
 7564WAT    HW237818   5.375   0.498   5.973
 7564WAT    LP137819   5.331   0.605   5.899
 7564WAT    LP237820   5.416   0.629   5.971
 7565WAT     OW37821   1.108   0.067   0.465
 7565WAT    HW137822   1.014   0.086   0.470
 7565WAT    HW237823   1.137   0.068   0.556
 7565WAT    LP137824   1.119   0.004   0.436
 7565WAT    LP237825   1.141   0.116   0.428
 7566WAT     OW37826   6.001   4.864   5.509
 7566WAT    HW137827   6.086   4.864   5.464
 7566WAT    HW237828   6.015   4.916   5.588
 7566WAT    LP137829   5.952   4.893   5.468
 7566WAT    LP237830   5.981   4.799   5.525
 7567WAT     OW37831   1.437   4.058   4.920
 7567WAT    HW137832   1.372   4.119   4.885
 7567WAT    HW237833   1.428   4.066   5.015
 7567WAT    LP137834   1.424   3.993   4.900
 7567WAT    LP237835   1.502   4.077   4.900
 7568WAT     OW37836   0.877   6.030   5.415
 7568WAT    HW137837   0.851   5.952   5.366
 7568WAT    HW237838   0.795   6.076   5.432
 7568WAT    LP137839   0.908   6.013   5.475
 7568WAT    LP237840   0.920   6.070   5.377
 7569WAT     OW37841   0.720   0.534   5.326
 7569WAT    HW137842   0.794   0.540   5.386
 7569WAT    HW237843   0.645   0.564   5.376
 7569WAT    LP137844   0.731   0.574   5.270
 7569WAT    LP237845   0.711   0.467   5.305
 7570WAT     OW37846   4.151   6.592   6.616
 7570WAT    HW137847   4.157   6.682   6.585
 7570WAT    HW237848   4.072   6.558   6.575
 7570WAT    LP137849   4.207   6.555   6.595
 7570WAT    LP237850   4.146   6.590   6.685
 7571WAT     OW37851   2.159   6.298   0.869
 7571WAT    HW137852   2.180   6.261   0.784
 7571WAT    HW237853   2.173   6.226   0.931
 7571WAT    LP137854   2.202   6.352   0.884
 7571WAT    LP237855   2.093   6.320   0.871
 7572WAT     OW37856   6.625   2.818   6.638
 7572WAT    HW137857   6.581   2.737   6.610
 7572WAT    HW237858   6.718   2.797   6.633
 7572WAT    LP137859   6.609   2.871   6.595
 7572WAT    LP237860   6.607   2.834   6.703
 7573WAT     OW37861   5.971   2.593   6.174
 7573WAT    HW137862   5.894   2.548   6.209
 7573WAT    HW237863   6.026   2.611   6.250
 7573WAT    LP137864   6.005   2.552   6.128
 7573WAT    LP237865   5.953   2.653   6.142
 7574WAT     OW37866   2.590   6.584   4.065
 7574WAT    HW137867   2.650   6.628   4.006
 7574WAT    HW237868   2.636   6.504   4.092
 7574WAT    LP137869   2.576   6.624   4.121
 7574WAT    LP237870   2.530   6.568   4.033
 7575WAT     OW37871   0.126   3.504   6.439
 7575WAT    HW137872   0.149   3.510   6.531
 7575WAT    HW237873   0.118   3.410   6.422
 7575WAT    LP137874   0.065   3.536   6.427
 7575WAT    LP237875   0.175   3.532   6.399
 7576WAT     OW37876   5.341   4.692   1.346
 7576WAT    HW137877   5.334   4.748   1.424
 7576WAT    HW237878   5.334   4.753   1.273
 7576WAT    LP137879   5.403   4.659   1.345
 7576WAT    LP237880   5.289   4.645   1.344
 7577WAT     OW37881   3.155   1.934   6.014
 7577WAT    HW137882   3.203   1.851   6.016
 7577WAT    HW237883   3.202   1.990   6.076
 7577WAT    LP137884   3.156   1.962   5.950
 7577WAT    LP237885   3.089   1.925   6.035
 7578WAT     OW37886   3.223   6.107   5.310
 7578WAT    HW137887   3.282   6.178   5.283
 7578WAT    HW237888   3.144   6.120   5.258
 7578WAT    LP137889   3.252   6.045   5.297
 7578WAT    LP237890   3.209   6.112   5.379
 7579WAT     OW37891   3.578   2.778   5.849
 7579WAT    HW137892   3.671   2.780   5.874
 7579WAT    HW237893   3.560   2.685   5.835
 7579WAT    LP137894   3.538   2.804   5.900
 7579WAT    LP237895   3.568   2.814   5.790
 7580WAT     OW37896   6.656   3.429   6.609
 7580WAT    HW137897   6.708   3.384   6.676
 7580WAT    HW237898   6.566   3.397   6.623
 7580WAT    LP137899   6.659   3.498   6.618
 7580WAT    LP237900   6.678   3.412   6.545
 7581WAT     OW37901   5.297   6.330   6.195
 7581WAT    HW137902   5.351   6.395   6.240
 7581WAT    HW237903   5.213   6.375   6.182
 7581WAT    LP137904   5.325   6.312   6.134
 7581WAT    LP237905   5.288   6.273   6.235
 7582WAT     OW37906   3.708   1.589   2.006
 7582WAT    HW137907   3.642   1.592   2.076
 7582WAT    HW237908   3.663   1.547   1.933
 7582WAT    LP137909   3.728   1.654   1.989
 7582WAT    LP237910   3.763   1.552   2.026
 7583WAT     OW37911   4.472   0.112   0.986
 7583WAT    HW137912   4.475   0.055   1.063
 7583WAT    HW237913   4.387   0.093   0.946
 7583WAT    LP137914   4.477   0.179   1.005
 7583WAT    LP237915   4.524   0.096   0.941
 7584WAT     OW37916   1.216   2.802   3.195
 7584WAT    HW137917   1.242   2.886   3.160
 7584WAT    HW237918   1.298   2.760   3.221
 7584WAT    LP137919   1.174   2.810   3.251
 7584WAT    LP237920   1.183   2.764   3.147
 7585WAT     OW37921   1.255   3.262   4.938
 7585WAT    HW137922   1.341   3.221   4.946
 7585WAT    HW237923   1.192   3.192   4.958
 7585WAT    LP137924   1.248   3.315   4.983
 7585WAT    LP237925   1.245   3.286   4.873
 7586WAT     OW37926   4.406   0.168   4.638
 7586WAT    HW137927   4.479   0.228   4.622
 7586WAT    HW237928   4.411   0.104   4.567
 7586WAT    LP137929   4.413   0.137   4.700
 7586WAT    LP237930   4.345   0.202   4.636
 7587WAT     OW37931   3.767   4.440   4.161
 7587WAT    HW137932   3.798   4.372   4.220
 7587WAT    HW237933   3.712   4.497   4.216
 7587WAT    LP137934   3.820   4.476   4.134
 7587WAT    LP237935   3.729   4.413   4.109
 7588WAT     OW37936   6.161   2.457   6.032
 7588WAT    HW137937   6.148   2.366   6.056
 7588WAT    HW237938   6.093   2.505   6.079
 7588WAT    LP137939   6.224   2.479   6.051
 7588WAT    LP237940   6.154   2.466   5.962
 7589WAT     OW37941   2.596   0.375   6.146
 7589WAT    HW137942   2.652   0.451   6.129
 7589WAT    HW237943   2.645   0.323   6.209
 7589WAT    LP137944   2.534   0.395   6.172
 7589WAT    LP237945   2.585   0.339   6.087
 7590WAT     OW37946   4.753   5.764   5.685
 7590WAT    HW137947   4.834   5.788   5.729
 7590WAT    HW237948   4.781   5.700   5.618
 7590WAT    LP137949   4.708   5.734   5.729
 7590WAT    LP237950   4.723   5.819   5.654
 7591WAT     OW37951   6.368   6.598   1.484
 7591WAT    HW137952   6.390   6.589   1.576
 7591WAT    HW237953   6.422   6.532   1.440
 7591WAT    LP137954   6.300   6.584   1.473
 7591WAT    LP237955   6.383   6.662   1.460
 7592WAT     OW37956   6.702   0.501   6.030
 7592WAT    HW137957   6.701   0.440   6.103
 7592WAT    HW237958   6.788   0.543   6.034
 7592WAT    LP137959   6.695   0.467   5.969
 7592WAT    LP237960   6.651   0.549   6.036
 7593WAT     OW37961   5.548   5.228   0.441
 7593WAT    HW137962   5.607   5.237   0.516
 7593WAT    HW237963   5.461   5.251   0.475
 7593WAT    LP137964   5.567   5.271   0.389
 7593WAT    LP237965   5.548   5.162   0.418
 7594WAT     OW37966   3.371   4.258   6.350
 7594WAT    HW137967   3.391   4.328   6.288
 7594WAT    HW237968   3.430   4.187   6.324
 7594WAT    LP137969   3.384   4.278   6.415
 7594WAT    LP237970   3.304   4.239   6.344
 7595WAT     OW37971   1.918   1.253   3.780
 7595WAT    HW137972   1.984   1.183   3.774
 7595WAT    HW237973   1.891   1.252   3.872
 7595WAT    LP137974   1.946   1.315   3.763
 7595WAT    LP237975   1.863   1.239   3.739
 7596WAT     OW37976   1.231   3.404   4.700
 7596WAT    HW137977   1.227   3.355   4.782
 7596WAT    HW237978   1.164   3.363   4.645
 7596WAT    LP137979   1.217   3.471   4.711
 7596WAT    LP237980   1.294   3.397   4.671
 7597WAT     OW37981   4.971   0.360   1.684
 7597WAT    HW137982   4.893   0.319   1.648
 7597WAT    HW237983   4.994   0.307   1.761
 7597WAT    LP137984   5.023   0.360   1.638
 7597WAT    LP237985   4.958   0.426   1.704
 7598WAT     OW37986   5.066   5.997   5.580
 7598WAT    HW137987   5.057   5.957   5.666
 7598WAT    HW237988   5.068   5.924   5.519
 7598WAT    LP137989   5.011   6.039   5.567
 7598WAT    LP237990   5.125   6.035   5.576
 7599WAT     OW37991   4.824   1.039   1.986
 7599WAT    HW137992   4.802   0.977   1.916
 7599WAT    HW237993   4.915   1.019   2.008
 7599WAT    LP137994   4.817   1.105   1.963
 7599WAT    LP237995   4.782   1.029   2.041
 7600WAT     OW37996   4.304   0.840   3.112
 7600WAT    HW137997   4.284   0.856   3.020
 7600WAT    HW237998   4.389   0.796   3.112
 7600WAT    LP137999   4.307   0.900   3.148
 7600WAT    LP238000   4.255   0.799   3.142
 7601WAT     OW38001   1.484   4.835   6.582
 7601WAT    HW138002   1.512   4.800   6.666
 7601WAT    HW238003   1.424   4.770   6.547
 7601WAT    LP138004   1.452   4.897   6.590
 7601WAT    LP238005   1.539   4.843   6.539
 7602WAT     OW38006   5.352   4.582   3.461
 7602WAT    HW138007   5.338   4.622   3.375
 7602WAT    HW238008   5.268   4.542   3.483
 7602WAT    LP138009   5.403   4.534   3.458
 7602WAT    LP238010   5.369   4.631   3.508
 7603WAT     OW38011   4.154   0.201   4.986
 7603WAT    HW138012   4.215   0.257   5.034
 7603WAT    HW238013   4.162   0.230   4.895
 7603WAT    LP138014   4.172   0.134   4.993
 7603WAT    LP238015   4.089   0.211   5.010
 7604WAT     OW38016   5.196   6.564   5.900
 7604WAT    HW138017   5.150   6.541   5.981
 7604WAT    HW238018   5.211   6.658   5.906
 7604WAT    LP138019   5.256   6.529   5.895
 7604WAT    LP238020   5.156   6.549   5.845
 7605WAT     OW38021   0.792   0.797   1.689
 7605WAT    HW138022   0.736   0.796   1.766
 7605WAT    HW238023   0.744   0.747   1.623
 7605WAT    LP138024   0.803   0.863   1.667
 7605WAT    LP238025   0.854   0.767   1.703
 7606WAT     OW38026   4.584   4.666   1.068
 7606WAT    HW138027   4.582   4.571   1.080
 7606WAT    HW238028   4.642   4.698   1.137
 7606WAT    LP138029   4.610   4.682   1.005
 7606WAT    LP238030   4.520   4.693   1.074
 7607WAT     OW38031   3.199   5.019   3.011
 7607WAT    HW138032   3.199   5.089   3.076
 7607WAT    HW238033   3.187   5.065   2.928
 7607WAT    LP138034   3.260   4.985   3.011
 7607WAT    LP238035   3.147   4.974   3.023
 7608WAT     OW38036   4.740   6.375   3.432
 7608WAT    HW138037   4.730   6.283   3.408
 7608WAT    HW238038   4.834   6.391   3.427
 7608WAT    LP138039   4.705   6.416   3.388
 7608WAT    LP238040   4.716   6.386   3.497
 7609WAT     OW38041   1.675   2.091   3.834
 7609WAT    HW138042   1.755   2.040   3.850
 7609WAT    HW238043   1.684   2.123   3.744
 7609WAT    LP138044   1.618   2.049   3.839
 7609WAT    LP238045   1.670   2.144   3.879
 7610WAT     OW38046   4.599   3.073   5.086
 7610WAT    HW138047   4.531   3.114   5.139
 7610WAT    HW238048   4.552   3.011   5.030
 7610WAT    LP138049   4.632   3.121   5.047
 7610WAT    LP238050   4.646   3.040   5.126
 7611WAT     OW38051   2.139   5.764   4.571
 7611WAT    HW138052   2.090   5.804   4.499
 7611WAT    HW238053   2.230   5.763   4.541
 7611WAT    LP138054   2.132   5.801   4.630
 7611WAT    LP238055   2.116   5.698   4.582
 7612WAT     OW38056   0.719   1.190   3.136
 7612WAT    HW138057   0.777   1.119   3.111
 7612WAT    HW238058   0.756   1.267   3.092
 7612WAT    LP138059   0.654   1.178   3.114
 7612WAT    LP238060   0.720   1.199   3.205
 7613WAT     OW38061   3.186   6.587   0.134
 7613WAT    HW138062   3.181   6.552   0.046
 7613WAT    HW238063   3.095   6.595   0.162
 7613WAT    LP138064   3.221   6.544   0.177
 7613WAT    LP238065   3.217   6.650   0.134
 7614WAT     OW38066   5.129   5.666   2.119
 7614WAT    HW138067   5.058   5.619   2.075
 7614WAT    HW238068   5.187   5.598   2.152
 7614WAT    LP138069   5.163   5.707   2.074
 7614WAT    LP238070   5.104   5.705   2.171
 7615WAT     OW38071   4.762   4.405   2.967
 7615WAT    HW138072   4.726   4.466   3.032
 7615WAT    HW238073   4.736   4.318   2.999
 7615WAT    LP138074   4.734   4.417   2.904
 7615WAT    LP238075   4.831   4.410   2.964
 7616WAT     OW38076   1.804   5.232   3.174
 7616WAT    HW138077   1.758   5.182   3.241
 7616WAT    HW238078   1.828   5.167   3.108
 7616WAT    LP138079   1.761   5.281   3.146
 7616WAT    LP238080   1.861   5.263   3.200
 7617WAT     OW38081   1.889   2.628   5.011
 7617WAT    HW138082   1.816   2.570   5.032
 7617WAT    HW238083   1.912   2.668   5.095
 7617WAT    LP138084   1.943   2.592   4.985
 7617WAT    LP238085   1.869   2.677   4.966
 7618WAT     OW38086   2.825   1.753   5.887
 7618WAT    HW138087   2.781   1.837   5.873
 7618WAT    HW238088   2.762   1.688   5.855
 7618WAT    LP138089   2.885   1.750   5.851
 7618WAT    LP238090   2.838   1.743   5.955
 7619WAT     OW38091   1.300   5.012   5.369
 7619WAT    HW138092   1.230   5.076   5.381
 7619WAT    HW238093   1.377   5.054   5.408
 7619WAT    LP138094   1.285   4.952   5.402
 7619WAT    LP238095   1.311   4.999   5.301
 7620WAT     OW38096   5.433   4.186   3.553
 7620WAT    HW138097   5.470   4.275   3.549
 7620WAT    HW238098   5.392   4.182   3.639
 7620WAT    LP138099   5.386   4.176   3.503
 7620WAT    LP238100   5.484   4.138   3.548
 7621WAT     OW38101   2.689   0.092   5.882
 7621WAT    HW138102   2.783   0.096   5.864
 7621WAT    HW238103   2.684   0.068   5.975
 7621WAT    LP138104   2.660   0.154   5.872
 7621WAT    LP238105   2.658   0.044   5.842
 7622WAT     OW38106   4.578   5.267   3.603
 7622WAT    HW138107   4.500   5.264   3.547
 7622WAT    HW238108   4.579   5.183   3.648
 7622WAT    LP138109   4.636   5.275   3.564
 7622WAT    LP238110   4.574   5.320   3.649
 7623WAT     OW38111   4.030   3.742   6.355
 7623WAT    HW138112   3.958   3.688   6.389
 7623WAT    HW238113   4.107   3.713   6.404
 7623WAT    LP138114   4.038   3.732   6.287
 7623WAT    LP238115   4.017   3.810   6.367
 7624WAT     OW38116   4.065   2.301   4.815
 7624WAT    HW138117   4.126   2.373   4.832
 7624WAT    HW238118   4.101   2.227   4.864
 7624WAT    LP138119   4.001   2.316   4.838
 7624WAT    LP238120   4.063   2.286   4.747
 7625WAT     OW38121   6.039   2.674   5.564
 7625WAT    HW138122   5.948   2.676   5.593
 7625WAT    HW238123   6.043   2.737   5.493
 7625WAT    LP138124   6.082   2.692   5.616
 7625WAT    LP238125   6.057   2.610   5.542
 7626WAT     OW38126   1.835   3.359   3.070
 7626WAT    HW138127   1.846   3.295   3.000
 7626WAT    HW238128   1.920   3.361   3.114
 7626WAT    LP138129   1.819   3.422   3.043
 7626WAT    LP238130   1.785   3.339   3.114
 7627WAT     OW38131   6.530   4.756   0.090
 7627WAT    HW138132   6.540   4.719   0.178
 7627WAT    HW238133   6.608   4.809   0.077
 7627WAT    LP138134   6.526   4.705   0.042
 7627WAT    LP238135   6.472   4.795   0.087
 7628WAT     OW38136   5.798   2.744   5.698
 7628WAT    HW138137   5.817   2.736   5.791
 7628WAT    HW238138   5.817   2.836   5.678
 7628WAT    LP138139   5.840   2.702   5.660
 7628WAT    LP238140   5.731   2.729   5.685
 7629WAT     OW38141   5.850   3.975   5.719
 7629WAT    HW138142   5.910   3.934   5.782
 7629WAT    HW238143   5.883   4.064   5.708
 7629WAT    LP138144   5.851   3.940   5.658
 7629WAT    LP238145   5.785   3.976   5.744
 7630WAT     OW38146   2.869   1.051   5.341
 7630WAT    HW138147   2.896   1.142   5.350
 7630WAT    HW238148   2.944   1.000   5.371
 7630WAT    LP138149   2.813   1.038   5.380
 7630WAT    LP238150   2.854   1.036   5.274
 7631WAT     OW38151   5.125   4.501   3.608
 7631WAT    HW138152   5.061   4.570   3.623
 7631WAT    HW238153   5.159   4.479   3.695
 7631WAT    LP138154   5.095   4.445   3.578
 7631WAT    LP238155   5.177   4.524   3.566
 7632WAT     OW38156   4.871   6.175   6.462
 7632WAT    HW138157   4.900   6.261   6.495
 7632WAT    HW238158   4.789   6.194   6.416
 7632WAT    LP138159   4.918   6.149   6.418
 7632WAT    LP238160   4.860   6.131   6.514
 7633WAT     OW38161   4.972   6.662   1.979
 7633WAT    HW138162   4.982   6.620   2.065
 7633WAT    HW238163   4.883   6.642   1.953
 7633WAT    LP138164   4.982   6.731   1.985
 7633WAT    LP238165   5.018   6.636   1.934
 7634WAT     OW38166   5.520   0.317   0.141
 7634WAT    HW138167   5.593   0.260   0.117
 7634WAT    HW238168   5.524   0.321   0.237
 7634WAT    LP138169   5.528   0.381   0.114
 7634WAT    LP238170   5.460   0.290   0.120
 7635WAT     OW38171   6.568   4.834   6.052
 7635WAT    HW138172   6.646   4.785   6.025
 7635WAT    HW238173   6.543   4.795   6.135
 7635WAT    LP138174   6.583   4.902   6.060
 7635WAT    LP238175   6.517   4.827   6.005
 7636WAT     OW38176   0.480   5.970   6.410
 7636WAT    HW138177   0.418   5.942   6.477
 7636WAT    HW238178   0.455   6.061   6.392
 7636WAT    LP138179   0.546   5.967   6.433
 7636WAT    LP238180   0.473   5.931   6.352
 7637WAT     OW38181   2.586   4.247   0.030
 7637WAT    HW138182   2.580   4.341   0.016
 7637WAT    HW238183   2.625   4.213  -0.050
 7637WAT    LP138184   2.626   4.233   0.086
 7637WAT    LP238185   2.522   4.220   0.040
 7638WAT     OW38186   1.930   3.551   1.113
 7638WAT    HW138187   1.868   3.478   1.116
 7638WAT    HW238188   1.966   3.547   1.024
 7638WAT    LP138189   1.897   3.612   1.123
 7638WAT    LP238190   1.980   3.543   1.160
 7639WAT     OW38191   6.537   4.382   1.265
 7639WAT    HW138192   6.596   4.439   1.312
 7639WAT    HW238193   6.449   4.409   1.292
 7639WAT    LP138194   6.545   4.389   1.195
 7639WAT    LP238195   6.548   4.315   1.282
 7640WAT     OW38196   1.418   0.096   4.256
 7640WAT    HW138197   1.491   0.035   4.266
 7640WAT    HW238198   1.381   0.076   4.170
 7640WAT    LP138199   1.371   0.087   4.306
 7640WAT    LP238200   1.442   0.162   4.257
 7641WAT     OW38201   5.378   1.627   6.264
 7641WAT    HW138202   5.463   1.588   6.286
 7641WAT    HW238203   5.394   1.677   6.184
 7641WAT    LP138204   5.330   1.577   6.252
 7641WAT    LP238205   5.356   1.668   6.316
 7642WAT     OW38206   4.608   5.777   0.799
 7642WAT    HW138207   4.527   5.733   0.825
 7642WAT    HW238208   4.678   5.722   0.835
 7642WAT    LP138209   4.613   5.780   0.729
 7642WAT    LP238210   4.611   5.841   0.826
 7643WAT     OW38211   4.425   1.660   4.081
 7643WAT    HW138212   4.330   1.658   4.078
 7643WAT    HW238213   4.448   1.753   4.086
 7643WAT    LP138214   4.449   1.626   4.138
 7643WAT    LP238215   4.453   1.631   4.024
 7644WAT     OW38216   5.469   4.139   5.491
 7644WAT    HW138217   5.466   4.044   5.478
 7644WAT    HW238218   5.393   4.158   5.545
 7644WAT    LP138219   5.528   4.158   5.523
 7644WAT    LP238220   5.465   4.173   5.429
 7645WAT     OW38221   1.033   3.047   0.361
 7645WAT    HW138222   1.065   3.137   0.355
 7645WAT    HW238223   1.100   2.995   0.317
 7645WAT    LP138224   1.026   3.028   0.428
 7645WAT    LP238225   0.971   3.041   0.328
 7646WAT     OW38226   2.082   4.453   6.189
 7646WAT    HW138227   2.007   4.427   6.135
 7646WAT    HW238228   2.135   4.510   6.133
 7646WAT    LP138229   2.060   4.488   6.246
 7646WAT    LP238230   2.119   4.397   6.209
 7647WAT     OW38231   2.947   4.703   3.634
 7647WAT    HW138232   2.892   4.767   3.588
 7647WAT    HW238233   2.885   4.640   3.672
 7647WAT    LP138234   2.990   4.671   3.589
 7647WAT    LP238235   2.985   4.734   3.684
 7648WAT     OW38236   5.388   3.754   0.521
 7648WAT    HW138237   5.333   3.787   0.593
 7648WAT    HW238238   5.373   3.815   0.449
 7648WAT    LP138239   5.455   3.754   0.540
 7648WAT    LP238240   5.369   3.689   0.504
 7649WAT     OW38241   3.134   5.033   5.875
 7649WAT    HW138242   3.082   5.112   5.890
 7649WAT    HW238243   3.143   5.028   5.779
 7649WAT    LP138244   3.197   5.038   5.905
 7649WAT    LP238245   3.101   4.976   5.899
 7650WAT     OW38246   4.370   0.455   3.236
 7650WAT    HW138247   4.400   0.399   3.307
 7650WAT    HW238248   4.301   0.403   3.192
 7650WAT    LP138249   4.343   0.515   3.261
 7650WAT    LP238250   4.422   0.469   3.192
 7651WAT     OW38251   0.436   0.597   2.296
 7651WAT    HW138252   0.429   0.513   2.341
 7651WAT    HW238253   0.366   0.651   2.333
 7651WAT    LP138254   0.499   0.627   2.309
 7651WAT    LP238255   0.428   0.589   2.227
 7652WAT     OW38256   0.979   2.716   4.362
 7652WAT    HW138257   1.043   2.645   4.362
 7652WAT    HW238258   0.967   2.737   4.455
 7652WAT    LP138259   1.003   2.771   4.327
 7652WAT    LP238260   0.918   2.694   4.334
 7653WAT     OW38261   0.314   1.901   4.185
 7653WAT    HW138262   0.287   1.883   4.275
 7653WAT    HW238263   0.232   1.915   4.138
 7653WAT    LP138264   0.354   1.958   4.181
 7653WAT    LP238265   0.349   1.846   4.158
 7654WAT     OW38266   0.029   3.382   3.463
 7654WAT    HW138267   0.103   3.324   3.483
 7654WAT    HW238268  -0.048   3.329   3.482
 7654WAT    LP138269   0.031   3.439   3.504
 7654WAT    LP238270   0.030   3.401   3.396
 7655WAT     OW38271   5.921   1.758   5.213
 7655WAT    HW138272   5.947   1.682   5.162
 7655WAT    HW238273   5.937   1.833   5.155
 7655WAT    LP138274   5.853   1.754   5.230
 7655WAT    LP238275   5.959   1.763   5.271
 7656WAT     OW38276   5.379   4.613   0.500
 7656WAT    HW138277   5.300   4.587   0.547
 7656WAT    HW238278   5.361   4.703   0.472
 7656WAT    LP138279   5.435   4.611   0.542
 7656WAT    LP238280   5.390   4.572   0.444
 7657WAT     OW38281   5.743   0.955   3.383
 7657WAT    HW138282   5.650   0.971   3.399
 7657WAT    HW238283   5.763   1.009   3.306
 7657WAT    LP138284   5.781   0.976   3.438
 7657WAT    LP238285   5.755   0.888   3.370
 7658WAT     OW38286   5.109   1.468   3.521
 7658WAT    HW138287   5.127   1.524   3.445
 7658WAT    HW238288   5.146   1.515   3.595
 7658WAT    LP138289   5.041   1.459   3.529
 7658WAT    LP238290   5.140   1.405   3.514
 7659WAT     OW38291   3.903   2.282   0.492
 7659WAT    HW138292   3.914   2.377   0.501
 7659WAT    HW238293   3.916   2.248   0.580
 7659WAT    LP138294   3.838   2.267   0.469
 7659WAT    LP238295   3.950   2.256   0.448
 7660WAT     OW38296   1.129   6.162   0.095
 7660WAT    HW138297   1.044   6.175   0.138
 7660WAT    HW238298   1.110   6.170   0.001
 7660WAT    LP138299   1.174   6.212   0.115
 7660WAT    LP238300   1.155   6.099   0.110
 7661WAT     OW38301   3.285   0.692   2.818
 7661WAT    HW138302   3.274   0.784   2.840
 7661WAT    HW238303   3.371   0.668   2.853
 7661WAT    LP138304   3.235   0.653   2.847
 7661WAT    LP238305   3.284   0.683   2.748
 7662WAT     OW38306   3.802   4.891   5.402
 7662WAT    HW138307   3.796   4.986   5.398
 7662WAT    HW238308   3.711   4.861   5.402
 7662WAT    LP138309   3.837   4.866   5.347
 7662WAT    LP238310   3.834   4.871   5.461
 7663WAT     OW38311   3.127   5.632   0.890
 7663WAT    HW138312   3.125   5.681   0.808
 7663WAT    HW238313   3.037   5.633   0.921
 7663WAT    LP138314   3.149   5.566   0.879
 7663WAT    LP238315   3.170   5.663   0.936
 7664WAT     OW38316   1.249   0.262   1.256
 7664WAT    HW138317   1.176   0.246   1.316
 7664WAT    HW238318   1.214   0.323   1.191
 7664WAT    LP138319   1.303   0.290   1.289
 7664WAT    LP238320   1.269   0.202   1.225
 7665WAT     OW38321   0.408   1.127   5.377
 7665WAT    HW138322   0.455   1.104   5.457
 7665WAT    HW238323   0.387   1.220   5.387
 7665WAT    LP138324   0.449   1.117   5.321
 7665WAT    LP238325   0.350   1.089   5.370
 7666WAT     OW38326   4.541   1.884   4.400
 7666WAT    HW138327   4.527   1.974   4.428
 7666WAT    HW238328   4.535   1.887   4.304
 7666WAT    LP138329   4.604   1.862   4.420
 7666WAT    LP238330   4.492   1.842   4.426
 7667WAT     OW38331   5.303   2.941   2.395
 7667WAT    HW138332   5.303   3.036   2.390
 7667WAT    HW238333   5.315   2.921   2.487
 7667WAT    LP138334   5.243   2.915   2.371
 7667WAT    LP238335   5.356   2.915   2.357
 7668WAT     OW38336   2.977   4.406   4.117
 7668WAT    HW138337   2.931   4.427   4.199
 7668WAT    HW238338   3.013   4.489   4.088
 7668WAT    LP138339   3.028   4.359   4.129
 7668WAT    LP238340   2.932   4.380   4.070
 7669WAT     OW38341   4.043   2.015   2.382
 7669WAT    HW138342   4.001   1.956   2.320
 7669WAT    HW238343   4.017   2.103   2.354
 7669WAT    LP138344   4.021   2.003   2.447
 7669WAT    LP238345   4.113   2.009   2.380
 7670WAT     OW38346   0.896   4.081   2.953
 7670WAT    HW138347   0.904   4.089   3.048
 7670WAT    HW238348   0.821   4.024   2.940
 7670WAT    LP138349   0.885   4.144   2.924
 7670WAT    LP238350   0.954   4.053   2.926
 7671WAT     OW38351   4.722   2.589   2.717
 7671WAT    HW138352   4.753   2.548   2.636
 7671WAT    HW238353   4.627   2.588   2.708
 7671WAT    LP138354   4.742   2.552   2.773
 7671WAT    LP238355   4.746   2.655   2.722
 7672WAT     OW38356   1.049   4.959   2.201
 7672WAT    HW138357   1.033   5.032   2.260
 7672WAT    HW238358   1.135   4.925   2.226
 7672WAT    LP138359   1.000   4.909   2.208
 7672WAT    LP238360   1.050   4.981   2.134
 7673WAT     OW38361   2.717   3.727   2.724
 7673WAT    HW138362   2.804   3.721   2.763
 7673WAT    HW238363   2.673   3.797   2.772
 7673WAT    LP138364   2.721   3.743   2.656
 7673WAT    LP238365   2.682   3.667   2.731
 7674WAT     OW38366   3.494   3.352   4.741
 7674WAT    HW138367   3.570   3.400   4.773
 7674WAT    HW238368   3.434   3.350   4.815
 7674WAT    LP138369   3.465   3.386   4.686
 7674WAT    LP238370   3.512   3.288   4.721
 7675WAT     OW38371   0.893   4.755   3.769
 7675WAT    HW138372   0.859   4.693   3.704
 7675WAT    HW238373   0.936   4.701   3.834
 7675WAT    LP138374   0.939   4.799   3.739
 7675WAT    LP238375   0.841   4.792   3.797
 7676WAT     OW38376   2.371   6.354   6.102
 7676WAT    HW138377   2.379   6.417   6.030
 7676WAT    HW238378   2.382   6.407   6.181
 7676WAT    LP138379   2.308   6.323   6.101
 7676WAT    LP238380   2.421   6.305   6.098
 7677WAT     OW38381   3.155   2.385   5.900
 7677WAT    HW138382   3.136   2.412   5.811
 7677WAT    HW238383   3.102   2.306   5.913
 7677WAT    LP138384   3.223   2.370   5.908
 7677WAT    LP238385   3.137   2.434   5.946
 7678WAT     OW38386   4.090   3.153   0.853
 7678WAT    HW138387   4.057   3.208   0.925
 7678WAT    HW238388   4.090   3.064   0.888
 7678WAT    LP138389   4.048   3.158   0.797
 7678WAT    LP238390   4.155   3.173   0.835
 7679WAT     OW38391   1.158   5.755   4.758
 7679WAT    HW138392   1.072   5.782   4.724
 7679WAT    HW238393   1.138   5.709   4.840
 7679WAT    LP138394   1.190   5.713   4.713
 7679WAT    LP238395   1.198   5.811   4.770
 7680WAT     OW38396   5.094   4.260   4.691
 7680WAT    HW138397   5.037   4.242   4.616
 7680WAT    HW238398   5.165   4.313   4.654
 7680WAT    LP138399   5.060   4.295   4.740
 7680WAT    LP238400   5.119   4.200   4.717
 7681WAT     OW38401   4.619   3.142   6.116
 7681WAT    HW138402   4.574   3.219   6.081
 7681WAT    HW238403   4.684   3.178   6.176
 7681WAT    LP138404   4.574   3.101   6.150
 7681WAT    LP238405   4.650   3.106   6.065
 7682WAT     OW38406   5.121   0.102   6.298
 7682WAT    HW138407   5.069   0.181   6.310
 7682WAT    HW238408   5.057   0.031   6.300
 7682WAT    LP138409   5.155   0.103   6.237
 7682WAT    LP238410   5.168   0.094   6.350
 7683WAT     OW38411   3.797   3.127   2.165
 7683WAT    HW138412   3.801   3.213   2.124
 7683WAT    HW238413   3.755   3.071   2.100
 7683WAT    LP138414   3.861   3.104   2.181
 7683WAT    LP238415   3.758   3.130   2.224
 7684WAT     OW38416   4.500   1.631   6.250
 7684WAT    HW138417   4.485   1.721   6.277
 7684WAT    HW238418   4.580   1.604   6.296
 7684WAT    LP138419   4.446   1.590   6.268
 7684WAT    LP238420   4.509   1.627   6.180
 7685WAT     OW38421   4.153   4.578   0.271
 7685WAT    HW138422   4.169   4.563   0.364
 7685WAT    HW238423   4.227   4.536   0.227
 7685WAT    LP138424   4.093   4.548   0.251
 7685WAT    LP238425   4.151   4.646   0.256
 7686WAT     OW38426   1.903   3.069   6.643
 7686WAT    HW138427   1.953   3.126   6.701
 7686WAT    HW238428   1.902   2.984   6.687
 7686WAT    LP138429   1.837   3.093   6.635
 7686WAT    LP238430   1.933   3.064   6.580
 7687WAT     OW38431   6.140   3.199   5.168
 7687WAT    HW138432   6.132   3.142   5.091
 7687WAT    HW238433   6.085   3.274   5.148
 7687WAT    LP138434   6.117   3.166   5.225
 7687WAT    LP238435   6.207   3.218   5.177
 7688WAT     OW38436   6.563   6.650   6.562
 7688WAT    HW138437   6.578   6.742   6.546
 7688WAT    HW238438   6.477   6.646   6.603
 7688WAT    LP138439   6.563   6.614   6.501
 7688WAT    LP238440   6.612   6.623   6.604
 7689WAT     OW38441   0.217   0.074   6.045
 7689WAT    HW138442   0.149   0.017   6.010
 7689WAT    HW238443   0.286   0.015   6.074
 7689WAT    LP138444   0.242   0.117   5.994
 7689WAT    LP238445   0.193   0.113   6.098
 7690WAT     OW38446   0.213   6.279   1.095
 7690WAT    HW138447   0.148   6.208   1.095
 7690WAT    HW238448   0.235   6.291   1.003
 7690WAT    LP138449   0.185   6.337   1.122
 7690WAT    LP238450   0.269   6.260   1.132
 7691WAT     OW38451   5.186   2.046   4.109
 7691WAT    HW138452   5.126   1.978   4.079
 7691WAT    HW238453   5.137   2.094   4.176
 7691WAT    LP138454   5.244   2.016   4.137
 7691WAT    LP238455   5.205   2.088   4.057
 7692WAT     OW38456   1.582   2.372   4.351
 7692WAT    HW138457   1.600   2.344   4.261
 7692WAT    HW238458   1.529   2.302   4.387
 7692WAT    LP138459   1.642   2.379   4.387
 7692WAT    LP238460   1.547   2.433   4.351
 7693WAT     OW38461   3.727   3.330   1.058
 7693WAT    HW138462   3.688   3.363   0.977
 7693WAT    HW238463   3.731   3.406   1.116
 7693WAT    LP138464   3.688   3.279   1.086
 7693WAT    LP238465   3.792   3.305   1.046
 7694WAT     OW38466   5.687   1.842   5.329
 7694WAT    HW138467   5.762   1.797   5.290
 7694WAT    HW238468   5.613   1.818   5.274
 7694WAT    LP138469   5.677   1.821   5.395
 7694WAT    LP238470   5.697   1.912   5.328
 7695WAT     OW38471   1.813   3.818   6.360
 7695WAT    HW138472   1.717   3.820   6.363
 7695WAT    HW238473   1.834   3.849   6.272
 7695WAT    LP138474   1.840   3.861   6.408
 7695WAT    LP238475   1.837   3.754   6.370
 7696WAT     OW38476   2.988   2.753   1.122
 7696WAT    HW138477   2.993   2.711   1.036
 7696WAT    HW238478   2.941   2.690   1.176
 7696WAT    LP138479   3.052   2.764   1.147
 7696WAT    LP238480   2.953   2.813   1.118
 7697WAT     OW38481   5.868   2.054   2.941
 7697WAT    HW138482   5.907   1.969   2.921
 7697WAT    HW238483   5.933   2.099   2.995
 7697WAT    LP138484   5.855   2.090   2.882
 7697WAT    LP238485   5.808   2.046   2.976
 7698WAT     OW38486   1.084   5.624   5.490
 7698WAT    HW138487   1.119   5.635   5.578
 7698WAT    HW238488   1.123   5.542   5.458
 7698WAT    LP138489   1.014   5.619   5.491
 7698WAT    LP238490   1.103   5.677   5.448
 7699WAT     OW38491   2.771   2.253   3.670
 7699WAT    HW138492   2.857   2.285   3.700
 7699WAT    HW238493   2.747   2.185   3.733
 7699WAT    LP138494   2.724   2.305   3.670
 7699WAT    LP238495   2.776   2.226   3.605
 7700WAT     OW38496   2.712   3.354   3.479
 7700WAT    HW138497   2.801   3.382   3.504
 7700WAT    HW238498   2.668   3.435   3.453
 7700WAT    LP138499   2.715   3.309   3.425
 7700WAT    LP238500   2.680   3.324   3.533
 7701WAT     OW38501   6.610   0.826   1.596
 7701WAT    HW138502   6.672   0.851   1.664
 7701WAT    HW238503   6.530   0.875   1.616
 7701WAT    LP138504   6.634   0.843   1.532
 7701WAT    LP238505   6.597   0.757   1.598
 7702WAT     OW38506   1.901   5.451   0.183
 7702WAT    HW138507   1.865   5.386   0.122
 7702WAT    HW238508   1.831   5.464   0.247
 7702WAT    LP138509   1.959   5.427   0.213
 7702WAT    LP238510   1.915   5.511   0.150
 7703WAT     OW38511   6.270   3.848   2.901
 7703WAT    HW138512   6.220   3.816   2.977
 7703WAT    HW238513   6.263   3.778   2.837
 7703WAT    LP138514   6.241   3.907   2.876
 7703WAT    LP238515   6.336   3.860   2.918
 7704WAT     OW38516   2.294   6.322   1.415
 7704WAT    HW138517   2.198   6.329   1.409
 7704WAT    HW238518   2.311   6.314   1.509
 7704WAT    LP138519   2.317   6.266   1.381
 7704WAT    LP238520   2.324   6.380   1.390
 7705WAT     OW38521   2.063   2.635   4.787
 7705WAT    HW138522   2.114   2.712   4.810
 7705WAT    HW238523   2.002   2.625   4.860
 7705WAT    LP138524   2.028   2.645   4.727
 7705WAT    LP238525   2.104   2.579   4.781
 7706WAT     OW38526   3.117   3.610   1.004
 7706WAT    HW138527   3.086   3.700   0.997
 7706WAT    HW238528   3.043   3.562   1.042
 7706WAT    LP138529   3.134   3.584   0.942
 7706WAT    LP238530   3.173   3.606   1.047
 7707WAT     OW38531   4.686   6.210   5.192
 7707WAT    HW138532   4.618   6.142   5.197
 7707WAT    HW238533   4.647   6.286   5.235
 7707WAT    LP138534   4.744   6.189   5.225
 7707WAT    LP238535   4.701   6.225   5.125
 7708WAT     OW38536   3.109   6.205   2.733
 7708WAT    HW138537   3.042   6.141   2.759
 7708WAT    HW238538   3.064   6.262   2.671
 7708WAT    LP138539   3.131   6.241   2.789
 7708WAT    LP238540   3.163   6.173   2.703
 7709WAT     OW38541   0.105   5.299   1.012
 7709WAT    HW138542   0.171   5.367   1.000
 7709WAT    HW238543   0.022   5.341   0.990
 7709WAT    LP138544   0.117   5.244   0.970
 7709WAT    LP238545   0.104   5.277   1.079
 7710WAT     OW38546   5.415   2.630   0.905
 7710WAT    HW138547   5.484   2.631   0.971
 7710WAT    HW238548   5.384   2.539   0.904
 7710WAT    LP138549   5.362   2.673   0.923
 7710WAT    LP238550   5.440   2.648   0.842
 7711WAT     OW38551   6.068   0.141   1.245
 7711WAT    HW138552   6.076   0.053   1.282
 7711WAT    HW238553   6.119   0.137   1.164
 7711WAT    LP138554   6.001   0.156   1.232
 7711WAT    LP238555   6.095   0.189   1.288
 7712WAT     OW38556   5.193   2.619   1.877
 7712WAT    HW138557   5.245   2.552   1.833
 7712WAT    HW238558   5.243   2.700   1.864
 7712WAT    LP138559   5.130   2.624   1.848
 7712WAT    LP238560   5.187   2.605   1.945
 7713WAT     OW38561   2.488   1.379   4.305
 7713WAT    HW138562   2.518   1.446   4.366
 7713WAT    HW238563   2.397   1.364   4.329
 7713WAT    LP138564   2.493   1.402   4.239
 7713WAT    LP238565   2.526   1.320   4.312
 7714WAT     OW38566   2.921   2.869   0.814
 7714WAT    HW138567   3.003   2.918   0.817
 7714WAT    HW238568   2.946   2.780   0.840
 7714WAT    LP138569   2.874   2.896   0.859
 7714WAT    LP238570   2.894   2.869   0.750
 7715WAT     OW38571   5.328   1.677   2.520
 7715WAT    HW138572   5.320   1.614   2.449
 7715WAT    HW238573   5.282   1.755   2.489
 7715WAT    LP138574   5.297   1.652   2.578
 7715WAT    LP238575   5.395   1.692   2.534
 7716WAT     OW38576   4.045   1.966   5.243
 7716WAT    HW138577   4.136   1.946   5.221
 7716WAT    HW238578   4.007   1.881   5.266
 7716WAT    LP138579   4.042   2.010   5.297
 7716WAT    LP238580   4.012   1.994   5.188
 7717WAT     OW38581   1.832   2.884   2.614
 7717WAT    HW138582   1.862   2.806   2.660
 7717WAT    HW238583   1.890   2.953   2.644
 7717WAT    LP138584   1.837   2.875   2.544
 7717WAT    LP238585   1.765   2.898   2.630
 7718WAT     OW38586   0.624   5.083   6.397
 7718WAT    HW138587   0.589   5.079   6.308
 7718WAT    HW238588   0.703   5.136   6.389
 7718WAT    LP138589   0.578   5.113   6.440
 7718WAT    LP238590   0.640   5.019   6.421
 7719WAT     OW38591   1.246   5.794   3.865
 7719WAT    HW138592   1.281   5.708   3.838
 7719WAT    HW238593   1.272   5.802   3.957
 7719WAT    LP138594   1.275   5.845   3.827
 7719WAT    LP238595   1.177   5.795   3.859
 7720WAT     OW38596   1.887   0.804   4.658
 7720WAT    HW138597   1.979   0.794   4.679
 7720WAT    HW238598   1.861   0.885   4.703
 7720WAT    LP138599   1.877   0.811   4.589
 7720WAT    LP238600   1.850   0.750   4.682
 7721WAT     OW38601   4.755   5.220   1.884
 7721WAT    HW138602   4.778   5.242   1.974
 7721WAT    HW238603   4.752   5.124   1.883
 7721WAT    LP138604   4.693   5.247   1.867
 7721WAT    LP238605   4.804   5.243   1.840
 7722WAT     OW38606   4.051   3.709   5.690
 7722WAT    HW138607   3.962   3.735   5.663
 7722WAT    HW238608   4.040   3.620   5.723
 7722WAT    LP138609   4.095   3.711   5.636
 7722WAT    LP238610   4.074   3.751   5.741
 7723WAT     OW38611   0.512   4.318   5.738
 7723WAT    HW138612   0.452   4.243   5.738
 7723WAT    HW238613   0.529   4.335   5.831
 7723WAT    LP138614   0.572   4.302   5.705
 7723WAT    LP238615   0.483   4.374   5.707
 7724WAT     OW38616   2.720   3.102   3.363
 7724WAT    HW138617   2.658   3.112   3.291
 7724WAT    HW238618   2.723   3.188   3.404
 7724WAT    LP138619   2.698   3.054   3.408
 7724WAT    LP238620   2.783   3.084   3.338
 7725WAT     OW38621   4.204   1.167   2.836
 7725WAT    HW138622   4.215   1.073   2.853
 7725WAT    HW238623   4.118   1.174   2.795
 7725WAT    LP138624   4.206   1.203   2.896
 7725WAT    LP238625   4.254   1.190   2.794
 7726WAT     OW38626   1.071   5.227   0.891
 7726WAT    HW138627   1.057   5.181   0.974
 7726WAT    HW238628   1.154   5.273   0.902
 7726WAT    LP138629   1.075   5.181   0.838
 7726WAT    LP238630   1.019   5.272   0.878
 7727WAT     OW38631   5.740   0.932   1.960
 7727WAT    HW138632   5.745   1.005   1.898
 7727WAT    HW238633   5.712   0.857   1.906
 7727WAT    LP138634   5.803   0.919   1.989
 7727WAT    LP238635   5.693   0.945   2.010
 7728WAT     OW38636   1.624   0.496   3.976
 7728WAT    HW138637   1.682   0.428   4.009
 7728WAT    HW238638   1.598   0.466   3.889
 7728WAT    LP138639   1.569   0.504   4.017
 7728WAT    LP238640   1.659   0.557   3.971
 7729WAT     OW38641   5.647   2.781   6.400
 7729WAT    HW138642   5.574   2.789   6.338
 7729WAT    HW238643   5.607   2.786   6.486
 7729WAT    LP138644   5.680   2.720   6.392
 7729WAT    LP238645   5.693   2.833   6.391
 7730WAT     OW38646   0.926   6.143   5.815
 7730WAT    HW138647   0.844   6.179   5.780
 7730WAT    HW238648   0.909   6.049   5.821
 7730WAT    LP138649   0.979   6.156   5.772
 7730WAT    LP238650   0.939   6.170   5.879
 7731WAT     OW38651   5.253   1.035   5.239
 7731WAT    HW138652   5.293   1.077   5.163
 7731WAT    HW238653   5.221   0.951   5.206
 7731WAT    LP138654   5.299   1.026   5.290
 7731WAT    LP238655   5.199   1.074   5.263
 7732WAT     OW38656   3.593   4.059   6.452
 7732WAT    HW138657   3.647   3.991   6.492
 7732WAT    HW238658   3.546   4.015   6.381
 7732WAT    LP138659   3.548   4.086   6.498
 7732WAT    LP238660   3.633   4.111   6.426
 7733WAT     OW38661   5.448   2.634   0.621
 7733WAT    HW138662   5.462   2.720   0.582
 7733WAT    HW238663   5.429   2.652   0.713
 7733WAT    LP138664   5.394   2.601   0.590
 7733WAT    LP238665   5.506   2.594   0.615
 7734WAT     OW38666   0.957   3.178   1.953
 7734WAT    HW138667   1.022   3.147   2.017
 7734WAT    HW238668   0.939   3.268   1.979
 7734WAT    LP138669   0.984   3.176   1.888
 7734WAT    LP238670   0.899   3.139   1.956
 7735WAT     OW38671   3.222   2.182   6.410
 7735WAT    HW138672   3.139   2.227   6.396
 7735WAT    HW238673   3.206   2.125   6.486
 7735WAT    LP138674   3.239   2.144   6.354
 7735WAT    LP238675   3.273   2.227   6.424
 7736WAT     OW38676   4.252   0.553   0.709
 7736WAT    HW138677   4.338   0.579   0.742
 7736WAT    HW238678   4.266   0.467   0.670
 7736WAT    LP138679   4.205   0.549   0.761
 7736WAT    LP238680   4.229   0.599   0.661
 7737WAT     OW38681   3.120   4.288   4.961
 7737WAT    HW138682   3.100   4.379   4.941
 7737WAT    HW238683   3.215   4.285   4.970
 7737WAT    LP138684   3.089   4.269   5.021
 7737WAT    LP238685   3.098   4.246   4.909
 7738WAT     OW38686   0.988   1.286   5.202
 7738WAT    HW138687   0.924   1.224   5.167
 7738WAT    HW238688   1.067   1.270   5.150
 7738WAT    LP138689   0.966   1.352   5.194
 7738WAT    LP238690   1.000   1.273   5.270
 7739WAT     OW38691   4.309   6.555   4.052
 7739WAT    HW138692   4.251   6.480   4.040
 7739WAT    HW238693   4.386   6.534   3.999
 7739WAT    LP138694   4.278   6.614   4.029
 7739WAT    LP238695   4.326   6.562   4.119
 7740WAT     OW38696   5.645   2.258   5.150
 7740WAT    HW138697   5.686   2.191   5.206
 7740WAT    HW238698   5.553   2.255   5.173
 7740WAT    LP138699   5.673   2.321   5.164
 7740WAT    LP238700   5.655   2.243   5.083
 7741WAT     OW38701   2.819   3.282   0.331
 7741WAT    HW138702   2.820   3.236   0.416
 7741WAT    HW238703   2.808   3.212   0.267
 7741WAT    LP138704   2.765   3.327   0.329
 7741WAT    LP238705   2.878   3.316   0.321
 7742WAT     OW38706   0.172   1.248   4.730
 7742WAT    HW138707   0.168   1.319   4.666
 7742WAT    HW238708   0.136   1.172   4.685
 7742WAT    LP138709   0.239   1.237   4.749
 7742WAT    LP238710   0.134   1.264   4.787
 7743WAT     OW38711   0.963   2.748   1.879
 7743WAT    HW138712   0.960   2.739   1.974
 7743WAT    HW238713   0.872   2.764   1.854
 7743WAT    LP138714   1.004   2.802   1.860
 7743WAT    LP238715   0.988   2.689   1.850
 7744WAT     OW38716   3.738   4.812   1.229
 7744WAT    HW138717   3.801   4.822   1.157
 7744WAT    HW238718   3.661   4.861   1.200
 7744WAT    LP138719   3.722   4.745   1.238
 7744WAT    LP238720   3.764   4.839   1.288
 7745WAT     OW38721   3.002   3.627   3.946
 7745WAT    HW138722   3.048   3.544   3.945
 7745WAT    HW238723   2.945   3.623   3.869
 7745WAT    LP138724   2.964   3.634   4.004
 7745WAT    LP238725   3.047   3.681   3.940
 7746WAT     OW38726   6.639   1.842   0.719
 7746WAT    HW138727   6.629   1.909   0.651
 7746WAT    HW238728   6.549   1.818   0.742
 7746WAT    LP138729   6.674   1.786   0.693
 7746WAT    LP238730   6.673   1.868   0.774
 7747WAT     OW38731   2.532   2.321   3.921
 7747WAT    HW138732   2.535   2.366   3.836
 7747WAT    HW238733   2.592   2.248   3.911
 7747WAT    LP138734   2.553   2.364   3.972
 7747WAT    LP238735   2.467   2.299   3.934
 7748WAT     OW38736   0.912   1.668   1.418
 7748WAT    HW138737   0.879   1.634   1.335
 7748WAT    HW238738   0.978   1.733   1.393
 7748WAT    LP138739   0.860   1.698   1.454
 7748WAT    LP238740   0.940   1.617   1.456
 7749WAT     OW38741   6.266   1.682   5.836
 7749WAT    HW138742   6.342   1.722   5.878
 7749WAT    HW238743   6.293   1.666   5.746
 7749WAT    LP138744   6.249   1.622   5.868
 7749WAT    LP238745   6.211   1.725   5.838
 7750WAT     OW38746   5.827   3.388   4.938
 7750WAT    HW138747   5.784   3.306   4.964
 7750WAT    HW238748   5.886   3.408   5.010
 7750WAT    LP138749   5.862   3.379   4.878
 7750WAT    LP238750   5.779   3.439   4.929
 7751WAT     OW38751   1.765   6.187   5.491
 7751WAT    HW138752   1.782   6.196   5.585
 7751WAT    HW238753   1.825   6.249   5.450
 7751WAT    LP138754   1.779   6.121   5.470
 7751WAT    LP238755   1.699   6.203   5.476
 7752WAT     OW38756   3.704   0.368   4.655
 7752WAT    HW138757   3.796   0.396   4.659
 7752WAT    HW238758   3.656   0.434   4.705
 7752WAT    LP138759   3.682   0.367   4.588
 7752WAT    LP238760   3.696   0.305   4.683
 7753WAT     OW38761   1.727   1.064   0.281
 7753WAT    HW138762   1.700   1.142   0.231
 7753WAT    HW238763   1.802   1.030   0.233
 7753WAT    LP138764   1.745   1.082   0.346
 7753WAT    LP238765   1.675   1.018   0.283
 7754WAT     OW38766   4.947   0.616   1.770
 7754WAT    HW138767   5.026   0.668   1.759
 7754WAT    HW238768   4.969   0.530   1.733
 7754WAT    LP138769   4.929   0.611   1.837
 7754WAT    LP238770   4.894   0.645   1.734
 7755WAT     OW38771   6.198   2.724   3.789
 7755WAT    HW138772   6.197   2.630   3.775
 7755WAT    HW238773   6.191   2.734   3.884
 7755WAT    LP138774   6.257   2.752   3.765
 7755WAT    LP238775   6.143   2.755   3.757
 7756WAT     OW38776   4.755   5.556   6.025
 7756WAT    HW138777   4.714   5.531   6.108
 7756WAT    HW238778   4.687   5.607   5.980
 7756WAT    LP138779   4.812   5.596   6.036
 7756WAT    LP238780   4.773   5.500   5.988
 7757WAT     OW38781   4.070   6.380   3.063
 7757WAT    HW138782   4.157   6.413   3.042
 7757WAT    HW238783   4.072   6.365   3.158
 7757WAT    LP138784   4.021   6.427   3.046
 7757WAT    LP238785   4.058   6.320   3.029
 7758WAT     OW38786   5.370   6.028   0.608
 7758WAT    HW138787   5.345   5.943   0.571
 7758WAT    HW238788   5.465   6.023   0.617
 7758WAT    LP138789   5.352   6.080   0.565
 7758WAT    LP238790   5.340   6.037   0.671
 7759WAT     OW38791   5.587   6.171   5.299
 7759WAT    HW138792   5.585   6.219   5.381
 7759WAT    HW238793   5.526   6.098   5.312
 7759WAT    LP138794   5.566   6.211   5.246
 7759WAT    LP238795   5.651   6.147   5.286
 7760WAT     OW38796   5.395   1.250   2.438
 7760WAT    HW138797   5.474   1.304   2.435
 7760WAT    HW238798   5.352   1.266   2.354
 7760WAT    LP138799   5.412   1.182   2.445
 7760WAT    LP238800   5.354   1.269   2.491
 7761WAT     OW38801   3.215   5.277   4.352
 7761WAT    HW138802   3.193   5.360   4.309
 7761WAT    HW238803   3.161   5.276   4.431
 7761WAT    LP138804   3.199   5.223   4.310
 7761WAT    LP238805   3.283   5.275   4.368
 7762WAT     OW38806   0.737   1.439   4.527
 7762WAT    HW138807   0.816   1.409   4.483
 7762WAT    HW238808   0.681   1.471   4.457
 7762WAT    LP138809   0.706   1.385   4.561
 7762WAT    LP238810   0.752   1.490   4.573
 7763WAT     OW38811   1.052   1.545   2.218
 7763WAT    HW138812   0.957   1.558   2.218
 7763WAT    HW238813   1.065   1.462   2.265
 7763WAT    LP138814   1.076   1.540   2.152
 7763WAT    LP238815   1.084   1.598   2.251
 7764WAT     OW38816   0.438   4.749   2.300
 7764WAT    HW138817   0.345   4.750   2.325
 7764WAT    HW238818   0.462   4.841   2.294
 7764WAT    LP138819   0.476   4.716   2.348
 7764WAT    LP238820   0.446   4.717   2.238
 7765WAT     OW38821   5.638   1.317   1.956
 7765WAT    HW138822   5.663   1.290   2.045
 7765WAT    HW238823   5.648   1.412   1.956
 7765WAT    LP138824   5.680   1.288   1.909
 7765WAT    LP238825   5.572   1.299   1.943
 7766WAT     OW38826   5.881   0.662   0.772
 7766WAT    HW138827   5.973   0.676   0.792
 7766WAT    HW238828   5.837   0.663   0.857
 7766WAT    LP138829   5.856   0.713   0.731
 7766WAT    LP238830   5.871   0.600   0.740
 7767WAT     OW38831   6.653   3.976   0.855
 7767WAT    HW138832   6.656   4.069   0.878
 7767WAT    HW238833   6.692   3.931   0.929
 7767WAT    LP138834   6.587   3.955   0.845
 7767WAT    LP238835   6.690   3.964   0.796
 7768WAT     OW38836   6.724   4.825   6.383
 7768WAT    HW138837   6.641   4.795   6.347
 7768WAT    HW238838   6.761   4.747   6.424
 7768WAT    LP138839   6.767   4.848   6.332
 7768WAT    LP238840   6.715   4.875   6.430
 7769WAT     OW38841   5.343   3.067   3.043
 7769WAT    HW138842   5.409   3.049   2.975
 7769WAT    HW238843   5.312   2.981   3.070
 7769WAT    LP138844   5.373   3.101   3.097
 7769WAT    LP238845   5.291   3.106   3.017
 7770WAT     OW38846   3.858   2.647   4.866
 7770WAT    HW138847   3.899   2.592   4.933
 7770WAT    HW238848   3.868   2.598   4.785
 7770WAT    LP138849   3.790   2.656   4.881
 7770WAT    LP238850   3.889   2.709   4.863
 7771WAT     OW38851   5.514   3.241   4.428
 7771WAT    HW138852   5.597   3.247   4.381
 7771WAT    HW238853   5.486   3.150   4.415
 7771WAT    LP138854   5.524   3.254   4.496
 7771WAT    LP238855   5.467   3.285   4.402
 7772WAT     OW38856   3.255   3.623   0.007
 7772WAT    HW138857   3.179   3.565  -0.005
 7772WAT    HW238858   3.316   3.596  -0.061
 7772WAT    LP138859   3.236   3.690  -0.000
 7772WAT    LP238860   3.283   3.613   0.071
 7773WAT     OW38861   6.240   4.865   0.731
 7773WAT    HW138862   6.271   4.897   0.816
 7773WAT    HW238863   6.318   4.865   0.675
 7773WAT    LP138864   6.214   4.800   0.737
 7773WAT    LP238865   6.191   4.907   0.705
 7774WAT     OW38866   0.615   4.535   4.947
 7774WAT    HW138867   0.662   4.616   4.925
 7774WAT    HW238868   0.588   4.547   5.038
 7774WAT    LP138869   0.559   4.528   4.905
 7774WAT    LP238870   0.657   4.479   4.940
 7775WAT     OW38871   2.175   4.850   3.684
 7775WAT    HW138872   2.263   4.868   3.716
 7775WAT    HW238873   2.154   4.925   3.628
 7775WAT    LP138874   2.173   4.791   3.648
 7775WAT    LP238875   2.129   4.846   3.737
 7776WAT     OW38876   3.181   4.776   2.247
 7776WAT    HW138877   3.119   4.753   2.177
 7776WAT    HW238878   3.250   4.825   2.202
 7776WAT    LP138879   3.150   4.816   2.295
 7776WAT    LP238880   3.207   4.719   2.277
 7777WAT     OW38881   1.018   3.309   4.535
 7777WAT    HW138882   1.041   3.281   4.446
 7777WAT    HW238883   0.945   3.252   4.559
 7777WAT    LP138884   1.072   3.299   4.578
 7777WAT    LP238885   0.999   3.376   4.536
 7778WAT     OW38886   1.354   1.058   1.679
 7778WAT    HW138887   1.372   1.145   1.644
 7778WAT    HW238888   1.305   1.013   1.610
 7778WAT    LP138889   1.414   1.024   1.693
 7778WAT    LP238890   1.316   1.062   1.737
 7779WAT     OW38891   1.091   3.317   5.281
 7779WAT    HW138892   1.177   3.311   5.323
 7779WAT    HW238893   1.101   3.382   5.212
 7779WAT    LP138894   1.072   3.255   5.255
 7779WAT    LP238895   1.042   3.338   5.327
 7780WAT     OW38896   6.640   4.431   6.016
 7780WAT    HW138897   6.634   4.437   6.111
 7780WAT    HW238898   6.629   4.338   5.997
 7780WAT    LP138899   6.590   4.469   5.985
 7780WAT    LP238900   6.703   4.453   5.994
 7781WAT     OW38901   3.579   4.582   6.401
 7781WAT    HW138902   3.612   4.493   6.416
 7781WAT    HW238903   3.655   4.638   6.419
 7781WAT    LP138904   3.558   4.590   6.335
 7781WAT    LP238905   3.527   4.597   6.444
 7782WAT     OW38906   3.718   1.419   1.457
 7782WAT    HW138907   3.732   1.341   1.511
 7782WAT    HW238908   3.740   1.492   1.516
 7782WAT    LP138909   3.761   1.419   1.402
 7782WAT    LP238910   3.652   1.423   1.436
 7783WAT     OW38911   2.215   2.107   3.545
 7783WAT    HW138912   2.168   2.152   3.615
 7783WAT    HW238913   2.238   2.176   3.482
 7783WAT    LP138914   2.273   2.076   3.569
 7783WAT    LP238915   2.174   2.059   3.514
 7784WAT     OW38916   2.331   4.276   1.889
 7784WAT    HW138917   2.249   4.245   1.927
 7784WAT    HW238918   2.356   4.209   1.826
 7784WAT    LP138919   2.322   4.338   1.856
 7784WAT    LP238920   2.381   4.284   1.938
 7785WAT     OW38921   6.035   2.738   6.618
 7785WAT    HW138922   6.093   2.737   6.694
 7785WAT    HW238923   6.038   2.828   6.587
 7785WAT    LP138924   6.059   2.694   6.569
 7785WAT    LP238925   5.970   2.720   6.636
 7786WAT     OW38926   3.883   5.471   1.905
 7786WAT    HW138927   3.978   5.482   1.910
 7786WAT    HW238928   3.851   5.554   1.869
 7786WAT    LP138929   3.866   5.418   1.863
 7786WAT    LP238930   3.856   5.460   1.969
 7787WAT     OW38931   3.907   1.057   0.973
 7787WAT    HW138932   3.902   1.074   1.067
 7787WAT    HW238933   3.816   1.046   0.946
 7787WAT    LP138934   3.936   1.111   0.940
 7787WAT    LP238935   3.944   0.999   0.961
 7788WAT     OW38936   5.109   1.438   1.101
 7788WAT    HW138937   5.071   1.495   1.034
 7788WAT    HW238938   5.145   1.364   1.052
 7788WAT    LP138939   5.160   1.471   1.136
 7788WAT    LP238940   5.060   1.416   1.146
 7789WAT     OW38941   5.661   1.489   3.945
 7789WAT    HW138942   5.592   1.438   3.988
 7789WAT    HW238943   5.726   1.423   3.920
 7789WAT    LP138944   5.636   1.522   3.889
 7789WAT    LP238945   5.689   1.535   3.990
 7790WAT     OW38946   5.413   5.787   6.103
 7790WAT    HW138947   5.326   5.827   6.109
 7790WAT    HW238948   5.470   5.858   6.073
 7790WAT    LP138949   5.434   5.764   6.166
 7790WAT    LP238950   5.413   5.734   6.058
 7791WAT     OW38951   5.993   4.251   0.904
 7791WAT    HW138952   6.009   4.158   0.922
 7791WAT    HW238953   5.910   4.253   0.857
 7791WAT    LP138954   5.988   4.287   0.964
 7791WAT    LP238955   6.044   4.278   0.865
 7792WAT     OW38956   2.544   3.967   3.809
 7792WAT    HW138957   2.481   4.029   3.774
 7792WAT    HW238958   2.567   3.912   3.734
 7792WAT    LP138959   2.600   4.000   3.833
 7792WAT    LP238960   2.515   3.928   3.860
 7793WAT     OW38961   6.640   0.938   5.945
 7793WAT    HW138962   6.705   0.957   6.012
 7793WAT    HW238963   6.678   0.973   5.864
 7793WAT    LP138964   6.629   0.869   5.939
 7793WAT    LP238965   6.580   0.970   5.959
 7794WAT     OW38966   1.750   3.430   3.480
 7794WAT    HW138967   1.828   3.374   3.478
 7794WAT    HW238968   1.695   3.397   3.409
 7794WAT    LP138969   1.717   3.426   3.541
 7794WAT    LP238970   1.768   3.497   3.468
 7795WAT     OW38971   0.396   1.393   3.950
 7795WAT    HW138972   0.372   1.304   3.923
 7795WAT    HW238973   0.328   1.417   4.013
 7795WAT    LP138974   0.459   1.393   3.981
 7795WAT    LP238975   0.396   1.436   3.895
 7796WAT     OW38976   6.727   1.256   0.995
 7796WAT    HW138977   6.732   1.258   1.091
 7796WAT    HW238978   6.634   1.239   0.976
 7796WAT    LP138979   6.747   1.318   0.968
 7796WAT    LP238980   6.767   1.205   0.969
 7797WAT     OW38981   5.041   0.434   2.585
 7797WAT    HW138982   4.988   0.448   2.664
 7797WAT    HW238983   5.123   0.397   2.618
 7797WAT    LP138984   5.009   0.390   2.541
 7797WAT    LP238985   5.053   0.495   2.553
 7798WAT     OW38986   5.031   0.422   6.023
 7798WAT    HW138987   5.084   0.501   6.037
 7798WAT    HW238988   4.956   0.434   6.081
 7798WAT    LP138989   5.011   0.417   5.956
 7798WAT    LP238990   5.067   0.365   6.041
 7799WAT     OW38991   1.801   1.033   4.773
 7799WAT    HW138992   1.710   1.034   4.802
 7799WAT    HW238993   1.852   1.063   4.849
 7799WAT    LP138994   1.821   0.968   4.755
 7799WAT    LP238995   1.810   1.076   4.718
 7800WAT     OW38996   3.279   6.338   0.705
 7800WAT    HW138997   3.224   6.263   0.727
 7800WAT    HW238998   3.224   6.414   0.718
 7800WAT    LP138999   3.335   6.340   0.747
 7800WAT    LP239000   3.301   6.333   0.638
 7801WAT     OW39001   1.221   5.315   3.588
 7801WAT    HW139002   1.219   5.267   3.671
 7801WAT    HW239003   1.142   5.370   3.590
 7801WAT    LP139004   1.279   5.355   3.585
 7801WAT    LP239005   1.220   5.272   3.534
 7802WAT     OW39006   5.689   5.752   3.479
 7802WAT    HW139007   5.769   5.797   3.452
 7802WAT    HW239008   5.714   5.660   3.485
 7802WAT    LP139009   5.666   5.776   3.541
 7802WAT    LP239010   5.639   5.761   3.431
 7803WAT     OW39011   3.897   2.731   2.396
 7803WAT    HW139012   3.874   2.658   2.339
 7803WAT    HW239013   3.904   2.692   2.483
 7803WAT    LP139014   3.957   2.760   2.376
 7803WAT    LP239015   3.846   2.780   2.395
 7804WAT     OW39016   2.157   3.160   2.353
 7804WAT    HW139017   2.090   3.223   2.379
 7804WAT    HW239018   2.221   3.212   2.305
 7804WAT    LP139019   2.186   3.130   2.409
 7804WAT    LP239020   2.130   3.110   2.312
 7805WAT     OW39021   3.939   6.191   4.355
 7805WAT    HW139022   3.963   6.153   4.270
 7805WAT    HW239023   3.987   6.273   4.359
 7805WAT    LP139024   3.870   6.202   4.359
 7805WAT    LP239025   3.959   6.148   4.407
 7806WAT     OW39026   2.356   3.037   1.561
 7806WAT    HW139027   2.322   2.952   1.588
 7806WAT    HW239028   2.291   3.071   1.500
 7806WAT    LP139029   2.363   3.080   1.616
 7806WAT    LP239030   2.419   3.030   1.530
 7807WAT     OW39031   6.562   1.112   1.973
 7807WAT    HW139032   6.588   1.204   1.964
 7807WAT    HW239033   6.529   1.105   2.062
 7807WAT    LP139034   6.513   1.096   1.926
 7807WAT    LP239035   6.617   1.070   1.964
 7808WAT     OW39036   5.959   3.114   2.682
 7808WAT    HW139037   5.961   3.167   2.602
 7808WAT    HW239038   6.027   3.152   2.737
 7808WAT    LP139039   5.896   3.119   2.712
 7808WAT    LP239040   5.973   3.047   2.667
 7809WAT     OW39041   3.397   0.916   1.945
 7809WAT    HW139042   3.457   0.884   1.877
 7809WAT    HW239043   3.366   0.836   1.988
 7809WAT    LP139044   3.430   0.957   1.990
 7809WAT    LP239045   3.343   0.951   1.916
 7810WAT     OW39046   2.212   5.158   2.856
 7810WAT    HW139047   2.145   5.177   2.791
 7810WAT    HW239048   2.289   5.134   2.804
 7810WAT    LP139049   2.225   5.215   2.895
 7810WAT    LP239050   2.193   5.105   2.897
 7811WAT     OW39051   5.494   4.623   5.740
 7811WAT    HW139052   5.466   4.631   5.831
 7811WAT    HW239053   5.426   4.570   5.699
 7811WAT    LP139054   5.498   4.686   5.710
 7811WAT    LP239055   5.556   4.591   5.736
 7812WAT     OW39056   2.988   6.615   3.774
 7812WAT    HW139057   3.047   6.626   3.848
 7812WAT    HW239058   3.020   6.678   3.709
 7812WAT    LP139059   2.992   6.550   3.749
 7812WAT    LP239060   2.922   6.630   3.792
 7813WAT     OW39061   2.013   1.478   6.295
 7813WAT    HW139062   2.014   1.555   6.351
 7813WAT    HW239063   2.105   1.452   6.287
 7813WAT    LP139064   1.975   1.426   6.323
 7813WAT    LP239065   1.986   1.494   6.232
 7814WAT     OW39066   6.025   0.967   2.318
 7814WAT    HW139067   6.108   1.012   2.328
 7814WAT    HW239068   6.030   0.894   2.379
 7814WAT    LP139069   5.971   1.009   2.335
 7814WAT    LP239070   6.016   0.944   2.252
 7815WAT     OW39071   1.080   5.705   6.619
 7815WAT    HW139072   1.097   5.778   6.560
 7815WAT    HW239073   1.123   5.630   6.578
 7815WAT    LP139074   1.106   5.717   6.682
 7815WAT    LP239075   1.011   5.694   6.625
 7816WAT     OW39076   5.836   2.679   4.529
 7816WAT    HW139077   5.835   2.773   4.550
 7816WAT    HW239078   5.925   2.663   4.499
 7816WAT    LP139079   5.821   2.641   4.586
 7816WAT    LP239080   5.789   2.665   4.478
 7817WAT     OW39081   1.501   6.451   0.801
 7817WAT    HW139082   1.538   6.512   0.865
 7817WAT    HW239083   1.481   6.505   0.724
 7817WAT    LP139084   1.548   6.401   0.784
 7817WAT    LP239085   1.443   6.420   0.826
 7818WAT     OW39086   0.255   5.479   0.715
 7818WAT    HW139087   0.333   5.435   0.681
 7818WAT    HW239088   0.267   5.482   0.809
 7818WAT    LP139089   0.251   5.544   0.688
 7818WAT    LP239090   0.197   5.444   0.698
 7819WAT     OW39091   4.253   1.886   1.747
 7819WAT    HW139092   4.226   1.932   1.668
 7819WAT    HW239093   4.332   1.839   1.721
 7819WAT    LP139094   4.267   1.931   1.798
 7819WAT    LP239095   4.203   1.841   1.768
 7820WAT     OW39096   4.650   6.061   1.041
 7820WAT    HW139097   4.613   5.981   1.077
 7820WAT    HW239098   4.605   6.074   0.958
 7820WAT    LP139099   4.638   6.115   1.084
 7820WAT    LP239100   4.719   6.055   1.032
 7821WAT     OW39101   6.196   3.869   3.401
 7821WAT    HW139102   6.228   3.953   3.435
 7821WAT    HW239103   6.131   3.840   3.465
 7821WAT    LP139104   6.168   3.877   3.338
 7821WAT    LP239105   6.249   3.822   3.397
 7822WAT     OW39106   4.099   1.134   6.149
 7822WAT    HW139107   4.192   1.152   6.137
 7822WAT    HW239108   4.095   1.041   6.174
 7822WAT    LP139109   4.072   1.174   6.199
 7822WAT    LP239110   4.064   1.144   6.089
 7823WAT     OW39111   4.858   3.739   6.111
 7823WAT    HW139112   4.834   3.658   6.156
 7823WAT    HW239113   4.793   3.803   6.140
 7823WAT    LP139114   4.923   3.759   6.129
 7823WAT    LP239115   4.855   3.730   6.042
 7824WAT     OW39116   2.565   6.194   2.956
 7824WAT    HW139117   2.569   6.284   2.924
 7824WAT    HW239118   2.506   6.150   2.894
 7824WAT    LP139119   2.628   6.165   2.955
 7824WAT    LP239120   2.538   6.192   3.021
 7825WAT     OW39121   4.214   5.723   3.193
 7825WAT    HW139122   4.191   5.812   3.167
 7825WAT    HW239123   4.310   5.724   3.197
 7825WAT    LP139124   4.187   5.708   3.256
 7825WAT    LP239125   4.192   5.677   3.146
 7826WAT     OW39126   0.588   2.119   2.769
 7826WAT    HW139127   0.672   2.106   2.813
 7826WAT    HW239128   0.534   2.045   2.795
 7826WAT    LP139129   0.558   2.179   2.789
 7826WAT    LP239130   0.597   2.120   2.699
 7827WAT     OW39131   3.828   2.986   5.513
 7827WAT    HW139132   3.906   3.024   5.473
 7827WAT    HW239133   3.854   2.897   5.536
 7827WAT    LP139134   3.808   3.021   5.569
 7827WAT    LP239135   3.775   2.984   5.467
 7828WAT     OW39136   5.035   1.782   5.045
 7828WAT    HW139137   4.949   1.750   5.073
 7828WAT    HW239138   5.022   1.876   5.031
 7828WAT    LP139139   5.083   1.772   5.095
 7828WAT    LP239140   5.055   1.751   4.986
 7829WAT     OW39141   2.476   2.417   1.434
 7829WAT    HW139142   2.568   2.414   1.459
 7829WAT    HW239143   2.476   2.456   1.347
 7829WAT    LP139144   2.449   2.352   1.432
 7829WAT    LP239145   2.439   2.456   1.479
 7830WAT     OW39146   6.101   4.018   1.844
 7830WAT    HW139147   6.178   4.000   1.899
 7830WAT    HW239148   6.027   4.009   1.903
 7830WAT    LP139149   6.105   4.082   1.817
 7830WAT    LP239150   6.097   3.971   1.792
 7831WAT     OW39151   4.562   3.241   5.523
 7831WAT    HW139152   4.511   3.296   5.584
 7831WAT    HW239153   4.603   3.175   5.579
 7831WAT    LP139154   4.520   3.211   5.476
 7831WAT    LP239155   4.610   3.279   5.490
 7832WAT     OW39156   6.671   4.556   1.437
 7832WAT    HW139157   6.652   4.627   1.498
 7832WAT    HW239158   6.731   4.499   1.485
 7832WAT    LP139159   6.612   4.522   1.420
 7832WAT    LP239160   6.701   4.581   1.379
 7833WAT     OW39161   6.093   3.069   1.790
 7833WAT    HW139162   6.146   2.990   1.789
 7833WAT    HW239163   6.015   3.047   1.738
 7833WAT    LP139164   6.074   3.086   1.855
 7833WAT    LP239165   6.127   3.123   1.761
 7834WAT     OW39166   1.429   0.475   6.183
 7834WAT    HW139167   1.381   0.524   6.250
 7834WAT    HW239168   1.506   0.529   6.164
 7834WAT    LP139169   1.449   0.412   6.207
 7834WAT    LP239170   1.390   0.467   6.125
 7835WAT     OW39171   1.943   5.805   4.108
 7835WAT    HW139172   1.944   5.712   4.086
 7835WAT    HW239173   1.975   5.849   4.029
 7835WAT    LP139174   1.878   5.826   4.123
 7835WAT    LP239175   1.986   5.819   4.162
 7836WAT     OW39176   0.735   1.152   4.018
 7836WAT    HW139177   0.809   1.107   3.977
 7836WAT    HW239178   0.693   1.200   3.946
 7836WAT    LP139179   0.690   1.106   4.046
 7836WAT    LP239180   0.757   1.196   4.068
 7837WAT     OW39181   5.990   3.924   4.558
 7837WAT    HW139182   5.990   3.830   4.538
 7837WAT    HW239183   5.931   3.961   4.493
 7837WAT    LP139184   5.966   3.935   4.623
 7837WAT    LP239185   6.054   3.951   4.552
 7838WAT     OW39186   6.072   2.037   1.685
 7838WAT    HW139187   6.143   2.075   1.632
 7838WAT    HW239188   6.081   2.080   1.770
 7838WAT    LP139189   6.010   2.051   1.656
 7838WAT    LP239190   6.080   1.968   1.691
 7839WAT     OW39191   3.800   5.057   0.214
 7839WAT    HW139192   3.707   5.073   0.230
 7839WAT    HW239193   3.828   5.007   0.291
 7839WAT    LP139194   3.809   5.021   0.155
 7839WAT    LP239195   3.835   5.118   0.210
 7840WAT     OW39196   2.645   1.781   4.660
 7840WAT    HW139197   2.703   1.857   4.655
 7840WAT    HW239198   2.671   1.736   4.741
 7840WAT    LP139199   2.578   1.800   4.663
 7840WAT    LP239200   2.655   1.739   4.605
 7841WAT     OW39201   2.548   0.570   6.458
 7841WAT    HW139202   2.562   0.599   6.368
 7841WAT    HW239203   2.514   0.647   6.503
 7841WAT    LP139204   2.502   0.517   6.460
 7841WAT    LP239205   2.608   0.549   6.487
 7842WAT     OW39206   1.258   1.577   5.995
 7842WAT    HW139207   1.311   1.521   6.052
 7842WAT    HW239208   1.225   1.645   6.053
 7842WAT    LP139209   1.298   1.605   5.945
 7842WAT    LP239210   1.206   1.541   5.967
 7843WAT     OW39211   5.204   4.506   1.752
 7843WAT    HW139212   5.277   4.486   1.692
 7843WAT    HW239213   5.131   4.526   1.694
 7843WAT    LP139214   5.190   4.450   1.792
 7843WAT    LP239215   5.220   4.561   1.792
 7844WAT     OW39216   6.152   5.820   5.708
 7844WAT    HW139217   6.153   5.725   5.694
 7844WAT    HW239218   6.090   5.832   5.780
 7844WAT    LP139219   6.216   5.843   5.725
 7844WAT    LP239220   6.130   5.853   5.650
 7845WAT     OW39221   4.139   2.472   1.715
 7845WAT    HW139222   4.145   2.403   1.649
 7845WAT    HW239223   4.055   2.459   1.758
 7845WAT    LP139224   4.192   2.467   1.761
 7845WAT    LP239225   4.142   2.535   1.685
 7846WAT     OW39226   0.232   5.842   1.300
 7846WAT    HW139227   0.153   5.799   1.335
 7846WAT    HW239228   0.224   5.933   1.328
 7846WAT    LP139229   0.290   5.813   1.326
 7846WAT    LP239230   0.233   5.838   1.230
 7847WAT     OW39231   2.842   2.987   1.188
 7847WAT    HW139232   2.911   2.934   1.148
 7847WAT    HW239233   2.786   2.923   1.233
 7847WAT    LP139234   2.868   3.032   1.233
 7847WAT    LP239235   2.805   3.021   1.139
 7848WAT     OW39236   3.535   5.967   4.929
 7848WAT    HW139237   3.528   6.061   4.916
 7848WAT    HW239238   3.455   5.931   4.890
 7848WAT    LP139239   3.592   5.942   4.895
 7848WAT    LP239240   3.539   5.951   4.997
 7849WAT     OW39241   4.773   1.301   0.371
 7849WAT    HW139242   4.749   1.250   0.293
 7849WAT    HW239243   4.690   1.319   0.414
 7849WAT    LP139244   4.815   1.263   0.413
 7849WAT    LP239245   4.805   1.360   0.353
 7850WAT     OW39246   0.580   2.854   3.542
 7850WAT    HW139247   0.600   2.762   3.563
 7850WAT    HW239248   0.638   2.874   3.469
 7850WAT    LP139249   0.513   2.862   3.524
 7850WAT    LP239250   0.595   2.895   3.597
 7851WAT     OW39251   5.405   3.280   1.208
 7851WAT    HW139252   5.484   3.274   1.154
 7851WAT    HW239253   5.351   3.206   1.180
 7851WAT    LP139254   5.421   3.275   1.276
 7851WAT    LP239255   5.372   3.340   1.196
 7852WAT     OW39256   6.072   4.396   5.381
 7852WAT    HW139257   6.015   4.449   5.437
 7852WAT    HW239258   6.017   4.372   5.306
 7852WAT    LP139259   6.128   4.433   5.360
 7852WAT    LP239260   6.094   4.338   5.415
 7853WAT     OW39261   2.671   0.379   2.905
 7853WAT    HW139262   2.584   0.369   2.867
 7853WAT    HW239263   2.702   0.290   2.918
 7853WAT    LP139264   2.713   0.414   2.860
 7853WAT    LP239265   2.668   0.414   2.965
 7854WAT     OW39266   1.709   0.257   5.216
 7854WAT    HW139267   1.764   0.179   5.213
 7854WAT    HW239268   1.760   0.321   5.264
 7854WAT    LP139269   1.695   0.280   5.151
 7854WAT    LP239270   1.649   0.243   5.248
 7855WAT     OW39271   6.182   3.211   3.690
 7855WAT    HW139272   6.198   3.175   3.602
 7855WAT    HW239273   6.165   3.304   3.674
 7855WAT    LP139274   6.127   3.180   3.720
 7855WAT    LP239275   6.239   3.203   3.730
 7856WAT     OW39276   2.642   1.463   2.114
 7856WAT    HW139277   2.688   1.416   2.044
 7856WAT    HW239278   2.687   1.548   2.119
 7856WAT    LP139279   2.575   1.472   2.098
 7856WAT    LP239280   2.648   1.429   2.175
 7857WAT     OW39281   2.260   5.502   1.346
 7857WAT    HW139282   2.261   5.590   1.309
 7857WAT    HW239283   2.353   5.476   1.349
 7857WAT    LP139284   2.233   5.503   1.411
 7857WAT    LP239285   2.224   5.458   1.306
 7858WAT     OW39286   1.440   2.323   2.997
 7858WAT    HW139287   1.486   2.291   2.919
 7858WAT    HW239288   1.351   2.340   2.968
 7858WAT    LP139289   1.441   2.274   3.048
 7858WAT    LP239290   1.470   2.382   3.021
 7859WAT     OW39291   3.805   5.508   4.005
 7859WAT    HW139292   3.766   5.422   4.024
 7859WAT    HW239293   3.730   5.568   4.002
 7859WAT    LP139294   3.850   5.526   4.056
 7859WAT    LP239295   3.838   5.507   3.943
 7860WAT     OW39296   1.309   1.847   5.608
 7860WAT    HW139297   1.247   1.801   5.664
 7860WAT    HW239298   1.384   1.864   5.665
 7860WAT    LP139299   1.327   1.808   5.553
 7860WAT    LP239300   1.281   1.907   5.585
 7861WAT     OW39301   2.572   1.567   1.404
 7861WAT    HW139302   2.499   1.527   1.358
 7861WAT    HW239303   2.571   1.658   1.374
 7861WAT    LP139304   2.563   1.563   1.473
 7861WAT    LP239305   2.632   1.536   1.386
 7862WAT     OW39306   6.585   6.062   2.172
 7862WAT    HW139307   6.608   5.985   2.224
 7862WAT    HW239308   6.667   6.111   2.165
 7862WAT    LP139309   6.562   6.043   2.109
 7862WAT    LP239310   6.536   6.100   2.204
 7863WAT     OW39311   0.668   6.428   1.732
 7863WAT    HW139312   0.704   6.340   1.730
 7863WAT    HW239313   0.628   6.440   1.645
 7863WAT    LP139314   0.620   6.435   1.782
 7863WAT    LP239315   0.719   6.476   1.742
 7864WAT     OW39316   2.648   2.517   6.152
 7864WAT    HW139317   2.562   2.544   6.121
 7864WAT    HW239318   2.635   2.497   6.245
 7864WAT    LP139319   2.671   2.460   6.118
 7864WAT    LP239320   2.695   2.569   6.145
 7865WAT     OW39321   5.714   4.514   4.888
 7865WAT    HW139322   5.780   4.571   4.927
 7865WAT    HW239323   5.632   4.540   4.931
 7865WAT    LP139324   5.710   4.524   4.819
 7865WAT    LP239325   5.728   4.447   4.901
 7866WAT     OW39326   3.415   2.699   0.681
 7866WAT    HW139327   3.345   2.678   0.619
 7866WAT    HW239328   3.369   2.722   0.762
 7866WAT    LP139329   3.456   2.644   0.691
 7866WAT    LP239330   3.452   2.753   0.658
 7867WAT     OW39331   4.641   3.268   2.034
 7867WAT    HW139332   4.658   3.186   1.988
 7867WAT    HW239333   4.643   3.336   1.967
 7867WAT    LP139334   4.578   3.266   2.065
 7867WAT    LP239335   4.690   3.279   2.083
 7868WAT     OW39336   6.107   3.728   0.052
 7868WAT    HW139337   6.185   3.679   0.025
 7868WAT    HW239338   6.071   3.763  -0.029
 7868WAT    LP139339   6.061   3.686   0.084
 7868WAT    LP239340   6.125   3.780   0.096
 7869WAT     OW39341   1.009   2.139   1.237
 7869WAT    HW139342   0.927   2.172   1.202
 7869WAT    HW239343   1.046   2.213   1.285
 7869WAT    LP139344   0.998   2.085   1.281
 7869WAT    LP239345   1.052   2.119   1.186
 7870WAT     OW39346   6.551   4.970   1.432
 7870WAT    HW139347   6.565   4.935   1.344
 7870WAT    HW239348   6.609   5.047   1.437
 7870WAT    LP139349   6.484   4.989   1.441
 7870WAT    LP239350   6.569   4.923   1.480
 7871WAT     OW39351   2.710   0.978   3.993
 7871WAT    HW139352   2.768   1.055   3.993
 7871WAT    HW239353   2.715   0.945   3.903
 7871WAT    LP139354   2.733   0.930   4.039
 7871WAT    LP239355   2.645   0.996   4.009
 7872WAT     OW39356   6.347   3.583   3.491
 7872WAT    HW139357   6.348   3.642   3.417
 7872WAT    HW239358   6.381   3.500   3.457
 7872WAT    LP139359   6.388   3.606   3.543
 7872WAT    LP239360   6.282   3.574   3.515
 7873WAT     OW39361   3.015   5.897   5.731
 7873WAT    HW139362   3.097   5.897   5.681
 7873WAT    HW239363   3.027   5.828   5.796
 7873WAT    LP139364   3.004   5.959   5.761
 7873WAT    LP239365   2.961   5.882   5.689
 7874WAT     OW39366   6.068   1.269   0.590
 7874WAT    HW139367   6.019   1.197   0.550
 7874WAT    HW239368   6.087   1.238   0.678
 7874WAT    LP139369   6.127   1.281   0.555
 7874WAT    LP239370   6.029   1.327   0.592
 7875WAT     OW39371   2.294   6.058   3.909
 7875WAT    HW139372   2.344   6.022   3.835
 7875WAT    HW239373   2.301   6.153   3.899
 7875WAT    LP139374   2.227   6.037   3.906
 7875WAT    LP239375   2.321   6.037   3.970
 7876WAT     OW39376   4.761   4.749   1.735
 7876WAT    HW139377   4.769   4.660   1.770
 7876WAT    HW239378   4.667   4.761   1.722
 7876WAT    LP139379   4.786   4.796   1.781
 7876WAT    LP239380   4.796   4.755   1.675
 7877WAT     OW39381   4.998   4.944   6.440
 7877WAT    HW139382   4.938   4.872   6.461
 7877WAT    HW239383   5.080   4.918   6.481
 7877WAT    LP139384   5.005   4.951   6.371
 7877WAT    LP239385   4.974   5.004   6.468
 7878WAT     OW39386   0.268   1.249   3.328
 7878WAT    HW139387   0.323   1.251   3.249
 7878WAT    HW239388   0.308   1.181   3.383
 7878WAT    LP139389   0.270   1.311   3.361
 7878WAT    LP239390   0.202   1.233   3.312
 7879WAT     OW39391   1.888   2.204   2.225
 7879WAT    HW139392   1.852   2.131   2.174
 7879WAT    HW239393   1.980   2.182   2.237
 7879WAT    LP139394   1.881   2.264   2.190
 7879WAT    LP239395   1.855   2.209   2.287
 7880WAT     OW39396   5.356   3.677   1.160
 7880WAT    HW139397   5.389   3.740   1.225
 7880WAT    HW239398   5.307   3.613   1.211
 7880WAT    LP139399   5.315   3.709   1.114
 7880WAT    LP239400   5.410   3.647   1.126
 7881WAT     OW39401   5.937   5.099   0.043
 7881WAT    HW139402   5.981   5.072   0.123
 7881WAT    HW239403   5.905   5.187   0.063
 7881WAT    LP139404   5.982   5.101  -0.010
 7881WAT    LP239405   5.884   5.056   0.028
 7882WAT     OW39406   6.564   3.477   1.642
 7882WAT    HW139407   6.562   3.403   1.703
 7882WAT    HW239408   6.500   3.539   1.677
 7882WAT    LP139409   6.628   3.505   1.639
 7882WAT    LP239410   6.545   3.456   1.578
 7883WAT     OW39411   3.749   5.067   1.945
 7883WAT    HW139412   3.748   5.002   1.874
 7883WAT    HW239413   3.688   5.135   1.916
 7883WAT    LP139414   3.727   5.038   2.005
 7883WAT    LP239415   3.813   5.093   1.953
 7884WAT     OW39416   5.009   0.342   6.350
 7884WAT    HW139417   5.085   0.401   6.353
 7884WAT    HW239418   4.947   0.387   6.292
 7884WAT    LP139419   5.028   0.280   6.323
 7884WAT    LP239420   4.982   0.333   6.413
 7885WAT     OW39421   3.991   0.745   1.827
 7885WAT    HW139422   4.062   0.727   1.765
 7885WAT    HW239423   4.018   0.702   1.908
 7885WAT    LP139424   3.985   0.814   1.838
 7885WAT    LP239425   3.930   0.719   1.804
 7886WAT     OW39426   4.333   3.623   4.943
 7886WAT    HW139427   4.316   3.624   4.849
 7886WAT    HW239428   4.424   3.649   4.951
 7886WAT    LP139429   4.291   3.669   4.976
 7886WAT    LP239430   4.322   3.559   4.969
 7887WAT     OW39431   1.444   1.822   6.455
 7887WAT    HW139432   1.370   1.763   6.440
 7887WAT    HW239433   1.445   1.836   6.549
 7887WAT    LP139434   1.504   1.792   6.434
 7887WAT    LP239435   1.435   1.882   6.421
 7888WAT     OW39436   4.767   1.575   0.997
 7888WAT    HW139437   4.709   1.617   0.934
 7888WAT    HW239438   4.855   1.588   0.962
 7888WAT    LP139439   4.761   1.605   1.060
 7888WAT    LP239440   4.753   1.507   1.002
 7889WAT     OW39441   4.550   1.081   1.337
 7889WAT    HW139442   4.458   1.096   1.361
 7889WAT    HW239443   4.552   0.989   1.310
 7889WAT    LP139444   4.569   1.123   1.285
 7889WAT    LP239445   4.592   1.092   1.392
 7890WAT     OW39446   3.273   4.391   5.903
 7890WAT    HW139447   3.347   4.338   5.873
 7890WAT    HW239448   3.198   4.333   5.898
 7890WAT    LP139449   3.283   4.413   5.969
 7890WAT    LP239450   3.264   4.447   5.861
 7891WAT     OW39451   0.268   4.780   0.220
 7891WAT    HW139452   0.296   4.863   0.183
 7891WAT    HW239453   0.344   4.722   0.211
 7891WAT    LP139454   0.251   4.788   0.288
 7891WAT    LP239455   0.213   4.755   0.185
 7892WAT     OW39456   1.257   3.414   2.623
 7892WAT    HW139457   1.200   3.429   2.548
 7892WAT    HW239458   1.329   3.361   2.588
 7892WAT    LP139459   1.281   3.474   2.649
 7892WAT    LP239460   1.223   3.379   2.673
 7893WAT     OW39461   4.639   5.082   4.306
 7893WAT    HW139462   4.607   4.992   4.299
 7893WAT    HW239463   4.615   5.123   4.223
 7893WAT    LP139464   4.608   5.115   4.360
 7893WAT    LP239465   4.709   5.083   4.315
 7894WAT     OW39466   0.353   4.516   2.863
 7894WAT    HW139467   0.321   4.535   2.951
 7894WAT    HW239468   0.300   4.573   2.806
 7894WAT    LP139469   0.421   4.532   2.857
 7894WAT    LP239470   0.343   4.449   2.847
 7895WAT     OW39471   4.493   6.019   5.232
 7895WAT    HW139472   4.529   5.931   5.229
 7895WAT    HW239473   4.449   6.024   5.318
 7895WAT    LP139474   4.544   6.067   5.228
 7895WAT    LP239475   4.446   6.029   5.181
 7896WAT     OW39476   0.026   4.368   3.590
 7896WAT    HW139477   0.085   4.443   3.593
 7896WAT    HW239478   0.003   4.361   3.497
 7896WAT    LP139479   0.058   4.310   3.612
 7896WAT    LP239480  -0.031   4.380   3.628
 7897WAT     OW39481   2.057   6.378   4.575
 7897WAT    HW139482   2.041   6.343   4.662
 7897WAT    HW239483   2.133   6.329   4.543
 7897WAT    LP139484   2.002   6.368   4.533
 7897WAT    LP239485   2.072   6.447   4.578
 7898WAT     OW39486   0.609   3.612   6.417
 7898WAT    HW139487   0.672   3.582   6.482
 7898WAT    HW239488   0.565   3.686   6.459
 7898WAT    LP139489   0.641   3.633   6.359
 7898WAT    LP239490   0.562   3.562   6.401
 7899WAT     OW39491   0.568   0.317   3.664
 7899WAT    HW139492   0.528   0.317   3.751
 7899WAT    HW239493   0.655   0.354   3.678
 7899WAT    LP139494   0.572   0.251   3.639
 7899WAT    LP239495   0.531   0.356   3.620
 7900WAT     OW39496   5.559   3.571   0.075
 7900WAT    HW139497   5.642   3.618   0.067
 7900WAT    HW239498   5.498   3.636   0.109
 7900WAT    LP139499   5.538   3.548   0.013
 7900WAT    LP239500   5.566   3.517   0.119
 7901WAT     OW39501   6.778   5.770   1.865
 7901WAT    HW139502   6.689   5.764   1.902
 7901WAT    HW239503   6.830   5.811   1.934
 7901WAT    LP139504   6.802   5.706   1.850
 7901WAT    LP239505   6.778   5.809   1.807
 7902WAT     OW39506   1.258   2.607   5.735
 7902WAT    HW139507   1.189   2.629   5.673
 7902WAT    HW239508   1.312   2.685   5.741
 7902WAT    LP139509   1.231   2.591   5.798
 7902WAT    LP239510   1.295   2.552   5.712
 7903WAT     OW39511   0.076   1.924   4.053
 7903WAT    HW139512   0.021   1.847   4.038
 7903WAT    HW239513   0.076   1.970   3.969
 7903WAT    LP139514   0.049   1.964   4.103
 7903WAT    LP239515   0.141   1.905   4.071
 7904WAT     OW39516   1.918   2.832   0.141
 7904WAT    HW139517   1.908   2.845   0.235
 7904WAT    HW239518   1.844   2.777   0.116
 7904WAT    LP139519   1.915   2.894   0.107
 7904WAT    LP239520   1.979   2.801   0.126
 7905WAT     OW39521   1.902   3.280   4.755
 7905WAT    HW139522   1.879   3.373   4.767
 7905WAT    HW239523   1.978   3.282   4.697
 7905WAT    LP139524   1.917   3.250   4.816
 7905WAT    LP239525   1.849   3.246   4.725
 7906WAT     OW39526   5.593   4.264   2.624
 7906WAT    HW139527   5.579   4.204   2.551
 7906WAT    HW239528   5.554   4.346   2.597
 7906WAT    LP139529   5.562   4.239   2.682
 7906WAT    LP239530   5.661   4.272   2.637
 7907WAT     OW39531   2.882   1.688   3.398
 7907WAT    HW139532   2.969   1.708   3.362
 7907WAT    HW239533   2.888   1.712   3.490
 7907WAT    LP139534   2.833   1.725   3.365
 7907WAT    LP239535   2.868   1.620   3.391
 7908WAT     OW39536   1.777   2.127   3.174
 7908WAT    HW139537   1.800   2.099   3.263
 7908WAT    HW239538   1.804   2.055   3.118
 7908WAT    LP139539   1.708   2.138   3.169
 7908WAT    LP239540   1.811   2.186   3.157
 7909WAT     OW39541   4.718   3.393   5.359
 7909WAT    HW139542   4.792   3.334   5.348
 7909WAT    HW239543   4.661   3.349   5.422
 7909WAT    LP139544   4.739   3.455   5.384
 7909WAT    LP239545   4.684   3.403   5.299
 7910WAT     OW39546   3.143   1.513   3.663
 7910WAT    HW139547   3.174   1.542   3.578
 7910WAT    HW239548   3.213   1.459   3.698
 7910WAT    LP139549   3.131   1.568   3.705
 7910WAT    LP239550   3.084   1.476   3.657
 7911WAT     OW39551   3.225   1.867   4.131
 7911WAT    HW139552   3.314   1.866   4.166
 7911WAT    HW239553   3.215   1.783   4.086
 7911WAT    LP139554   3.178   1.873   4.183
 7911WAT    LP239555   3.216   1.920   4.086
 7912WAT     OW39556   2.265   4.470   1.335
 7912WAT    HW139557   2.216   4.389   1.323
 7912WAT    HW239558   2.355   4.441   1.351
 7912WAT    LP139559   2.262   4.510   1.278
 7912WAT    LP239560   2.241   4.506   1.390
 7913WAT     OW39561   2.421   6.235   3.593
 7913WAT    HW139562   2.427   6.145   3.624
 7913WAT    HW239563   2.387   6.285   3.667
 7913WAT    LP139564   2.484   6.259   3.574
 7913WAT    LP239565   2.377   6.240   3.538
 7914WAT     OW39566   4.335   3.805   1.384
 7914WAT    HW139567   4.243   3.787   1.405
 7914WAT    HW239568   4.383   3.774   1.461
 7914WAT    LP139569   4.354   3.770   1.327
 7914WAT    LP239570   4.345   3.874   1.375
 7915WAT     OW39571   3.820   1.582   5.092
 7915WAT    HW139572   3.768   1.603   5.014
 7915WAT    HW239573   3.891   1.527   5.058
 7915WAT    LP139574   3.845   1.639   5.122
 7915WAT    LP239575   3.781   1.546   5.138
 7916WAT     OW39576   4.873   1.554   4.879
 7916WAT    HW139577   4.875   1.636   4.829
 7916WAT    HW239578   4.869   1.485   4.812
 7916WAT    LP139579   4.930   1.547   4.918
 7916WAT    LP239580   4.816   1.551   4.920
 7917WAT     OW39581   5.473   1.842   2.705
 7917WAT    HW139582   5.458   1.787   2.628
 7917WAT    HW239583   5.465   1.932   2.672
 7917WAT    LP139584   5.426   1.829   2.754
 7917WAT    LP239585   5.537   1.831   2.731
 7918WAT     OW39586   3.089   1.145   0.175
 7918WAT    HW139587   3.139   1.071   0.209
 7918WAT    HW239588   3.041   1.109   0.100
 7918WAT    LP139589   3.044   1.169   0.223
 7918WAT    LP239590   3.131   1.196   0.155
 7919WAT     OW39591   3.004   3.693   0.289
 7919WAT    HW139592   3.080   3.729   0.335
 7919WAT    HW239593   3.012   3.729   0.200
 7919WAT    LP139594   3.007   3.623   0.287
 7919WAT    LP239595   2.945   3.714   0.319
 7920WAT     OW39596   1.122   3.217   0.981
 7920WAT    HW139597   1.157   3.136   1.018
 7920WAT    HW239598   1.125   3.203   0.886
 7920WAT    LP139599   1.056   3.228   1.002
 7920WAT    LP239600   1.161   3.272   0.999
 7921WAT     OW39601   1.556   2.097   5.300
 7921WAT    HW139602   1.503   2.101   5.221
 7921WAT    HW239603   1.604   2.180   5.300
 7921WAT    LP139604   1.516   2.092   5.357
 7921WAT    LP239605   1.601   2.043   5.298
 7922WAT     OW39606   1.548   5.808   2.482
 7922WAT    HW139607   1.612   5.826   2.414
 7922WAT    HW239608   1.584   5.848   2.561
 7922WAT    LP139609   1.486   5.837   2.466
 7922WAT    LP239610   1.539   5.739   2.490
 7923WAT     OW39611   5.305   3.223   2.372
 7923WAT    HW139612   5.222   3.212   2.327
 7923WAT    HW239613   5.284   3.280   2.446
 7923WAT    LP139614   5.330   3.162   2.394
 7923WAT    LP239615   5.352   3.253   2.330
 7924WAT     OW39616   2.183   1.343   5.304
 7924WAT    HW139617   2.101   1.314   5.342
 7924WAT    HW239618   2.159   1.381   5.219
 7924WAT    LP139619   2.214   1.392   5.345
 7924WAT    LP239620   2.227   1.289   5.295
 7925WAT     OW39621   6.467   1.197   0.942
 7925WAT    HW139622   6.444   1.153   0.860
 7925WAT    HW239623   6.394   1.176   1.001
 7925WAT    LP139624   6.527   1.173   0.967
 7925WAT    LP239625   6.471   1.267   0.932
 7926WAT     OW39626   0.362   3.583   3.330
 7926WAT    HW139627   0.338   3.536   3.250
 7926WAT    HW239628   0.320   3.668   3.321
 7926WAT    LP139629   0.339   3.549   3.386
 7926WAT    LP239630   0.432   3.590   3.334
 7927WAT     OW39631   3.033   1.959   2.426
 7927WAT    HW139632   3.044   1.932   2.518
 7927WAT    HW239633   3.050   2.053   2.427
 7927WAT    LP139634   3.078   1.926   2.385
 7927WAT    LP239635   2.967   1.947   2.405
 7928WAT     OW39636   0.632   4.856   0.918
 7928WAT    HW139637   0.576   4.785   0.948
 7928WAT    HW239638   0.603   4.933   0.968
 7928WAT    LP139639   0.699   4.842   0.932
 7928WAT    LP239640   0.624   4.867   0.849
 7929WAT     OW39641   3.421   1.923   3.260
 7929WAT    HW139642   3.433   1.920   3.165
 7929WAT    HW239643   3.508   1.905   3.296
 7929WAT    LP139644   3.399   1.986   3.280
 7929WAT    LP239645   3.375   1.874   3.280
 7930WAT     OW39646   4.003   6.263   3.573
 7930WAT    HW139647   3.921   6.216   3.586
 7930WAT    HW239648   4.006   6.327   3.645
 7930WAT    LP139649   4.057   6.219   3.578
 7930WAT    LP239650   4.004   6.295   3.511
 7931WAT     OW39651   5.874   6.159   1.604
 7931WAT    HW139652   5.893   6.243   1.647
 7931WAT    HW239653   5.781   6.164   1.582
 7931WAT    LP139654   5.912   6.152   1.546
 7931WAT    LP239655   5.887   6.106   1.647
 7932WAT     OW39656   0.079   2.126   1.561
 7932WAT    HW139657   0.172   2.134   1.541
 7932WAT    HW239658   0.047   2.060   1.500
 7932WAT    LP139659   0.070   2.105   1.627
 7932WAT    LP239660   0.047   2.187   1.552
 7933WAT     OW39661   2.077   1.342   4.795
 7933WAT    HW139662   2.037   1.413   4.746
 7933WAT    HW239663   2.131   1.296   4.732
 7933WAT    LP139664   2.115   1.367   4.848
 7933WAT    LP239665   2.027   1.299   4.821
 7934WAT     OW39666   0.441   2.672   3.797
 7934WAT    HW139667   0.518   2.660   3.851
 7934WAT    HW239668   0.369   2.681   3.859
 7934WAT    LP139669   0.447   2.729   3.757
 7934WAT    LP239670   0.431   2.616   3.755
 7935WAT     OW39671   1.479   5.306   3.803
 7935WAT    HW139672   1.531   5.274   3.729
 7935WAT    HW239673   1.404   5.246   3.806
 7935WAT    LP139674   1.516   5.302   3.863
 7935WAT    LP239675   1.458   5.372   3.792
 7936WAT     OW39676   0.873   3.939   0.634
 7936WAT    HW139677   0.886   3.853   0.674
 7936WAT    HW239678   0.876   3.923   0.540
 7936WAT    LP139679   0.812   3.966   0.653
 7936WAT    LP239680   0.925   3.983   0.654
 7937WAT     OW39681   0.267   5.152   3.943
 7937WAT    HW139682   0.341   5.091   3.939
 7937WAT    HW239683   0.248   5.160   4.037
 7937WAT    LP139684   0.285   5.215   3.917
 7937WAT    LP239685   0.212   5.127   3.909
 7938WAT     OW39686   0.149   5.473   5.213
 7938WAT    HW139687   0.114   5.406   5.271
 7938WAT    HW239688   0.185   5.424   5.139
 7938WAT    LP139689   0.099   5.516   5.191
 7938WAT    LP239690   0.199   5.510   5.245
 7939WAT     OW39691   2.247   4.871   5.277
 7939WAT    HW139692   2.166   4.825   5.299
 7939WAT    HW239693   2.229   4.909   5.191
 7939WAT    LP139694   2.261   4.921   5.324
 7939WAT    LP239695   2.300   4.826   5.273
 7940WAT     OW39696   4.924   0.323   2.358
 7940WAT    HW139697   5.003   0.301   2.309
 7940WAT    HW239698   4.955   0.346   2.445
 7940WAT    LP139699   4.891   0.377   2.328
 7940WAT    LP239700   4.881   0.268   2.361
 7941WAT     OW39701   0.311   4.787   4.873
 7941WAT    HW139702   0.245   4.826   4.930
 7941WAT    HW239703   0.394   4.827   4.901
 7941WAT    LP139704   0.313   4.717   4.881
 7941WAT    LP239705   0.298   4.802   4.806
 7942WAT     OW39706   5.447   5.016   4.949
 7942WAT    HW139707   5.365   4.972   4.930
 7942WAT    HW239708   5.422   5.106   4.971
 7942WAT    LP139709   5.480   4.986   5.003
 7942WAT    LP239710   5.489   5.016   4.893
 7943WAT     OW39711   5.560   0.579   0.077
 7943WAT    HW139712   5.473   0.616   0.091
 7943WAT    HW239713   5.546   0.484   0.084
 7943WAT    LP139714   5.584   0.596   0.014
 7943WAT    LP239715   5.604   0.601   0.126
 7944WAT     OW39716   0.600   2.682   5.752
 7944WAT    HW139717   0.605   2.696   5.847
 7944WAT    HW239718   0.691   2.667   5.726
 7944WAT    LP139719   0.561   2.626   5.738
 7944WAT    LP239720   0.574   2.738   5.720
 7945WAT     OW39721   4.932   5.418   0.165
 7945WAT    HW139722   4.895   5.355   0.227
 7945WAT    HW239723   4.871   5.492   0.167
 7945WAT    LP139724   4.996   5.437   0.185
 7945WAT    LP239725   4.935   5.390   0.101
 7946WAT     OW39726   0.645   0.850   5.917
 7946WAT    HW139727   0.663   0.787   5.987
 7946WAT    HW239728   0.595   0.920   5.959
 7946WAT    LP139729   0.705   0.875   5.891
 7946WAT    LP239730   0.608   0.820   5.866
 7947WAT     OW39731   1.563   5.749   3.984
 7947WAT    HW139732   1.620   5.826   3.990
 7947WAT    HW239733   1.483   5.776   4.028
 7947WAT    LP139734   1.550   5.733   3.917
 7947WAT    LP239735   1.592   5.694   4.016
 7948WAT     OW39736   2.347   1.525   2.896
 7948WAT    HW139737   2.256   1.521   2.927
 7948WAT    HW239738   2.382   1.437   2.912
 7948WAT    LP139739   2.348   1.540   2.827
 7948WAT    LP239740   2.383   1.573   2.931
 7949WAT     OW39741   5.410   0.322   6.001
 7949WAT    HW139742   5.400   0.291   6.091
 7949WAT    HW239743   5.352   0.265   5.950
 7949WAT    LP139744   5.391   0.389   5.995
 7949WAT    LP239745   5.476   0.315   5.979
 7950WAT     OW39746   2.827   5.587   2.140
 7950WAT    HW139747   2.785   5.629   2.216
 7950WAT    HW239748   2.903   5.641   2.121
 7950WAT    LP139749   2.847   5.521   2.156
 7950WAT    LP239750   2.783   5.585   2.086
 7951WAT     OW39751   4.141   1.662   5.414
 7951WAT    HW139752   4.150   1.574   5.377
 7951WAT    HW239753   4.061   1.697   5.374
 7951WAT    LP139754   4.134   1.660   5.483
 7951WAT    LP239755   4.196   1.702   5.397
 7952WAT     OW39756   4.047   4.675   4.760
 7952WAT    HW139757   4.035   4.658   4.854
 7952WAT    HW239758   4.063   4.769   4.754
 7952WAT    LP139759   4.101   4.638   4.735
 7952WAT    LP239760   3.989   4.658   4.725
 7953WAT     OW39761   5.721   0.859   5.054
 7953WAT    HW139762   5.726   0.774   5.010
 7953WAT    HW239763   5.663   0.845   5.128
 7953WAT    LP139764   5.785   0.879   5.076
 7953WAT    LP239765   5.696   0.908   5.011
 7954WAT     OW39766   5.565   5.047   5.797
 7954WAT    HW139767   5.495   5.111   5.808
 7954WAT    HW239768   5.589   5.020   5.885
 7954WAT    LP139769   5.543   4.992   5.759
 7954WAT    LP239770   5.620   5.076   5.764
 7955WAT     OW39771   0.169   6.609   0.147
 7955WAT    HW139772   0.092   6.560   0.116
 7955WAT    HW239773   0.135   6.694   0.173
 7955WAT    LP139774   0.199   6.576   0.201
 7955WAT    LP239775   0.216   6.616   0.095
 7956WAT     OW39776   5.824   0.440   2.902
 7956WAT    HW139777   5.852   0.377   2.835
 7956WAT    HW239778   5.728   0.439   2.898
 7956WAT    LP139779   5.846   0.420   2.965
 7956WAT    LP239780   5.848   0.504   2.887
 7957WAT     OW39781   3.676   5.651   1.318
 7957WAT    HW139782   3.608   5.603   1.367
 7957WAT    HW239783   3.648   5.645   1.227
 7957WAT    LP139784   3.679   5.718   1.339
 7957WAT    LP239785   3.738   5.621   1.327
 7958WAT     OW39786   2.183   2.930   2.526
 7958WAT    HW139787   2.138   2.978   2.595
 7958WAT    HW239788   2.183   2.989   2.451
 7958WAT    LP139789   2.248   2.914   2.545
 7958WAT    LP239790   2.148   2.871   2.510
 7959WAT     OW39791   0.445   1.593   1.061
 7959WAT    HW139792   0.524   1.598   1.006
 7959WAT    HW239793   0.461   1.656   1.131
 7959WAT    LP139794   0.388   1.609   1.025
 7959WAT    LP239795   0.438   1.528   1.088
 7960WAT     OW39796   4.742   3.989   2.790
 7960WAT    HW139797   4.749   3.894   2.788
 7960WAT    HW239798   4.826   4.020   2.756
 7960WAT    LP139799   4.690   4.011   2.749
 7960WAT    LP239800   4.732   4.012   2.855
 7961WAT     OW39801   0.736   4.619   3.334
 7961WAT    HW139802   0.716   4.565   3.257
 7961WAT    HW239803   0.683   4.698   3.322
 7961WAT    LP139804   0.718   4.586   3.393
 7961WAT    LP239805   0.804   4.635   3.336
 7962WAT     OW39806   4.565   4.978   5.774
 7962WAT    HW139807   4.623   4.904   5.793
 7962WAT    HW239808   4.490   4.939   5.729
 7962WAT    LP139809   4.545   5.009   5.834
 7962WAT    LP239810   4.597   5.025   5.733
 7963WAT     OW39811   6.720   4.365   3.335
 7963WAT    HW139812   6.751   4.411   3.257
 7963WAT    HW239813   6.627   4.385   3.340
 7963WAT    LP139814   6.730   4.296   3.329
 7963WAT    LP239815   6.753   4.389   3.392
 7964WAT     OW39816   4.550   0.806   1.008
 7964WAT    HW139817   4.525   0.741   0.941
 7964WAT    HW239818   4.618   0.763   1.059
 7964WAT    LP139819   4.574   0.864   0.978
 7964WAT    LP239820   4.495   0.821   1.048
 7965WAT     OW39821   2.092   0.447   2.478
 7965WAT    HW139822   2.057   0.382   2.538
 7965WAT    HW239823   2.014   0.491   2.443
 7965WAT    LP139824   2.132   0.493   2.512
 7965WAT    LP239825   2.129   0.417   2.427
 7966WAT     OW39826   0.774   1.628   2.004
 7966WAT    HW139827   0.775   1.534   1.988
 7966WAT    HW239828   0.770   1.637   2.099
 7966WAT    LP139829   0.833   1.658   1.979
 7966WAT    LP239830   0.719   1.658   1.973
 7967WAT     OW39831   2.102   3.617   0.579
 7967WAT    HW139832   2.151   3.645   0.656
 7967WAT    HW239833   2.019   3.664   0.585
 7967WAT    LP139834   2.136   3.633   0.520
 7967WAT    LP239835   2.091   3.547   0.580
 7968WAT     OW39836   1.756   2.106   0.836
 7968WAT    HW139837   1.701   2.076   0.763
 7968WAT    HW239838   1.790   2.190   0.807
 7968WAT    LP139839   1.718   2.113   0.894
 7968WAT    LP239840   1.809   2.061   0.847
 7969WAT     OW39841   3.950   4.420   0.187
 7969WAT    HW139842   3.905   4.467   0.116
 7969WAT    HW239843   4.019   4.479   0.216
 7969WAT    LP139844   3.905   4.407   0.239
 7969WAT    LP239845   3.977   4.360   0.163
 7970WAT     OW39846   2.371   2.628   6.548
 7970WAT    HW139847   2.320   2.596   6.622
 7970WAT    HW239848   2.314   2.690   6.504
 7970WAT    LP139849   2.430   2.659   6.570
 7970WAT    LP239850   2.388   2.575   6.505
 7971WAT     OW39851   6.577   3.104   0.825
 7971WAT    HW139852   6.497   3.140   0.864
 7971WAT    HW239853   6.564   3.115   0.731
 7971WAT    LP139854   6.633   3.140   0.847
 7971WAT    LP239855   6.584   3.037   0.842
 7972WAT     OW39856   0.420   5.637   3.219
 7972WAT    HW139857   0.458   5.690   3.289
 7972WAT    HW239858   0.492   5.581   3.190
 7972WAT    LP139859   0.367   5.598   3.244
 7972WAT    LP239860   0.398   5.677   3.167
 7973WAT     OW39861   0.659   2.841   4.929
 7973WAT    HW139862   0.677   2.842   4.835
 7973WAT    HW239863   0.632   2.931   4.949
 7973WAT    LP139864   0.608   2.796   4.945
 7973WAT    LP239865   0.717   2.824   4.965
 7974WAT     OW39866   3.236   3.351   6.343
 7974WAT    HW139867   3.292   3.419   6.380
 7974WAT    HW239868   3.255   3.273   6.394
 7974WAT    LP139869   3.169   3.369   6.349
 7974WAT    LP239870   3.251   3.341   6.275
 7975WAT     OW39871   6.032   2.390   5.797
 7975WAT    HW139872   6.080   2.430   5.870
 7975WAT    HW239873   6.082   2.415   5.719
 7975WAT    LP139874   6.030   2.321   5.804
 7975WAT    LP239875   5.967   2.415   5.793
 7976WAT     OW39876   6.607   1.334   2.405
 7976WAT    HW139877   6.660   1.273   2.456
 7976WAT    HW239878   6.670   1.399   2.372
 7976WAT    LP139879   6.575   1.301   2.352
 7976WAT    LP239880   6.559   1.365   2.445
 7977WAT     OW39881   6.017   0.878   4.349
 7977WAT    HW139882   6.079   0.939   4.388
 7977WAT    HW239883   5.934   0.897   4.393
 7977WAT    LP139884   6.011   0.888   4.280
 7977WAT    LP239885   6.036   0.811   4.361
 7978WAT     OW39886   2.370   1.738   3.111
 7978WAT    HW139887   2.404   1.687   3.185
 7978WAT    HW239888   2.375   1.679   3.036
 7978WAT    LP139889   2.304   1.758   3.123
 7978WAT    LP239890   2.409   1.795   3.101
 7979WAT     OW39891   6.554   3.293   5.488
 7979WAT    HW139892   6.639   3.321   5.455
 7979WAT    HW239893   6.492   3.320   5.421
 7979WAT    LP139894   6.553   3.224   5.498
 7979WAT    LP239895   6.540   3.325   5.549
 7980WAT     OW39896   5.836   3.653   5.776
 7980WAT    HW139897   5.790   3.706   5.841
 7980WAT    HW239898   5.911   3.617   5.823
 7980WAT    LP139899   5.795   3.602   5.752
 7980WAT    LP239900   5.858   3.692   5.722
 7981WAT     OW39901   4.631   5.150   5.180
 7981WAT    HW139902   4.569   5.147   5.106
 7981WAT    HW239903   4.688   5.224   5.161
 7981WAT    LP139904   4.597   5.160   5.240
 7981WAT    LP239905   4.667   5.091   5.184
 7982WAT     OW39906   1.257   1.568   2.004
 7982WAT    HW139907   1.317   1.498   2.028
 7982WAT    HW239908   1.192   1.569   2.075
 7982WAT    LP139909   1.291   1.630   2.001
 7982WAT    LP239910   1.227   1.555   1.943
 7983WAT     OW39911   4.762   2.885   6.486
 7983WAT    HW139912   4.817   2.962   6.474
 7983WAT    HW239913   4.680   2.919   6.522
 7983WAT    LP139914   4.751   2.852   6.425
 7983WAT    LP239915   4.792   2.840   6.531
 7984WAT     OW39916   0.981   4.809   6.496
 7984WAT    HW139917   1.054   4.812   6.433
 7984WAT    HW239918   0.905   4.839   6.447
 7984WAT    LP139919   0.971   4.744   6.519
 7984WAT    LP239920   0.994   4.851   6.551
 7985WAT     OW39921   1.255   3.997   0.259
 7985WAT    HW139922   1.218   4.068   0.208
 7985WAT    HW239923   1.186   3.931   0.263
 7985WAT    LP139924   1.312   3.971   0.228
 7985WAT    LP239925   1.272   4.018   0.324
 7986WAT     OW39926   5.123   1.978   6.606
 7986WAT    HW139927   5.145   2.004   6.516
 7986WAT    HW239928   5.064   2.047   6.636
 7986WAT    LP139929   5.090   1.916   6.606
 7986WAT    LP239930   5.180   1.974   6.646
 7987WAT     OW39931   1.780   5.985   0.874
 7987WAT    HW139932   1.792   6.066   0.923
 7987WAT    HW239933   1.745   5.923   0.938
 7987WAT    LP139934   1.735   5.994   0.821
 7987WAT    LP239935   1.841   5.962   0.849
 7988WAT     OW39936   4.165   2.016   1.526
 7988WAT    HW139937   4.163   1.980   1.438
 7988WAT    HW239938   4.174   2.111   1.513
 7988WAT    LP139939   4.106   2.002   1.561
 7988WAT    LP239940   4.220   1.991   1.562
 7989WAT     OW39941   1.161   4.586   5.618
 7989WAT    HW139942   1.226   4.522   5.591
 7989WAT    HW239943   1.202   4.671   5.602
 7989WAT    LP139944   1.102   4.580   5.580
 7989WAT    LP239945   1.145   4.579   5.686
 7990WAT     OW39946   1.303   6.637   1.023
 7990WAT    HW139947   1.391   6.656   0.990
 7990WAT    HW239948   1.257   6.721   1.019
 7990WAT    LP139949   1.271   6.589   0.983
 7990WAT    LP239950   1.306   6.614   1.089
 7991WAT     OW39951   5.449   5.171   1.158
 7991WAT    HW139952   5.428   5.157   1.066
 7991WAT    HW239953   5.541   5.197   1.159
 7991WAT    LP139954   5.409   5.221   1.186
 7991WAT    LP239955   5.440   5.111   1.195
 7992WAT     OW39956   2.231   1.424   2.409
 7992WAT    HW139957   2.282   1.448   2.486
 7992WAT    HW239958   2.285   1.452   2.335
 7992WAT    LP139959   2.221   1.355   2.407
 7992WAT    LP239960   2.170   1.457   2.408
 7993WAT     OW39961   1.342   0.004   5.659
 7993WAT    HW139962   1.433  -0.025   5.661
 7993WAT    HW239963   1.301  -0.039   5.734
 7993WAT    LP139964   1.338   0.074   5.665
 7993WAT    LP239965   1.311  -0.016   5.599
 7994WAT     OW39966   4.229   2.902   5.131
 7994WAT    HW139967   4.238   2.978   5.074
 7994WAT    HW239968   4.148   2.860   5.104
 7994WAT    LP139969   4.283   2.858   5.123
 7994WAT    LP239970   4.225   2.922   5.198
 7995WAT     OW39971   0.650   0.888   0.282
 7995WAT    HW139972   0.652   0.835   0.202
 7995WAT    HW239973   0.708   0.842   0.343
 7995WAT    LP139974   0.673   0.953   0.269
 7995WAT    LP239975   0.585   0.891   0.308
 7996WAT     OW39976   0.868   5.474   2.519
 7996WAT    HW139977   0.783   5.507   2.547
 7996WAT    HW239978   0.851   5.385   2.489
 7996WAT    LP139979   0.894   5.514   2.468
 7996WAT    LP239980   0.913   5.474   2.573
 7997WAT     OW39981   1.581   4.844   3.139
 7997WAT    HW139982   1.498   4.798   3.150
 7997WAT    HW239983   1.614   4.813   3.054
 7997WAT    LP139984   1.571   4.913   3.138
 7997WAT    LP239985   1.626   4.827   3.190
 7998WAT     OW39986   3.002   4.077   2.055
 7998WAT    HW139987   3.061   4.002   2.049
 7998WAT    HW239988   3.055   4.147   2.093
 7998WAT    LP139989   2.979   4.095   1.991
 7998WAT    LP239990   2.947   4.062   2.096
 7999WAT     OW39991   0.965   1.373   4.384
 7999WAT    HW139992   0.998   1.413   4.303
 7999WAT    HW239993   0.919   1.294   4.354
 7999WAT    LP139994   1.018   1.355   4.426
 7999WAT    LP239995   0.922   1.416   4.417
 8000WAT     OW39996   1.370   2.203   1.485
 8000WAT    HW139997   1.433   2.190   1.414
 8000WAT    HW239998   1.376   2.123   1.537
 8000WAT    LP139999   1.388   2.259   1.524
 8000WAT    LP240000   1.305   2.211   1.460
 8001WAT     OW40001   4.990   0.668   2.441
 8001WAT    HW140002   5.022   0.590   2.487
 8001WAT    HW240003   4.996   0.738   2.506
 8001WAT    LP140004   5.031   0.682   2.386
 8001WAT    LP240005   4.924   0.659   2.420
 8002WAT     OW40006   2.529   1.187   2.712
 8002WAT    HW140007   2.496   1.217   2.797
 8002WAT    HW240008   2.609   1.139   2.734
 8002WAT    LP140009   2.482   1.145   2.681
 8002WAT    LP240010   2.543   1.241   2.670
 8003WAT     OW40011   0.883   6.393   1.177
 8003WAT    HW140012   0.943   6.432   1.113
 8003WAT    HW240013   0.878   6.301   1.151
 8003WAT    LP140014   0.909   6.399   1.241
 8003WAT    LP240015   0.820   6.423   1.173
 8004WAT     OW40016   0.218   4.682   2.704
 8004WAT    HW140017   0.275   4.741   2.655
 8004WAT    HW240018   0.153   4.652   2.640
 8004WAT    LP140019   0.254   4.628   2.730
 8004WAT    LP240020   0.186   4.716   2.757
 8005WAT     OW40021   4.749   0.547   2.386
 8005WAT    HW140022   4.785   0.458   2.379
 8005WAT    HW240023   4.826   0.604   2.388
 8005WAT    LP140024   4.709   0.562   2.331
 8005WAT    LP240025   4.712   0.554   2.445
 8006WAT     OW40026   4.258   4.213   6.617
 8006WAT    HW140027   4.213   4.168   6.689
 8006WAT    HW240028   4.321   4.149   6.585
 8006WAT    LP140029   4.212   4.231   6.567
 8006WAT    LP240030   4.290   4.271   6.641
 8007WAT     OW40031   4.815   6.538   1.633
 8007WAT    HW140032   4.841   6.448   1.616
 8007WAT    HW240033   4.893   6.590   1.613
 8007WAT    LP140034   4.762   6.557   1.592
 8007WAT    LP240035   4.797   6.546   1.700
 8008WAT     OW40036   5.062   6.572   3.045
 8008WAT    HW140037   5.052   6.624   3.125
 8008WAT    HW240038   5.151   6.538   3.050
 8008WAT    LP140039   5.016   6.519   3.044
 8008WAT    LP240040   5.053   6.611   2.988
 8009WAT     OW40041   5.078   1.413   0.667
 8009WAT    HW140042   5.165   1.374   0.669
 8009WAT    HW240043   5.064   1.438   0.576
 8009WAT    LP140044   5.030   1.366   0.688
 8009WAT    LP240045   5.074   1.469   0.709
 8010WAT     OW40046   0.383   5.665   2.637
 8010WAT    HW140047   0.416   5.752   2.612
 8010WAT    HW240048   0.330   5.681   2.715
 8010WAT    LP140049   0.345   5.637   2.586
 8010WAT    LP240050   0.437   5.622   2.652
 8011WAT     OW40051   0.483   2.359   2.869
 8011WAT    HW140052   0.435   2.389   2.791
 8011WAT    HW240053   0.526   2.278   2.841
 8011WAT    LP140054   0.530   2.406   2.889
 8011WAT    LP240055   0.438   2.346   2.922
 8012WAT     OW40056   5.436   1.652   4.482
 8012WAT    HW140057   5.418   1.721   4.546
 8012WAT    HW240058   5.420   1.570   4.529
 8012WAT    LP140059   5.393   1.658   4.427
 8012WAT    LP240060   5.502   1.656   4.460
 8013WAT     OW40061   0.215   5.961   5.240
 8013WAT    HW140062   0.181   5.885   5.192
 8013WAT    HW240063   0.137   6.005   5.274
 8013WAT    LP140064   0.257   5.941   5.292
 8013WAT    LP240065   0.251   6.003   5.197
 8014WAT     OW40066   3.800   0.259   2.428
 8014WAT    HW140067   3.849   0.330   2.470
 8014WAT    HW240068   3.804   0.187   2.492
 8014WAT    LP140069   3.734   0.278   2.417
 8014WAT    LP240070   3.830   0.240   2.368
 8015WAT     OW40071   0.548   3.250   3.552
 8015WAT    HW140072   0.519   3.187   3.618
 8015WAT    HW240073   0.502   3.224   3.472
 8015WAT    LP140074   0.530   3.315   3.571
 8015WAT    LP240075   0.617   3.247   3.543
 8016WAT     OW40076   2.574   0.807   0.774
 8016WAT    HW140077   2.635   0.734   0.782
 8016WAT    HW240078   2.487   0.766   0.779
 8016WAT    LP140079   2.583   0.853   0.826
 8016WAT    LP240080   2.581   0.839   0.712
 8017WAT     OW40081   5.547   0.631   2.011
 8017WAT    HW140082   5.456   0.628   1.982
 8017WAT    HW240083   5.596   0.662   1.934
 8017WAT    LP140084   5.555   0.676   2.064
 8017WAT    LP240085   5.569   0.568   2.030
 8018WAT     OW40086   1.490   0.074   0.217
 8018WAT    HW140087   1.535  -0.002   0.254
 8018WAT    HW240088   1.471   0.049   0.127
 8018WAT    LP140089   1.431   0.087   0.253
 8018WAT    LP240090   1.532   0.130   0.219
 8019WAT     OW40091   3.820   3.847   1.381
 8019WAT    HW140092   3.760   3.802   1.441
 8019WAT    HW240093   3.789   3.937   1.380
 8019WAT    LP140094   3.886   3.843   1.404
 8019WAT    LP240095   3.816   3.818   1.317
 8020WAT     OW40096   0.099   5.270   3.584
 8020WAT    HW140097   0.119   5.353   3.626
 8020WAT    HW240098   0.022   5.288   3.530
 8020WAT    LP140099   0.152   5.249   3.544
 8020WAT    LP240100   0.085   5.221   3.632
 8021WAT     OW40101   3.503   6.048   4.189
 8021WAT    HW140102   3.446   6.115   4.228
 8021WAT    HW240103   3.467   6.035   4.102
 8021WAT    LP140104   3.569   6.071   4.186
 8021WAT    LP240105   3.500   5.989   4.226
 8022WAT     OW40106   0.046   4.604   2.504
 8022WAT    HW140107  -0.046   4.625   2.494
 8022WAT    HW240108   0.090   4.656   2.437
 8022WAT    LP140109   0.069   4.621   2.568
 8022WAT    LP240110   0.057   4.535   2.493
 8023WAT     OW40111   3.687   2.644   6.299
 8023WAT    HW140112   3.715   2.553   6.308
 8023WAT    HW240113   3.766   2.690   6.271
 8023WAT    LP140114   3.637   2.649   6.250
 8023WAT    LP240115   3.664   2.669   6.360
 8024WAT     OW40116   3.168   2.686   3.910
 8024WAT    HW140117   3.076   2.670   3.892
 8024WAT    HW240118   3.203   2.600   3.935
 8024WAT    LP140119   3.201   2.710   3.853
 8024WAT    LP240120   3.176   2.732   3.962
 8025WAT     OW40121   1.648   3.298   3.260
 8025WAT    HW140122   1.709   3.323   3.191
 8025WAT    HW240123   1.674   3.210   3.285
 8025WAT    LP140124   1.652   3.342   3.314
 8025WAT    LP240125   1.582   3.298   3.236
 8026WAT     OW40126   4.037   5.619   3.012
 8026WAT    HW140127   4.100   5.652   3.077
 8026WAT    HW240128   4.085   5.551   2.965
 8026WAT    LP140129   3.981   5.593   3.044
 8026WAT    LP240130   4.018   5.671   2.969
 8027WAT     OW40131   4.548   1.164   1.961
 8027WAT    HW140132   4.630   1.114   1.967
 8027WAT    HW240133   4.563   1.226   1.890
 8027WAT    LP140134   4.495   1.122   1.946
 8027WAT    LP240135   4.535   1.198   2.021
 8028WAT     OW40136   0.666   5.618   3.465
 8028WAT    HW140137   0.644   5.573   3.547
 8028WAT    HW240138   0.606   5.692   3.462
 8028WAT    LP140139   0.732   5.640   3.466
 8028WAT    LP240140   0.656   5.575   3.411
 8029WAT     OW40141   5.819   2.049   3.897
 8029WAT    HW140142   5.736   2.008   3.874
 8029WAT    HW240143   5.885   1.998   3.850
 8029WAT    LP140144   5.820   2.116   3.876
 8029WAT    LP240145   5.830   2.046   3.966
 8030WAT     OW40146   3.096   3.073   3.152
 8030WAT    HW140147   3.066   2.984   3.173
 8030WAT    HW240148   3.047   3.097   3.073
 8030WAT    LP140149   3.081   3.116   3.205
 8030WAT    LP240150   3.164   3.073   3.140
 8031WAT     OW40151   3.711   1.693   1.596
 8031WAT    HW140152   3.790   1.706   1.544
 8031WAT    HW240153   3.728   1.738   1.679
 8031WAT    LP140154   3.656   1.721   1.564
 8031WAT    LP240155   3.700   1.624   1.607
 8032WAT     OW40156   0.138   4.801   4.215
 8032WAT    HW140157   0.171   4.868   4.274
 8032WAT    HW240158   0.217   4.763   4.176
 8032WAT    LP140159   0.102   4.752   4.250
 8032WAT    LP240160   0.097   4.829   4.166
 8033WAT     OW40161   4.165   5.868   5.538
 8033WAT    HW140162   4.227   5.827   5.478
 8033WAT    HW240163   4.215   5.939   5.580
 8033WAT    LP140164   4.110   5.894   5.503
 8033WAT    LP240165   4.143   5.822   5.586
 8034WAT     OW40166   5.894   2.474   1.728
 8034WAT    HW140167   5.960   2.457   1.795
 8034WAT    HW240168   5.879   2.569   1.732
 8034WAT    LP140169   5.916   2.455   1.665
 8034WAT    LP240170   5.834   2.440   1.743
 8035WAT     OW40171   3.905   3.878   0.374
 8035WAT    HW140172   3.905   3.860   0.280
 8035WAT    HW240173   3.942   3.800   0.414
 8035WAT    LP140174   3.944   3.934   0.388
 8035WAT    LP240175   3.840   3.889   0.397
 8036WAT     OW40176   5.495   0.524   6.299
 8036WAT    HW140177   5.552   0.599   6.280
 8036WAT    HW240178   5.545   0.472   6.362
 8036WAT    LP140179   5.435   0.546   6.326
 8036WAT    LP240180   5.483   0.487   6.241
 8037WAT     OW40181   1.811   5.449   2.053
 8037WAT    HW140182   1.842   5.524   2.003
 8037WAT    HW240183   1.772   5.487   2.131
 8037WAT    LP140184   1.764   5.413   2.016
 8037WAT    LP240185   1.864   5.407   2.070
 8038WAT     OW40186   5.122   0.059   4.864
 8038WAT    HW140187   5.099  -0.017   4.810
 8038WAT    HW240188   5.216   0.051   4.878
 8038WAT    LP140189   5.107   0.118   4.829
 8038WAT    LP240190   5.087   0.057   4.924
 8039WAT     OW40191   4.371   6.377   3.500
 8039WAT    HW140192   4.368   6.364   3.406
 8039WAT    HW240193   4.338   6.296   3.538
 8039WAT    LP140194   4.437   6.389   3.522
 8039WAT    LP240195   4.330   6.431   3.519
 8040WAT     OW40196   2.564   4.667   3.424
 8040WAT    HW140197   2.501   4.659   3.353
 8040WAT    HW240198   2.627   4.596   3.409
 8040WAT    LP140199   2.597   4.729   3.421
 8040WAT    LP240200   2.533   4.660   3.486
 8041WAT     OW40201   5.703   1.052   1.532
 8041WAT    HW140202   5.714   1.130   1.479
 8041WAT    HW240203   5.724   1.081   1.621
 8041WAT    LP140204   5.637   1.028   1.529
 8041WAT    LP240205   5.747   1.001   1.512
 8042WAT     OW40206   3.224   0.024   4.750
 8042WAT    HW140207   3.175  -0.054   4.722
 8042WAT    HW240208   3.314  -0.007   4.761
 8042WAT    LP140209   3.221   0.074   4.700
 8042WAT    LP240210   3.199   0.049   4.810
 8043WAT     OW40211   4.082   6.081   1.564
 8043WAT    HW140212   4.032   6.162   1.563
 8043WAT    HW240213   4.069   6.045   1.652
 8043WAT    LP140214   4.059   6.036   1.516
 8043WAT    LP240215   4.150   6.094   1.553
 8044WAT     OW40216   5.373   6.470   1.559
 8044WAT    HW140217   5.422   6.452   1.479
 8044WAT    HW240218   5.423   6.427   1.628
 8044WAT    LP140219   5.370   6.539   1.571
 8044WAT    LP240220   5.308   6.444   1.555
 8045WAT     OW40221   1.862   1.064   4.281
 8045WAT    HW140222   1.831   0.974   4.295
 8045WAT    HW240223   1.872   1.100   4.369
 8045WAT    LP140224   1.924   1.063   4.247
 8045WAT    LP240225   1.816   1.100   4.244
 8046WAT     OW40226   2.797   4.340   5.941
 8046WAT    HW140227   2.735   4.319   5.872
 8046WAT    HW240228   2.822   4.431   5.924
 8046WAT    LP140229   2.767   4.334   6.004
 8046WAT    LP240230   2.853   4.298   5.938
 8047WAT     OW40231   4.196   2.430   0.587
 8047WAT    HW140232   4.231   2.341   0.591
 8047WAT    HW240233   4.194   2.451   0.494
 8047WAT    LP140234   4.131   2.431   0.614
 8047WAT    LP240235   4.237   2.474   0.622
 8048WAT     OW40236   6.194   0.856   1.536
 8048WAT    HW140237   6.145   0.888   1.611
 8048WAT    HW240238   6.255   0.926   1.515
 8048WAT    LP140239   6.228   0.797   1.552
 8048WAT    LP240240   6.151   0.843   1.482
 8049WAT     OW40241   5.567   1.185   6.214
 8049WAT    HW140242   5.547   1.098   6.248
 8049WAT    HW240243   5.562   1.242   6.291
 8049WAT    LP140244   5.631   1.187   6.186
 8049WAT    LP240245   5.520   1.204   6.166
 8050WAT     OW40246   6.377   0.833   0.065
 8050WAT    HW140247   6.442   0.780   0.110
 8050WAT    HW240248   6.421   0.863  -0.014
 8050WAT    LP140249   6.320   0.795   0.049
 8050WAT    LP240250   6.358   0.888   0.104
 8051WAT     OW40251   4.137   3.665   2.920
 8051WAT    HW140252   4.111   3.738   2.864
 8051WAT    HW240253   4.110   3.587   2.872
 8051WAT    LP140254   4.206   3.665   2.930
 8051WAT    LP240255   4.104   3.669   2.982
 8052WAT     OW40256   0.195   3.484   0.058
 8052WAT    HW140257   0.248   3.562   0.076
 8052WAT    HW240258   0.220   3.422   0.126
 8052WAT    LP140259   0.127   3.499   0.062
 8052WAT    LP240260   0.210   3.459  -0.005
 8053WAT     OW40261   4.483   5.117   4.939
 8053WAT    HW140262   4.441   5.194   4.902
 8053WAT    HW240263   4.557   5.100   4.881
 8053WAT    LP140264   4.505   5.129   5.004
 8053WAT    LP240265   4.439   5.062   4.939
 8054WAT     OW40266   4.705   4.810   6.226
 8054WAT    HW140267   4.717   4.898   6.190
 8054WAT    HW240268   4.611   4.802   6.241
 8054WAT    LP140269   4.727   4.762   6.181
 8054WAT    LP240270   4.741   4.804   6.286
 8055WAT     OW40271   3.643   6.060   1.986
 8055WAT    HW140272   3.668   6.041   1.896
 8055WAT    HW240273   3.726   6.072   2.032
 8055WAT    LP140274   3.604   6.118   1.989
 8055WAT    LP240275   3.607   6.006   2.013
 8056WAT     OW40276   5.966   1.924   5.946
 8056WAT    HW140277   5.976   1.852   5.884
 8056WAT    HW240278   5.986   2.003   5.895
 8056WAT    LP140279   5.901   1.926   5.971
 8056WAT    LP240280   6.012   1.918   5.999
 8057WAT     OW40281   4.246   4.970   5.956
 8057WAT    HW140282   4.214   4.979   6.046
 8057WAT    HW240283   4.317   5.034   5.950
 8057WAT    LP140284   4.269   4.905   5.944
 8057WAT    LP240285   4.195   4.985   5.910
 8058WAT     OW40286   0.514   5.476   4.918
 8058WAT    HW140287   0.519   5.420   4.996
 8058WAT    HW240288   0.585   5.539   4.929
 8058WAT    LP140289   0.524   5.438   4.860
 8058WAT    LP240290   0.453   5.508   4.914
 8059WAT     OW40291   6.073   1.368   0.149
 8059WAT    HW140292   6.149   1.425   0.161
 8059WAT    HW240293   5.998   1.422   0.171
 8059WAT    LP140294   6.069   1.346   0.083
 8059WAT    LP240295   6.077   1.312   0.192
 8060WAT     OW40296   1.331   4.294   4.471
 8060WAT    HW140297   1.259   4.252   4.519
 8060WAT    HW240298   1.409   4.244   4.495
 8060WAT    LP140299   1.319   4.290   4.402
 8060WAT    LP240300   1.338   4.361   4.490
 8061WAT     OW40301   1.956   3.937   6.572
 8061WAT    HW140302   1.905   3.898   6.501
 8061WAT    HW240303   1.949   4.032   6.558
 8061WAT    LP140304   1.930   3.920   6.634
 8061WAT    LP240305   2.023   3.917   6.568
 8062WAT     OW40306   4.560   2.520   2.262
 8062WAT    HW140307   4.478   2.568   2.248
 8062WAT    HW240308   4.621   2.560   2.200
 8062WAT    LP140309   4.582   2.529   2.327
 8062WAT    LP240310   4.552   2.452   2.248
 8063WAT     OW40311   2.604   4.669   0.915
 8063WAT    HW140312   2.513   4.699   0.911
 8063WAT    HW240313   2.651   4.729   0.856
 8063WAT    LP140314   2.629   4.674   0.980
 8063WAT    LP240315   2.610   4.603   0.892
 8064WAT     OW40316   4.928   3.206   5.328
 8064WAT    HW140317   4.865   3.134   5.319
 8064WAT    HW240318   5.013   3.164   5.335
 8064WAT    LP140319   4.925   3.248   5.272
 8064WAT    LP240320   4.914   3.244   5.386
 8065WAT     OW40321   4.276   1.741   2.612
 8065WAT    HW140322   4.218   1.674   2.576
 8065WAT    HW240323   4.362   1.701   2.613
 8065WAT    LP140324   4.275   1.798   2.571
 8065WAT    LP240325   4.256   1.759   2.677
 8066WAT     OW40326   5.240   1.324   3.239
 8066WAT    HW140327   5.291   1.295   3.315
 8066WAT    HW240328   5.219   1.416   3.258
 8066WAT    LP140329   5.278   1.320   3.181
 8066WAT    LP240330   5.182   1.287   3.233
 8067WAT     OW40331   3.356   0.156   5.317
 8067WAT    HW140332   3.429   0.097   5.300
 8067WAT    HW240333   3.279   0.108   5.289
 8067WAT    LP140334   3.352   0.171   5.385
 8067WAT    LP240335   3.364   0.216   5.281
 8068WAT     OW40336   6.249   4.925   2.886
 8068WAT    HW140337   6.259   5.020   2.884
 8068WAT    HW240338   6.335   4.891   2.860
 8068WAT    LP140339   6.232   4.903   2.950
 8068WAT    LP240340   6.199   4.904   2.841
 8069WAT     OW40341   2.543   0.326   5.883
 8069WAT    HW140342   2.585   0.242   5.866
 8069WAT    HW240343   2.559   0.342   5.976
 8069WAT    LP140344   2.572   0.376   5.844
 8069WAT    LP240345   2.475   0.322   5.870
 8070WAT     OW40346   5.294   6.087   6.335
 8070WAT    HW140347   5.295   6.167   6.281
 8070WAT    HW240348   5.254   6.021   6.279
 8070WAT    LP140349   5.359   6.069   6.352
 8070WAT    LP240350   5.256   6.097   6.393
 8071WAT     OW40351   3.781   4.695   2.390
 8071WAT    HW140352   3.821   4.617   2.426
 8071WAT    HW240353   3.769   4.676   2.296
 8071WAT    LP140354   3.719   4.708   2.420
 8071WAT    LP240355   3.822   4.751   2.399
 8072WAT     OW40356   1.001   6.380   2.835
 8072WAT    HW140357   1.021   6.360   2.926
 8072WAT    HW240358   0.963   6.468   2.836
 8072WAT    LP140359   1.059   6.379   2.796
 8072WAT    LP240360   0.955   6.334   2.809
 8073WAT     OW40361   1.247   3.515   5.538
 8073WAT    HW140362   1.279   3.434   5.498
 8073WAT    HW240363   1.246   3.579   5.467
 8073WAT    LP140364   1.183   3.506   5.565
 8073WAT    LP240365   1.291   3.536   5.589
 8074WAT     OW40366   5.679   1.852   5.605
 8074WAT    HW140367   5.680   1.832   5.511
 8074WAT    HW240368   5.694   1.767   5.647
 8074WAT    LP140369   5.729   1.897   5.621
 8074WAT    LP240370   5.617   1.878   5.624
 8075WAT     OW40371   2.320   5.108   3.415
 8075WAT    HW140372   2.236   5.098   3.460
 8075WAT    HW240373   2.328   5.203   3.401
 8075WAT    LP140374   2.372   5.084   3.454
 8075WAT    LP240375   2.320   5.074   3.353
 8076WAT     OW40376   5.380   4.483   1.007
 8076WAT    HW140377   5.294   4.524   1.009
 8076WAT    HW240378   5.362   4.389   0.995
 8076WAT    LP140379   5.418   4.508   0.954
 8076WAT    LP240380   5.414   4.494   1.068
 8077WAT     OW40381   4.089   1.710   0.092
 8077WAT    HW140382   4.166   1.709   0.036
 8077WAT    HW240383   4.018   1.740   0.036
 8077WAT    LP140384   4.076   1.646   0.118
 8077WAT    LP240385   4.098   1.755   0.146
 8078WAT     OW40386   4.580   0.224   0.021
 8078WAT    HW140387   4.648   0.243  -0.043
 8078WAT    HW240388   4.502   0.269  -0.011
 8078WAT    LP140389   4.568   0.155   0.025
 8078WAT    LP240390   4.598   0.248   0.084
 8079WAT     OW40391   0.029   0.031   4.593
 8079WAT    HW140392   0.044   0.125   4.605
 8079WAT    HW240393  -0.064   0.019   4.608
 8079WAT    LP140394   0.047   0.011   4.528
 8079WAT    LP240395   0.066  -0.005   4.640
 8080WAT     OW40396   4.371   5.576   5.574
 8080WAT    HW140397   4.381   5.642   5.506
 8080WAT    HW240398   4.322   5.505   5.532
 8080WAT    LP140399   4.434   5.553   5.596
 8080WAT    LP240400   4.336   5.602   5.629
 8081WAT     OW40401   0.634   6.086   4.890
 8081WAT    HW140402   0.656   6.179   4.900
 8081WAT    HW240403   0.565   6.071   4.954
 8081WAT    LP140404   0.611   6.073   4.825
 8081WAT    LP240405   0.690   6.047   4.903
 8082WAT     OW40406   6.637   1.619   1.632
 8082WAT    HW140407   6.720   1.630   1.584
 8082WAT    HW240408   6.642   1.684   1.702
 8082WAT    LP140409   6.583   1.632   1.590
 8082WAT    LP240410   6.632   1.555   1.658
 8083WAT     OW40411   3.640   2.732   6.567
 8083WAT    HW140412   3.665   2.711   6.477
 8083WAT    HW240413   3.597   2.653   6.599
 8083WAT    LP140414   3.696   2.747   6.605
 8083WAT    LP240415   3.596   2.786   6.568
 8084WAT     OW40416   5.347   4.396   4.085
 8084WAT    HW140417   5.309   4.333   4.145
 8084WAT    HW240418   5.436   4.363   4.069
 8084WAT    LP140419   5.311   4.399   4.025
 8084WAT    LP240420   5.350   4.460   4.114
 8085WAT     OW40421   1.100   0.899   2.361
 8085WAT    HW140422   1.143   0.815   2.381
 8085WAT    HW240423   1.045   0.917   2.437
 8085WAT    LP140424   1.148   0.949   2.352
 8085WAT    LP240425   1.062   0.893   2.303
 8086WAT     OW40426   4.259   6.547   2.773
 8086WAT    HW140427   4.287   6.483   2.838
 8086WAT    HW240428   4.340   6.581   2.736
 8086WAT    LP140429   4.220   6.516   2.723
 8086WAT    LP240430   4.222   6.598   2.803
 8087WAT     OW40431   3.612   4.529   4.722
 8087WAT    HW140432   3.693   4.538   4.672
 8087WAT    HW240433   3.617   4.598   4.789
 8087WAT    LP140434   3.556   4.538   4.682
 8087WAT    LP240435   3.609   4.466   4.753
 8088WAT     OW40436   2.920   6.528   3.403
 8088WAT    HW140437   2.986   6.596   3.386
 8088WAT    HW240438   2.915   6.479   3.322
 8088WAT    LP140439   2.940   6.487   3.456
 8088WAT    LP240440   2.858   6.557   3.419
 8089WAT     OW40441   3.578   3.268   3.335
 8089WAT    HW140442   3.506   3.207   3.317
 8089WAT    HW240443   3.629   3.269   3.254
 8089WAT    LP140444   3.553   3.332   3.349
 8089WAT    LP240445   3.617   3.246   3.388
 8090WAT     OW40446   2.450   3.331   0.027
 8090WAT    HW140447   2.472   3.264   0.091
 8090WAT    HW240448   2.462   3.288  -0.058
 8090WAT    LP140449   2.384   3.352   0.034
 8090WAT    LP240450   2.493   3.386   0.033
 8091WAT     OW40451   1.213   1.502   3.254
 8091WAT    HW140452   1.255   1.489   3.169
 8091WAT    HW240453   1.283   1.530   3.312
 8091WAT    LP140454   1.163   1.551   3.249
 8091WAT    LP240455   1.184   1.442   3.277
 8092WAT     OW40456   4.679   4.164   3.855
 8092WAT    HW140457   4.586   4.151   3.872
 8092WAT    HW240458   4.706   4.087   3.805
 8092WAT    LP140459   4.689   4.223   3.817
 8092WAT    LP240460   4.715   4.169   3.915
 8093WAT     OW40461   1.303   1.294   4.199
 8093WAT    HW140462   1.348   1.285   4.282
 8093WAT    HW240463   1.293   1.204   4.167
 8093WAT    LP140464   1.241   1.324   4.207
 8093WAT    LP240465   1.341   1.331   4.154
 8094WAT     OW40466   5.545   5.543   2.175
 8094WAT    HW140467   5.565   5.565   2.266
 8094WAT    HW240468   5.456   5.508   2.177
 8094WAT    LP140469   5.548   5.600   2.134
 8094WAT    LP240470   5.590   5.495   2.151
 8095WAT     OW40471   5.160   0.277   5.079
 8095WAT    HW140472   5.112   0.219   5.019
 8095WAT    HW240473   5.249   0.280   5.044
 8095WAT    LP140474   5.131   0.340   5.081
 8095WAT    LP240475   5.161   0.250   5.144
 8096WAT     OW40476   5.065   3.344   0.840
 8096WAT    HW140477   5.150   3.303   0.823
 8096WAT    HW240478   5.010   3.272   0.872
 8096WAT    LP140479   5.071   3.394   0.889
 8096WAT    LP240480   5.038   3.371   0.782
 8097WAT     OW40481   4.372   3.885   2.066
 8097WAT    HW140482   4.430   3.961   2.077
 8097WAT    HW240483   4.399   3.825   2.135
 8097WAT    LP140484   4.305   3.904   2.075
 8097WAT    LP240485   4.380   3.857   2.003
 8098WAT     OW40486   5.308   5.122   5.607
 8098WAT    HW140487   5.340   5.188   5.668
 8098WAT    HW240488   5.380   5.111   5.544
 8098WAT    LP140489   5.295   5.062   5.640
 8098WAT    LP240490   5.250   5.144   5.574
 8099WAT     OW40491   2.548   3.824   3.571
 8099WAT    HW140492   2.547   3.878   3.492
 8099WAT    HW240493   2.585   3.740   3.543
 8099WAT    LP140494   2.588   3.853   3.621
 8099WAT    LP240495   2.483   3.815   3.596
 8100WAT     OW40496   1.529   0.250   6.300
 8100WAT    HW140497   1.486   0.255   6.385
 8100WAT    HW240498   1.487   0.319   6.248
 8100WAT    LP140499   1.598   0.262   6.306
 8100WAT    LP240500   1.518   0.188   6.270
 8101WAT     OW40501   1.463   5.405   5.874
 8101WAT    HW140502   1.476   5.498   5.852
 8101WAT    HW240503   1.529   5.359   5.823
 8101WAT    LP140504   1.472   5.394   5.942
 8101WAT    LP240505   1.399   5.384   5.856
 8102WAT     OW40506   0.372   2.568   4.412
 8102WAT    HW140507   0.384   2.551   4.318
 8102WAT    HW240508   0.447   2.623   4.436
 8102WAT    LP140509   0.312   2.603   4.423
 8102WAT    LP240510   0.372   2.509   4.448
 8103WAT     OW40511   5.916   4.086   0.543
 8103WAT    HW140512   5.997   4.055   0.504
 8103WAT    HW240513   5.926   4.181   0.546
 8103WAT    LP140514   5.861   4.069   0.503
 8103WAT    LP240515   5.907   4.060   0.607
 8104WAT     OW40516   1.214   4.039   2.069
 8104WAT    HW140517   1.144   4.089   2.027
 8104WAT    HW240518   1.280   4.104   2.092
 8104WAT    LP140519   1.190   4.007   2.127
 8104WAT    LP240520   1.240   3.991   2.026
 8105WAT     OW40521   6.681   3.343   2.288
 8105WAT    HW140522   6.673   3.382   2.375
 8105WAT    HW240523   6.632   3.403   2.231
 8105WAT    LP140524   6.748   3.340   2.269
 8105WAT    LP240525   6.653   3.279   2.287
 8106WAT     OW40526   6.280   1.402   6.193
 8106WAT    HW140527   6.244   1.489   6.175
 8106WAT    HW240528   6.218   1.341   6.152
 8106WAT    LP140529   6.343   1.395   6.165
 8106WAT    LP240530   6.283   1.391   6.262
 8107WAT     OW40531   4.301   0.807   4.603
 8107WAT    HW140532   4.370   0.842   4.546
 8107WAT    HW240533   4.310   0.712   4.595
 8107WAT    LP140534   4.311   0.828   4.669
 8107WAT    LP240535   4.238   0.828   4.581
 8108WAT     OW40536   0.677   6.622   6.393
 8108WAT    HW140537   0.659   6.538   6.351
 8108WAT    HW240538   0.702   6.599   6.483
 8108WAT    LP140539   0.729   6.655   6.361
 8108WAT    LP240540   0.620   6.662   6.393
 8109WAT     OW40541   0.792   0.746   2.114
 8109WAT    HW140542   0.840   0.829   2.117
 8109WAT    HW240543   0.739   0.753   2.034
 8109WAT    LP140544   0.836   0.692   2.109
 8109WAT    LP240545   0.751   0.739   2.170
 8110WAT     OW40546   5.252   2.927   4.546
 8110WAT    HW140547   5.273   2.956   4.635
 8110WAT    HW240548   5.328   2.954   4.493
 8110WAT    LP140549   5.244   2.858   4.544
 8110WAT    LP240550   5.194   2.959   4.523
 8111WAT     OW40551   4.500   2.681   5.409
 8111WAT    HW140552   4.594   2.696   5.412
 8111WAT    HW240553   4.462   2.766   5.385
 8111WAT    LP140554   4.484   2.633   5.361
 8111WAT    LP240555   4.476   2.661   5.471
 8112WAT     OW40556   5.078   0.292   3.542
 8112WAT    HW140557   5.085   0.248   3.627
 8112WAT    HW240558   5.095   0.384   3.561
 8112WAT    LP140559   5.126   0.266   3.497
 8112WAT    LP240560   5.014   0.283   3.515
 8113WAT     OW40561   4.909   4.277   5.821
 8113WAT    HW140562   4.960   4.354   5.846
 8113WAT    HW240563   4.819   4.310   5.812
 8113WAT    LP140564   4.931   4.251   5.760
 8113WAT    LP240565   4.912   4.228   5.870
 8114WAT     OW40566   1.784   2.829   4.850
 8114WAT    HW140567   1.711   2.858   4.905
 8114WAT    HW240568   1.826   2.759   4.900
 8114WAT    LP140569   1.761   2.805   4.788
 8114WAT    LP240570   1.829   2.882   4.839
 8115WAT     OW40571   3.939   0.917   1.433
 8115WAT    HW140572   4.011   0.938   1.492
 8115WAT    HW240573   3.970   0.840   1.384
 8115WAT    LP140574   3.881   0.902   1.468
 8115WAT    LP240575   3.927   0.970   1.389
 8116WAT     OW40576   2.966   5.401   1.330
 8116WAT    HW140577   2.964   5.312   1.294
 8116WAT    HW240578   2.904   5.449   1.275
 8116WAT    LP140579   2.945   5.401   1.396
 8116WAT    LP240580   3.030   5.428   1.325
 8117WAT     OW40581   3.242   5.946   2.117
 8117WAT    HW140582   3.328   5.906   2.125
 8117WAT    HW240583   3.247   6.024   2.172
 8117WAT    LP140584   3.228   5.963   2.051
 8117WAT    LP240585   3.192   5.903   2.141
 8118WAT     OW40586   5.411   5.859   1.569
 8118WAT    HW140587   5.360   5.933   1.603
 8118WAT    HW240588   5.465   5.897   1.500
 8118WAT    LP140589   5.451   5.831   1.619
 8118WAT    LP240590   5.368   5.810   1.543
 8119WAT     OW40591   1.897   2.555   4.089
 8119WAT    HW140592   1.971   2.608   4.058
 8119WAT    HW240593   1.821   2.613   4.080
 8119WAT    LP140594   1.889   2.498   4.049
 8119WAT    LP240595   1.906   2.537   4.156
 8120WAT     OW40596   4.402   1.573   2.346
 8120WAT    HW140597   4.465   1.514   2.305
 8120WAT    HW240598   4.353   1.611   2.273
 8120WAT    LP140599   4.358   1.538   2.388
 8120WAT    LP240600   4.434   1.623   2.383
 8121WAT     OW40601   2.899   5.121   6.127
 8121WAT    HW140602   2.871   5.051   6.069
 8121WAT    HW240603   2.933   5.189   6.068
 8121WAT    LP140604   2.845   5.146   6.164
 8121WAT    LP240605   2.949   5.099   6.171
 8122WAT     OW40606   2.051   5.475   2.592
 8122WAT    HW140607   2.062   5.384   2.620
 8122WAT    HW240608   2.053   5.525   2.674
 8122WAT    LP140609   2.104   5.495   2.550
 8122WAT    LP240610   1.990   5.484   2.559
 8123WAT     OW40611   4.847   5.839   5.123
 8123WAT    HW140612   4.829   5.883   5.040
 8123WAT    HW240613   4.887   5.907   5.178
 8123WAT    LP140614   4.788   5.816   5.153
 8123WAT    LP240615   4.891   5.786   5.114
 8124WAT     OW40616   5.894   2.104   1.478
 8124WAT    HW140617   5.941   2.073   1.555
 8124WAT    HW240618   5.953   2.086   1.405
 8124WAT    LP140619   5.833   2.071   1.471
 8124WAT    LP240620   5.882   2.173   1.483
 8125WAT     OW40621   5.782   3.817   2.940
 8125WAT    HW140622   5.839   3.747   2.910
 8125WAT    HW240623   5.752   3.788   3.026
 8125WAT    LP140624   5.818   3.877   2.946
 8125WAT    LP240625   5.728   3.826   2.897
 8126WAT     OW40626   6.591   5.945   1.338
 8126WAT    HW140627   6.660   5.883   1.362
 8126WAT    HW240628   6.565   5.919   1.250
 8126WAT    LP140629   6.536   5.940   1.382
 8126WAT    LP240630   6.615   6.011   1.338
 8127WAT     OW40631   1.271   0.029   4.031
 8127WAT    HW140632   1.207  -0.033   4.066
 8127WAT    HW240633   1.219   0.106   4.007
 8127WAT    LP140634   1.318   0.045   4.080
 8127WAT    LP240635   1.303   0.003   3.975
 8128WAT     OW40636   5.856   6.522   2.949
 8128WAT    HW140637   5.855   6.428   2.930
 8128WAT    HW240638   5.764   6.543   2.968
 8128WAT    LP140639   5.897   6.536   3.004
 8128WAT    LP240640   5.878   6.558   2.893
 8129WAT     OW40641   5.429   2.106   2.620
 8129WAT    HW140642   5.377   2.160   2.560
 8129WAT    HW240643   5.432   2.155   2.701
 8129WAT    LP140644   5.398   2.043   2.630
 8129WAT    LP240645   5.493   2.096   2.594
 8130WAT     OW40646   4.189   5.394   2.436
 8130WAT    HW140647   4.235   5.477   2.429
 8130WAT    HW240648   4.156   5.377   2.348
 8130WAT    LP140649   4.232   5.343   2.457
 8130WAT    LP240650   4.136   5.399   2.482
 8131WAT     OW40651   2.949   1.651   5.069
 8131WAT    HW140652   3.028   1.642   5.017
 8131WAT    HW240653   2.974   1.708   5.142
 8131WAT    LP140654   2.897   1.680   5.032
 8131WAT    LP240655   2.927   1.589   5.093
 8132WAT     OW40656   1.638   0.655   2.483
 8132WAT    HW140657   1.570   0.647   2.416
 8132WAT    HW240658   1.714   0.613   2.445
 8132WAT    LP140659   1.651   0.723   2.497
 8132WAT    LP240660   1.618   0.623   2.542
 8133WAT     OW40661   5.568   5.714   0.586
 8133WAT    HW140662   5.552   5.649   0.654
 8133WAT    HW240663   5.482   5.730   0.548
 8133WAT    LP140664   5.595   5.773   0.613
 8133WAT    LP240665   5.612   5.689   0.537
 8134WAT     OW40666   1.119   6.586   3.063
 8134WAT    HW140667   1.111   6.491   3.078
 8134WAT    HW240668   1.091   6.626   3.145
 8134WAT    LP140669   1.186   6.603   3.049
 8134WAT    LP240670   1.078   6.606   3.010
 8135WAT     OW40671   6.481   3.046   5.246
 8135WAT    HW140672   6.553   3.033   5.184
 8135WAT    HW240673   6.461   3.139   5.241
 8135WAT    LP140674   6.426   3.007   5.228
 8135WAT    LP240675   6.501   3.029   5.311
 8136WAT     OW40676   6.669   5.317   4.058
 8136WAT    HW140677   6.590   5.363   4.085
 8136WAT    HW240678   6.723   5.314   4.137
 8136WAT    LP140679   6.654   5.252   4.036
 8136WAT    LP240680   6.702   5.352   4.007
 8137WAT     OW40681   3.071   1.276   4.739
 8137WAT    HW140682   3.001   1.241   4.794
 8137WAT    HW240683   3.027   1.326   4.671
 8137WAT    LP140684   3.114   1.316   4.777
 8137WAT    LP240685   3.108   1.223   4.711
 8138WAT     OW40686   3.733   2.530   5.418
 8138WAT    HW140687   3.801   2.577   5.370
 8138WAT    HW240688   3.675   2.496   5.350
 8138WAT    LP140689   3.761   2.478   5.456
 8138WAT    LP240690   3.699   2.573   5.461
 8139WAT     OW40691   0.883   6.305   3.345
 8139WAT    HW140692   0.976   6.322   3.363
 8139WAT    HW240693   0.836   6.360   3.407
 8139WAT    LP140694   0.867   6.322   3.279
 8139WAT    LP240695   0.869   6.237   3.356
 8140WAT     OW40696   2.237   4.728   6.479
 8140WAT    HW140697   2.233   4.750   6.572
 8140WAT    HW240698   2.166   4.666   6.466
 8140WAT    LP140699   2.227   4.786   6.439
 8140WAT    LP240700   2.299   4.699   6.463
 8141WAT     OW40701   2.645   0.100   1.942
 8141WAT    HW140702   2.656   0.016   1.989
 8141WAT    HW240703   2.715   0.100   1.878
 8141WAT    LP140704   2.583   0.102   1.911
 8141WAT    LP240705   2.652   0.154   1.987
 8142WAT     OW40706   3.722   1.856   2.516
 8142WAT    HW140707   3.719   1.778   2.461
 8142WAT    HW240708   3.688   1.926   2.460
 8142WAT    LP140709   3.682   1.848   2.573
 8142WAT    LP240710   3.788   1.870   2.536
 8143WAT     OW40711   5.829   6.302   3.355
 8143WAT    HW140712   5.807   6.215   3.323
 8143WAT    HW240713   5.766   6.360   3.312
 8143WAT    LP140714   5.821   6.306   3.425
 8143WAT    LP240715   5.894   6.320   3.338
 8144WAT     OW40716   2.139   1.712   1.699
 8144WAT    HW140717   2.114   1.761   1.621
 8144WAT    HW240718   2.229   1.738   1.717
 8144WAT    LP140719   2.098   1.728   1.753
 8144WAT    LP240720   2.135   1.643   1.687
 8145WAT     OW40721   2.714   6.559   3.062
 8145WAT    HW140722   2.778   6.501   3.105
 8145WAT    HW240723   2.641   6.564   3.123
 8145WAT    LP140724   2.742   6.622   3.050
 8145WAT    LP240725   2.694   6.531   3.001
 8146WAT     OW40726   4.237   0.034   0.873
 8146WAT    HW140727   4.170   0.087   0.830
 8146WAT    HW240728   4.254  -0.038   0.812
 8146WAT    LP140729   4.295   0.071   0.884
 8146WAT    LP240730   4.213   0.010   0.934
 8147WAT     OW40731   2.385   2.673   0.287
 8147WAT    HW140732   2.325   2.640   0.220
 8147WAT    HW240733   2.374   2.768   0.283
 8147WAT    LP140734   2.367   2.648   0.350
 8147WAT    LP240735   2.451   2.655   0.272
 8148WAT     OW40736   1.722   5.028   5.812
 8148WAT    HW140737   1.787   4.971   5.770
 8148WAT    HW240738   1.764   5.056   5.893
 8148WAT    LP140739   1.707   5.082   5.771
 8148WAT    LP240740   1.664   4.992   5.826
 8149WAT     OW40741   1.057   6.628   4.819
 8149WAT    HW140742   0.969   6.603   4.846
 8149WAT    HW240743   1.077   6.569   4.747
 8149WAT    LP140744   1.058   6.695   4.797
 8149WAT    LP240745   1.103   6.620   4.871
 8150WAT     OW40746   1.780   1.981   6.307
 8150WAT    HW140747   1.795   1.993   6.214
 8150WAT    HW240748   1.748   1.891   6.316
 8150WAT    LP140749   1.839   1.990   6.344
 8150WAT    LP240750   1.732   2.027   6.330
 8151WAT     OW40751   3.285   1.490   2.548
 8151WAT    HW140752   3.312   1.402   2.570
 8151WAT    HW240753   3.285   1.493   2.452
 8151WAT    LP140754   3.220   1.503   2.573
 8151WAT    LP240755   3.329   1.538   2.574
 8152WAT     OW40756   0.216   3.877   5.242
 8152WAT    HW140757   0.183   3.920   5.164
 8152WAT    HW240758   0.143   3.822   5.272
 8152WAT    LP140759   0.272   3.839   5.228
 8152WAT    LP240760   0.232   3.925   5.291
 8153WAT     OW40761   1.905   1.750   3.662
 8153WAT    HW140762   1.816   1.723   3.640
 8153WAT    HW240763   1.948   1.670   3.693
 8153WAT    LP140764   1.938   1.775   3.606
 8153WAT    LP240765   1.904   1.798   3.713
 8154WAT     OW40766   2.589   0.862   2.681
 8154WAT    HW140767   2.654   0.932   2.677
 8154WAT    HW240768   2.594   0.829   2.770
 8154WAT    LP140769   2.525   0.887   2.667
 8154WAT    LP240770   2.604   0.811   2.635
 8155WAT     OW40771   2.641   1.334   6.180
 8155WAT    HW140772   2.715   1.274   6.179
 8155WAT    HW240773   2.674   1.412   6.224
 8155WAT    LP140774   2.620   1.349   6.115
 8155WAT    LP240775   2.587   1.306   6.216
 8156WAT     OW40776   6.259   3.805   3.784
 8156WAT    HW140777   6.341   3.809   3.734
 8156WAT    HW240778   6.271   3.868   3.855
 8156WAT    LP140779   6.205   3.822   3.744
 8156WAT    LP240780   6.250   3.740   3.810
 8157WAT     OW40781   5.303   3.496   0.475
 8157WAT    HW140782   5.337   3.583   0.493
 8157WAT    HW240783   5.223   3.490   0.529
 8157WAT    LP140784   5.287   3.488   0.407
 8157WAT    LP240785   5.349   3.447   0.494
 8158WAT     OW40786   6.300   4.636   0.439
 8158WAT    HW140787   6.342   4.554   0.414
 8158WAT    HW240788   6.244   4.611   0.513
 8158WAT    LP140789   6.347   4.684   0.459
 8158WAT    LP240790   6.261   4.661   0.387
 8159WAT     OW40791   4.250   1.651   3.254
 8159WAT    HW140792   4.259   1.690   3.167
 8159WAT    HW240793   4.199   1.571   3.239
 8159WAT    LP140794   4.312   1.635   3.281
 8159WAT    LP240795   4.215   1.694   3.297
 8160WAT     OW40796   1.181   6.052   1.102
 8160WAT    HW140797   1.165   6.121   1.037
 8160WAT    HW240798   1.118   5.984   1.081
 8160WAT    LP140799   1.246   6.028   1.097
 8160WAT    LP240800   1.170   6.077   1.167
 8161WAT     OW40801   5.727   4.426   0.307
 8161WAT    HW140802   5.776   4.423   0.389
 8161WAT    HW240803   5.757   4.505   0.262
 8161WAT    LP140804   5.740   4.369   0.268
 8161WAT    LP240805   5.658   4.430   0.320
 8162WAT     OW40806   2.795   2.196   2.166
 8162WAT    HW140807   2.816   2.210   2.259
 8162WAT    HW240808   2.732   2.124   2.167
 8162WAT    LP140809   2.766   2.253   2.138
 8162WAT    LP240810   2.852   2.178   2.130
 8163WAT     OW40811   5.303   2.874   1.842
 8163WAT    HW140812   5.394   2.883   1.868
 8163WAT    HW240813   5.256   2.937   1.897
 8163WAT    LP140814   5.295   2.889   1.774
 8163WAT    LP240815   5.280   2.809   1.854
 8164WAT     OW40816   1.244   1.124   2.342
 8164WAT    HW140817   1.284   1.124   2.255
 8164WAT    HW240818   1.193   1.043   2.346
 8164WAT    LP140819   1.294   1.125   2.392
 8164WAT    LP240820   1.203   1.180   2.350
 8165WAT     OW40821   0.424   3.745   5.979
 8165WAT    HW140822   0.333   3.724   5.999
 8165WAT    HW240823   0.426   3.840   5.973
 8165WAT    LP140824   0.467   3.723   6.031
 8165WAT    LP240825   0.444   3.716   5.919
 8166WAT     OW40826   3.825   4.285   5.291
 8166WAT    HW140827   3.871   4.232   5.226
 8166WAT    HW240828   3.779   4.221   5.346
 8166WAT    LP140829   3.870   4.322   5.330
 8166WAT    LP240830   3.779   4.328   5.261
 8167WAT     OW40831   5.245   1.931   1.108
 8167WAT    HW140832   5.312   1.864   1.097
 8167WAT    HW240833   5.189   1.897   1.178
 8167WAT    LP140834   5.274   1.992   1.127
 8167WAT    LP240835   5.208   1.940   1.049
 8168WAT     OW40836   2.777   3.985   2.184
 8168WAT    HW140837   2.856   4.030   2.156
 8168WAT    HW240838   2.756   4.023   2.269
 8168WAT    LP140839   2.724   3.996   2.139
 8168WAT    LP240840   2.788   3.916   2.190
 8169WAT     OW40841   2.264   0.189   4.975
 8169WAT    HW140842   2.351   0.149   4.963
 8169WAT    HW240843   2.249   0.238   4.894
 8169WAT    LP140844   2.215   0.140   4.983
 8169WAT    LP240845   2.264   0.232   5.030
 8170WAT     OW40846   0.352   0.716   5.261
 8170WAT    HW140847   0.292   0.642   5.249
 8170WAT    HW240848   0.410   0.688   5.332
 8170WAT    LP140849   0.388   0.729   5.203
 8170WAT    LP240850   0.316   0.774   5.279
 8171WAT     OW40851   0.977   0.819   3.387
 8171WAT    HW140852   0.965   0.914   3.388
 8171WAT    HW240853   0.956   0.793   3.297
 8171WAT    LP140854   1.043   0.801   3.403
 8171WAT    LP240855   0.933   0.787   3.432
 8172WAT     OW40856   0.030   1.314   2.775
 8172WAT    HW140857  -0.042   1.374   2.793
 8172WAT    HW240858   0.006   1.272   2.693
 8172WAT    LP140859   0.090   1.350   2.768
 8172WAT    LP240860   0.037   1.267   2.827
 8173WAT     OW40861   1.271   2.821   1.551
 8173WAT    HW140862   1.361   2.820   1.584
 8173WAT    HW240863   1.220   2.863   1.621
 8173WAT    LP140864   1.267   2.858   1.492
 8173WAT    LP240865   1.248   2.756   1.539
 8174WAT     OW40866   4.675   5.426   2.486
 8174WAT    HW140867   4.625   5.346   2.500
 8174WAT    HW240868   4.619   5.495   2.521
 8174WAT    LP140869   4.735   5.424   2.521
 8174WAT    LP240870   4.687   5.437   2.418
 8175WAT     OW40871   3.100   5.717   5.918
 8175WAT    HW140872   3.170   5.770   5.955
 8175WAT    HW240873   3.140   5.631   5.905
 8175WAT    LP140874   3.046   5.713   5.962
 8175WAT    LP240875   3.079   5.744   5.857
 8176WAT     OW40876   6.050   3.691   0.706
 8176WAT    HW140877   5.974   3.750   0.696
 8176WAT    HW240878   6.099   3.728   0.779
 8176WAT    LP140879   6.029   3.626   0.720
 8176WAT    LP240880   6.088   3.692   0.647
 8177WAT     OW40881   5.689   6.062   1.149
 8177WAT    HW140882   5.723   6.124   1.085
 8177WAT    HW240883   5.757   6.056   1.216
 8177WAT    LP140884   5.629   6.084   1.177
 8177WAT    LP240885   5.679   5.999   1.120
 8178WAT     OW40886   4.846   6.233   3.707
 8178WAT    HW140887   4.899   6.200   3.780
 8178WAT    HW240888   4.866   6.173   3.635
 8178WAT    LP140889   4.778   6.231   3.723
 8178WAT    LP240890   4.865   6.298   3.691
 8179WAT     OW40891   4.751   0.689   1.157
 8179WAT    HW140892   4.798   0.633   1.095
 8179WAT    HW240893   4.821   0.729   1.209
 8179WAT    LP140894   4.715   0.738   1.123
 8179WAT    LP240895   4.708   0.651   1.197
 8180WAT     OW40896   4.728   2.368   3.149
 8180WAT    HW140897   4.692   2.314   3.079
 8180WAT    HW240898   4.754   2.449   3.106
 8180WAT    LP140899   4.679   2.381   3.198
 8180WAT    LP240900   4.783   2.337   3.179
 8181WAT     OW40901   6.049   0.151   2.985
 8181WAT    HW140902   6.024   0.117   2.899
 8181WAT    HW240903   6.075   0.073   3.035
 8181WAT    LP140904   6.102   0.196   2.980
 8181WAT    LP240905   5.995   0.183   3.016
 8182WAT     OW40906   0.097   3.285   3.784
 8182WAT    HW140907   0.134   3.240   3.708
 8182WAT    HW240908   0.095   3.218   3.853
 8182WAT    LP140909   0.137   3.339   3.804
 8182WAT    LP240910   0.032   3.308   3.771
 8183WAT     OW40911   5.350   2.143   4.451
 8183WAT    HW140912   5.291   2.071   4.472
 8183WAT    HW240913   5.297   2.222   4.466
 8183WAT    LP140914   5.405   2.143   4.494
 8183WAT    LP240915   5.371   2.140   4.385
 8184WAT     OW40916   1.293   3.013   1.359
 8184WAT    HW140917   1.274   2.937   1.414
 8184WAT    HW240918   1.388   3.024   1.365
 8184WAT    LP140919   1.273   3.002   1.293
 8184WAT    LP240920   1.260   3.070   1.384
 8185WAT     OW40921   4.756   1.583   3.375
 8185WAT    HW140922   4.772   1.564   3.282
 8185WAT    HW240923   4.661   1.596   3.380
 8185WAT    LP140924   4.776   1.529   3.415
 8185WAT    LP240925   4.790   1.641   3.394
 8186WAT     OW40926   0.025   0.869   5.543
 8186WAT    HW140927   0.029   0.920   5.624
 8186WAT    HW240928   0.098   0.902   5.491
 8186WAT    LP140929   0.032   0.801   5.556
 8186WAT    LP240930  -0.036   0.881   5.510
 8187WAT     OW40931   0.232   5.752   3.647
 8187WAT    HW140932   0.183   5.752   3.564
 8187WAT    HW240933   0.181   5.809   3.704
 8187WAT    LP140934   0.235   5.687   3.673
 8187WAT    LP240935   0.296   5.777   3.637
 8188WAT     OW40936   0.673   4.381   0.702
 8188WAT    HW140937   0.662   4.290   0.676
 8188WAT    HW240938   0.766   4.400   0.685
 8188WAT    LP140939   0.632   4.423   0.663
 8188WAT    LP240940   0.658   4.390   0.770
 8189WAT     OW40941   1.444   2.164   4.472
 8189WAT    HW140942   1.443   2.087   4.416
 8189WAT    HW240943   1.358   2.165   4.515
 8189WAT    LP140944   1.495   2.159   4.520
 8189WAT    LP240945   1.453   2.222   4.434
 8190WAT     OW40946   3.022   4.207   1.605
 8190WAT    HW140947   3.077   4.259   1.665
 8190WAT    HW240948   3.055   4.118   1.614
 8190WAT    LP140949   2.955   4.211   1.624
 8190WAT    LP240950   3.029   4.230   1.539
 8191WAT     OW40951   6.535   5.218   0.008
 8191WAT    HW140952   6.588   5.164  -0.051
 8191WAT    HW240953   6.552   5.308  -0.020
 8191WAT    LP140954   6.467   5.202   0.002
 8191WAT    LP240955   6.556   5.209   0.075
 8192WAT     OW40956   1.611   2.651   1.827
 8192WAT    HW140957   1.540   2.590   1.847
 8192WAT    HW240958   1.680   2.596   1.791
 8192WAT    LP140959   1.591   2.699   1.781
 8192WAT    LP240960   1.634   2.683   1.886
 8193WAT     OW40961   3.435   0.369   3.121
 8193WAT    HW140962   3.437   0.384   3.026
 8193WAT    HW240963   3.485   0.442   3.157
 8193WAT    LP140964   3.369   0.370   3.145
 8193WAT    LP240965   3.465   0.308   3.137
 8194WAT     OW40966   4.302   0.121   5.786
 8194WAT    HW140967   4.309   0.205   5.741
 8194WAT    HW240968   4.364   0.064   5.741
 8194WAT    LP140969   4.320   0.128   5.854
 8194WAT    LP240970   4.237   0.096   5.782
 8195WAT     OW40971   3.288   0.747   5.540
 8195WAT    HW140972   3.375   0.769   5.507
 8195WAT    HW240973   3.301   0.738   5.635
 8195WAT    LP140974   3.243   0.798   5.526
 8195WAT    LP240975   3.265   0.687   5.512
 8196WAT     OW40976   4.804   0.112   1.105
 8196WAT    HW140977   4.766   0.192   1.142
 8196WAT    HW240978   4.863   0.144   1.037
 8196WAT    LP140979   4.839   0.076   1.153
 8196WAT    LP240980   4.754   0.072   1.077
 8197WAT     OW40981   5.538   4.694   5.360
 8197WAT    HW140982   5.550   4.756   5.287
 8197WAT    HW240983   5.532   4.750   5.438
 8197WAT    LP140984   5.480   4.657   5.351
 8197WAT    LP240985   5.594   4.651   5.364
 8198WAT     OW40986   5.392   5.914   2.215
 8198WAT    HW140987   5.443   5.861   2.153
 8198WAT    HW240988   5.306   5.923   2.172
 8198WAT    LP140989   5.385   5.881   2.276
 8198WAT    LP240990   5.422   5.976   2.224
 8199WAT     OW40991   4.451   2.431   5.298
 8199WAT    HW140992   4.501   2.386   5.365
 8199WAT    HW240993   4.456   2.523   5.321
 8199WAT    LP140994   4.478   2.420   5.234
 8199WAT    LP240995   4.384   2.409   5.298
 8200WAT     OW40996   5.018   3.484   6.470
 8200WAT    HW140997   5.015   3.565   6.521
 8200WAT    HW240998   4.972   3.420   6.523
 8200WAT    LP140999   4.986   3.493   6.408
 8200WAT    LP241000   5.085   3.465   6.459
 8201WAT     OW41001   1.748   2.264   2.449
 8201WAT    HW141002   1.797   2.246   2.368
 8201WAT    HW241003   1.815   2.262   2.518
 8201WAT    LP141004   1.717   2.326   2.446
 8201WAT    LP241005   1.700   2.214   2.460
 8202WAT     OW41006   5.404   4.296   2.060
 8202WAT    HW141007   5.452   4.325   1.983
 8202WAT    HW241008   5.459   4.228   2.098
 8202WAT    LP141009   5.395   4.349   2.105
 8202WAT    LP241010   5.341   4.270   2.042
 8203WAT     OW41011   3.339   6.401   4.942
 8203WAT    HW141012   3.402   6.333   4.917
 8203WAT    HW241013   3.373   6.481   4.900
 8203WAT    LP141014   3.275   6.385   4.917
 8203WAT    LP241015   3.336   6.408   5.011
 8204WAT     OW41016   0.404   2.801   3.070
 8204WAT    HW141017   0.368   2.826   2.985
 8204WAT    HW241018   0.456   2.723   3.052
 8204WAT    LP141019   0.444   2.852   3.096
 8204WAT    LP241020   0.353   2.787   3.115
 8205WAT     OW41021   3.772   1.492   4.636
 8205WAT    HW141022   3.754   1.519   4.546
 8205WAT    HW241023   3.760   1.397   4.634
 8205WAT    LP141024   3.837   1.508   4.654
 8205WAT    LP241025   3.726   1.521   4.680
 8206WAT     OW41026   5.689   2.079   1.906
 8206WAT    HW141027   5.606   2.079   1.954
 8206WAT    HW241028   5.692   2.164   1.863
 8206WAT    LP141029   5.743   2.071   1.950
 8206WAT    LP241030   5.690   2.027   1.858
 8207WAT     OW41031   1.854   3.745   0.591
 8207WAT    HW141032   1.790   3.757   0.521
 8207WAT    HW241033   1.834   3.814   0.654
 8207WAT    LP141034   1.846   3.682   0.621
 8207WAT    LP241035   1.919   3.752   0.567
 8208WAT     OW41036   6.024   2.188   4.427
 8208WAT    HW141037   5.972   2.237   4.363
 8208WAT    HW241038   5.984   2.208   4.511
 8208WAT    LP141039   6.021   2.119   4.414
 8208WAT    LP241040   6.091   2.209   4.425
 8209WAT     OW41041   5.498   3.302   0.461
 8209WAT    HW141042   5.430   3.368   0.474
 8209WAT    HW241043   5.570   3.331   0.517
 8209WAT    LP141044   5.476   3.239   0.480
 8209WAT    LP241045   5.519   3.301   0.394
 8210WAT     OW41046   1.792   5.192   1.508
 8210WAT    HW141047   1.774   5.103   1.537
 8210WAT    HW241048   1.776   5.191   1.414
 8210WAT    LP141049   1.749   5.238   1.540
 8210WAT    LP241050   1.858   5.210   1.522
 8211WAT     OW41051   6.586   5.759   5.678
 8211WAT    HW141052   6.515   5.733   5.737
 8211WAT    HW241053   6.655   5.790   5.737
 8211WAT    LP141054   6.608   5.705   5.640
 8211WAT    LP241055   6.565   5.811   5.636
 8212WAT     OW41056   3.797   3.584   2.695
 8212WAT    HW141057   3.782   3.661   2.749
 8212WAT    HW241058   3.715   3.535   2.699
 8212WAT    LP141059   3.812   3.603   2.629
 8212WAT    LP241060   3.850   3.546   2.720
 8213WAT     OW41061   1.675   2.723   3.425
 8213WAT    HW141062   1.672   2.810   3.464
 8213WAT    HW241063   1.691   2.664   3.499
 8213WAT    LP141064   1.615   2.707   3.394
 8213WAT    LP241065   1.727   2.719   3.379
 8214WAT     OW41066   0.945   4.376   3.183
 8214WAT    HW141067   0.860   4.414   3.160
 8214WAT    HW241068   0.927   4.283   3.198
 8214WAT    LP141069   0.991   4.384   3.130
 8214WAT    LP241070   0.971   4.406   3.241
 8215WAT     OW41071   5.612   6.080   4.343
 8215WAT    HW141072   5.534   6.045   4.300
 8215WAT    HW241073   5.578   6.145   4.404
 8215WAT    LP141074   5.646   6.030   4.377
 8215WAT    LP241075   5.655   6.110   4.296
 8216WAT     OW41076   4.896   5.370   0.777
 8216WAT    HW141077   4.923   5.400   0.690
 8216WAT    HW241078   4.833   5.300   0.760
 8216WAT    LP141079   4.951   5.345   0.812
 8216WAT    LP241080   4.867   5.422   0.813
 8217WAT     OW41081   2.363   3.710   3.747
 8217WAT    HW141082   2.395   3.766   3.676
 8217WAT    HW241083   2.442   3.677   3.789
 8217WAT    LP141084   2.324   3.747   3.792
 8217WAT    LP241085   2.325   3.658   3.721
 8218WAT     OW41086   5.352   2.195   6.580
 8218WAT    HW141087   5.363   2.144   6.500
 8218WAT    HW241088   5.357   2.131   6.650
 8218WAT    LP141089   5.403   2.243   6.586
 8218WAT    LP241090   5.290   2.227   6.580
 8219WAT     OW41091   2.416   4.105   1.682
 8219WAT    HW141092   2.349   4.081   1.618
 8219WAT    HW241093   2.466   4.025   1.697
 8219WAT    LP141094   2.458   4.155   1.657
 8219WAT    LP241095   2.386   4.127   1.742
 8220WAT     OW41096   1.125   6.232   0.903
 8220WAT    HW141097   1.198   6.237   0.842
 8220WAT    HW241098   1.112   6.323   0.932
 8220WAT    LP141099   1.068   6.208   0.872
 8220WAT    LP241100   1.141   6.191   0.958
 8221WAT     OW41101   3.847   5.168   5.423
 8221WAT    HW141102   3.831   5.200   5.512
 8221WAT    HW241103   3.828   5.244   5.366
 8221WAT    LP141104   3.913   5.148   5.415
 8221WAT    LP241105   3.804   5.115   5.408
 8222WAT     OW41106   2.612   3.602   3.418
 8222WAT    HW141107   2.529   3.623   3.376
 8222WAT    HW241108   2.678   3.637   3.359
 8222WAT    LP141109   2.617   3.631   3.481
 8222WAT    LP241110   2.619   3.532   3.424
 8223WAT     OW41111   6.620   1.148   4.657
 8223WAT    HW141112   6.643   1.223   4.602
 8223WAT    HW241113   6.701   1.099   4.667
 8223WAT    LP141114   6.595   1.169   4.719
 8223WAT    LP241115   6.571   1.109   4.625
 8224WAT     OW41116   2.267   5.695   5.263
 8224WAT    HW141117   2.239   5.756   5.194
 8224WAT    HW241118   2.192   5.636   5.274
 8224WAT    LP141119   2.324   5.660   5.244
 8224WAT    LP241120   2.279   5.730   5.323
 8225WAT     OW41121   3.392   4.292   5.019
 8225WAT    HW141122   3.403   4.212   5.069
 8225WAT    HW241123   3.468   4.296   4.961
 8225WAT    LP141124   3.333   4.290   4.982
 8225WAT    LP241125   3.391   4.348   5.061
 8226WAT     OW41126   0.779   2.907   2.178
 8226WAT    HW141127   0.800   2.956   2.257
 8226WAT    HW241128   0.850   2.844   2.169
 8226WAT    LP141129   0.717   2.875   2.184
 8226WAT    LP241130   0.777   2.950   2.122
 8227WAT     OW41131   1.169   2.238   6.570
 8227WAT    HW141132   1.115   2.286   6.632
 8227WAT    HW241133   1.115   2.164   6.543
 8227WAT    LP141134   1.185   2.278   6.515
 8227WAT    LP241135   1.228   2.216   6.600
 8228WAT     OW41136   4.152   6.633   0.254
 8228WAT    HW141137   4.146   6.595   0.166
 8228WAT    HW241138   4.136   6.559   0.313
 8228WAT    LP141139   4.216   6.660   0.264
 8228WAT    LP241140   4.103   6.682   0.262
 8229WAT     OW41141   3.788   1.945   2.855
 8229WAT    HW141142   3.715   2.006   2.840
 8229WAT    HW241143   3.845   1.957   2.779
 8229WAT    LP141144   3.821   1.961   2.914
 8229WAT    LP241145   3.764   1.879   2.858
 8230WAT     OW41146   6.055   6.354   4.640
 8230WAT    HW141147   6.057   6.303   4.721
 8230WAT    HW241148   6.123   6.314   4.586
 8230WAT    LP141149   5.993   6.349   4.609
 8230WAT    LP241150   6.070   6.421   4.653
 8231WAT     OW41151   3.440   1.479   1.426
 8231WAT    HW141152   3.534   1.464   1.413
 8231WAT    HW241153   3.412   1.526   1.348
 8231WAT    LP141154   3.406   1.418   1.432
 8231WAT    LP241155   3.429   1.518   1.483
 8232WAT     OW41156   2.969   2.008   4.944
 8232WAT    HW141157   3.042   2.010   5.005
 8232WAT    HW241158   2.895   2.041   4.994
 8232WAT    LP141159   2.982   2.049   4.888
 8232WAT    LP241160   2.957   1.942   4.922
 8233WAT     OW41161   0.094   5.535   2.998
 8233WAT    HW141162   0.013   5.583   3.009
 8233WAT    HW241163   0.125   5.520   3.088
 8233WAT    LP141164   0.083   5.474   2.966
 8233WAT    LP241165   0.141   5.572   2.962
 8234WAT     OW41166   4.174   5.659   3.460
 8234WAT    HW141167   4.084   5.669   3.491
 8234WAT    HW241168   4.170   5.681   3.367
 8234WAT    LP141169   4.217   5.703   3.494
 8234WAT    LP241170   4.196   5.593   3.469
 8235WAT     OW41171   5.529   6.242   5.559
 8235WAT    HW141172   5.435   6.225   5.562
 8235WAT    HW241173   5.540   6.326   5.603
 8235WAT    LP141174   5.564   6.191   5.594
 8235WAT    LP241175   5.552   6.245   5.493
 8236WAT     OW41176   4.050   1.719   1.831
 8236WAT    HW141177   4.118   1.783   1.809
 8236WAT    HW241178   3.968   1.767   1.821
 8236WAT    LP141179   4.053   1.664   1.788
 8236WAT    LP241180   4.058   1.697   1.897
 8237WAT     OW41181   1.787   6.677   3.759
 8237WAT    HW141182   1.879   6.668   3.784
 8237WAT    HW241183   1.768   6.597   3.710
 8237WAT    LP141184   1.747   6.681   3.817
 8237WAT    LP241185   1.777   6.733   3.720
 8238WAT     OW41186   5.150   6.059   6.568
 8238WAT    HW141187   5.066   6.092   6.537
 8238WAT    HW241188   5.209   6.072   6.493
 8238WAT    LP141189   5.173   6.096   6.623
 8238WAT    LP241190   5.146   5.991   6.585
 8239WAT     OW41191   2.078   3.026   4.008
 8239WAT    HW141192   2.064   3.118   4.030
 8239WAT    HW241193   2.167   3.023   3.972
 8239WAT    LP141194   2.073   2.986   4.065
 8239WAT    LP241195   2.032   3.004   3.960
 8240WAT     OW41196   0.111   3.301   1.174
 8240WAT    HW141197   0.078   3.292   1.084
 8240WAT    HW241198   0.205   3.313   1.164
 8240WAT    LP141199   0.082   3.357   1.205
 8240WAT    LP241200   0.097   3.243   1.211
 8241WAT     OW41201   1.569   4.110   4.120
 8241WAT    HW141202   1.601   4.200   4.120
 8241WAT    HW241203   1.479   4.117   4.152
 8241WAT    LP141204   1.571   4.082   4.056
 8241WAT    LP241205   1.607   4.070   4.164
 8242WAT     OW41206   0.257   0.487   6.398
 8242WAT    HW141207   0.234   0.400   6.430
 8242WAT    HW241208   0.290   0.533   6.475
 8242WAT    LP141209   0.306   0.483   6.348
 8242WAT    LP241210   0.200   0.519   6.372
 8243WAT     OW41211   1.680   1.583   6.110
 8243WAT    HW141212   1.728   1.637   6.047
 8243WAT    HW241213   1.679   1.636   6.190
 8243WAT    LP141214   1.615   1.570   6.088
 8243WAT    LP241215   1.714   1.523   6.121
 8244WAT     OW41216   5.727   2.862   0.910
 8244WAT    HW141217   5.662   2.898   0.850
 8244WAT    HW241218   5.678   2.801   0.965
 8244WAT    LP141219   5.777   2.828   0.875
 8244WAT    LP241220   5.756   2.912   0.949
 8245WAT     OW41221   6.196   0.271   4.011
 8245WAT    HW141222   6.205   0.279   3.916
 8245WAT    HW241223   6.154   0.352   4.039
 8245WAT    LP141224   6.157   0.215   4.027
 8245WAT    LP241225   6.259   0.264   4.040
 8246WAT     OW41226   2.266   3.350   0.881
 8246WAT    HW141227   2.221   3.279   0.925
 8246WAT    HW241228   2.301   3.311   0.801
 8246WAT    LP141229   2.221   3.402   0.865
 8246WAT    LP241230   2.318   3.375   0.921
 8247WAT     OW41231   0.996   5.834   3.775
 8247WAT    HW141232   1.007   5.855   3.682
 8247WAT    HW241233   1.085   5.823   3.808
 8247WAT    LP141234   0.963   5.887   3.808
 8247WAT    LP241235   0.959   5.776   3.783
 8248WAT     OW41236   4.125   3.327   6.177
 8248WAT    HW141237   4.035   3.354   6.198
 8248WAT    HW241238   4.115   3.247   6.126
 8248WAT    LP141239   4.157   3.377   6.138
 8248WAT    LP241240   4.161   3.316   6.235
 8249WAT     OW41241   6.624   0.189   3.487
 8249WAT    HW141242   6.539   0.225   3.462
 8249WAT    HW241243   6.676   0.194   3.407
 8249WAT    LP141244   6.654   0.228   3.537
 8249WAT    LP241245   6.618   0.123   3.509
 8250WAT     OW41246   1.379   3.865   0.054
 8250WAT    HW141247   1.346   3.910   0.132
 8250WAT    HW241248   1.333   3.781   0.054
 8250WAT    LP141249   1.364   3.901  -0.004
 8250WAT    LP241250   1.448   3.856   0.058
 8251WAT     OW41251   4.558   2.118   5.844
 8251WAT    HW141252   4.542   2.068   5.924
 8251WAT    HW241253   4.602   2.056   5.786
 8251WAT    LP141254   4.497   2.139   5.816
 8251WAT    LP241255   4.598   2.173   5.856
 8252WAT     OW41256   2.402   6.052   2.795
 8252WAT    HW141257   2.347   5.991   2.844
 8252WAT    HW241258   2.455   5.997   2.738
 8252WAT    LP141259   2.363   6.097   2.758
 8252WAT    LP241260   2.443   6.089   2.839
 8253WAT     OW41261   4.249   0.895   2.843
 8253WAT    HW141262   4.180   0.828   2.840
 8253WAT    HW241263   4.291   0.889   2.758
 8253WAT    LP141264   4.222   0.958   2.853
 8253WAT    LP241265   4.295   0.880   2.894
 8254WAT     OW41266   3.355   4.744   1.322
 8254WAT    HW141267   3.400   4.823   1.293
 8254WAT    HW241268   3.264   4.770   1.333
 8254WAT    LP141269   3.361   4.693   1.274
 8254WAT    LP241270   3.382   4.722   1.383
 8255WAT     OW41271   4.451   1.937   0.806
 8255WAT    HW141272   4.483   2.022   0.835
 8255WAT    HW241273   4.379   1.916   0.866
 8255WAT    LP141274   4.427   1.940   0.740
 8255WAT    LP241275   4.501   1.888   0.810
 8256WAT     OW41276   2.124   5.678   2.144
 8256WAT    HW141277   2.124   5.595   2.192
 8256WAT    HW241278   2.134   5.745   2.211
 8256WAT    LP141279   2.177   5.680   2.098
 8256WAT    LP241280   2.064   5.686   2.109
 8257WAT     OW41281   1.964   0.849   3.317
 8257WAT    HW141282   2.009   0.915   3.369
 8257WAT    HW241283   2.027   0.777   3.309
 8257WAT    LP141284   1.906   0.827   3.350
 8257WAT    LP241285   1.947   0.874   3.254
 8258WAT     OW41286   5.974   4.338   6.113
 8258WAT    HW141287   6.037   4.407   6.094
 8258WAT    HW241288   5.904   4.351   6.048
 8258WAT    LP141289   6.003   4.275   6.105
 8258WAT    LP241290   5.949   4.344   6.178
 8259WAT     OW41291   3.350   0.530   0.134
 8259WAT    HW141292   3.259   0.545   0.158
 8259WAT    HW241293   3.390   0.492   0.212
 8259WAT    LP141294   3.354   0.485   0.080
 8259WAT    LP241295   3.381   0.590   0.116
 8260WAT     OW41296   2.355   2.154   1.111
 8260WAT    HW141297   2.378   2.135   1.202
 8260WAT    HW241298   2.286   2.090   1.091
 8260WAT    LP141299   2.331   2.219   1.105
 8260WAT    LP241300   2.410   2.144   1.069
 8261WAT     OW41301   3.440   2.974   0.441
 8261WAT    HW141302   3.432   2.895   0.387
 8261WAT    HW241303   3.530   2.972   0.473
 8261WAT    LP141304   3.429   3.032   0.402
 8261WAT    LP241305   3.394   2.972   0.494
 8262WAT     OW41306   0.800   4.921   3.364
 8262WAT    HW141307   0.827   4.899   3.275
 8262WAT    HW241308   0.707   4.943   3.356
 8262WAT    LP141309   0.809   4.866   3.407
 8262WAT    LP241310   0.836   4.975   3.388
 8263WAT     OW41311   4.940   4.866   3.263
 8263WAT    HW141312   4.929   4.771   3.256
 8263WAT    HW241313   4.967   4.894   3.176
 8263WAT    LP141314   4.880   4.897   3.282
 8263WAT    LP241315   4.989   4.882   3.310
 8264WAT     OW41316   6.128   4.392   6.600
 8264WAT    HW141317   6.079   4.401   6.519
 8264WAT    HW241318   6.133   4.298   6.615
 8264WAT    LP141319   6.192   4.419   6.594
 8264WAT    LP241320   6.094   4.424   6.653
 8265WAT     OW41321   1.213   5.013   2.788
 8265WAT    HW141322   1.299   4.984   2.756
 8265WAT    HW241323   1.186   5.080   2.724
 8265WAT    LP141324   1.168   4.960   2.789
 8265WAT    LP241325   1.219   5.041   2.852
 8266WAT     OW41326   6.583   2.109   4.373
 8266WAT    HW141327   6.607   2.172   4.305
 8266WAT    HW241328   6.528   2.159   4.433
 8266WAT    LP141329   6.547   2.055   4.346
 8266WAT    LP241330   6.640   2.085   4.406
 8267WAT     OW41331   0.234   0.320   4.861
 8267WAT    HW141332   0.177   0.325   4.937
 8267WAT    HW241333   0.299   0.389   4.875
 8267WAT    LP141334   0.265   0.258   4.857
 8267WAT    LP241335   0.198   0.332   4.802
 8268WAT     OW41336   2.500   0.623   4.025
 8268WAT    HW141337   2.407   0.643   4.032
 8268WAT    HW241338   2.506   0.530   4.044
 8268WAT    LP141339   2.523   0.637   3.960
 8268WAT    LP241340   2.537   0.661   4.071
 8269WAT     OW41341   4.646   1.149   5.056
 8269WAT    HW141342   4.632   1.160   5.150
 8269WAT    HW241343   4.647   1.054   5.043
 8269WAT    LP141344   4.594   1.179   5.020
 8269WAT    LP241345   4.708   1.177   5.037
 8270WAT     OW41346   6.730   3.562   3.274
 8270WAT    HW141347   6.798   3.606   3.224
 8270WAT    HW241348   6.778   3.512   3.341
 8270WAT    LP141349   6.687   3.608   3.304
 8270WAT    LP241350   6.694   3.519   3.233
 8271WAT     OW41351   0.904   2.931   5.903
 8271WAT    HW141352   0.815   2.966   5.890
 8271WAT    HW241353   0.916   2.869   5.832
 8271WAT    LP141354   0.951   2.983   5.899
 8271WAT    LP241355   0.909   2.899   5.965
 8272WAT     OW41356   2.404   3.400   0.435
 8272WAT    HW141357   2.492   3.418   0.404
 8272WAT    HW241358   2.359   3.485   0.430
 8272WAT    LP141359   2.372   3.353   0.395
 8272WAT    LP241360   2.405   3.377   0.501
 8273WAT     OW41361   0.445   5.742   5.690
 8273WAT    HW141362   0.533   5.777   5.680
 8273WAT    HW241363   0.403   5.757   5.606
 8273WAT    LP141364   0.447   5.673   5.705
 8273WAT    LP241365   0.411   5.775   5.741
 8274WAT     OW41366   2.625   2.321   1.985
 8274WAT    HW141367   2.567   2.372   2.041
 8274WAT    HW241368   2.694   2.289   2.043
 8274WAT    LP141369   2.590   2.267   1.956
 8274WAT    LP241370   2.652   2.361   1.934
 8275WAT     OW41371   5.527   0.242   1.893
 8275WAT    HW141372   5.519   0.291   1.811
 8275WAT    HW241373   5.583   0.167   1.870
 8275WAT    LP141374   5.557   0.281   1.942
 8275WAT    LP241375   5.465   0.220   1.915
 8276WAT     OW41376   3.861   3.066   0.131
 8276WAT    HW141377   3.864   3.116   0.212
 8276WAT    HW241378   3.777   3.020   0.134
 8276WAT    LP141379   3.863   3.109   0.075
 8276WAT    LP241380   3.914   3.021   0.127
 8277WAT     OW41381   3.413   2.861   2.361
 8277WAT    HW141382   3.428   2.915   2.283
 8277WAT    HW241383   3.499   2.853   2.401
 8277WAT    LP141384   3.368   2.893   2.404
 8277WAT    LP241385   3.388   2.798   2.343
 8278WAT     OW41386   3.892   2.101   3.058
 8278WAT    HW141387   3.891   2.175   2.997
 8278WAT    HW241388   3.863   2.026   3.006
 8278WAT    LP141389   3.957   2.090   3.083
 8278WAT    LP241390   3.848   2.113   3.112
 8279WAT     OW41391   3.401   3.657   4.975
 8279WAT    HW141392   3.474   3.668   5.035
 8279WAT    HW241393   3.373   3.566   4.987
 8279WAT    LP141394   3.349   3.701   4.991
 8279WAT    LP241395   3.421   3.667   4.909
 8280WAT     OW41396   3.928   3.813   4.651
 8280WAT    HW141397   3.843   3.795   4.692
 8280WAT    HW241398   3.968   3.727   4.640
 8280WAT    LP141399   3.919   3.845   4.590
 8280WAT    LP241400   3.967   3.853   4.693
 8281WAT     OW41401   1.747   5.712   6.325
 8281WAT    HW141402   1.800   5.646   6.281
 8281WAT    HW241403   1.746   5.685   6.417
 8281WAT    LP141404   1.776   5.776   6.318
 8281WAT    LP241405   1.682   5.713   6.300
 8282WAT     OW41406   0.043   0.304   0.016
 8282WAT    HW141407   0.118   0.280  -0.039
 8282WAT    HW241408   0.052   0.247   0.093
 8282WAT    LP141409   0.047   0.371   0.034
 8282WAT    LP241410  -0.017   0.291  -0.017
 8283WAT     OW41411   3.258   1.600   3.430
 8283WAT    HW141412   3.349   1.622   3.449
 8283WAT    HW241413   3.223   1.678   3.387
 8283WAT    LP141414   3.254   1.544   3.388
 8283WAT    LP241415   3.223   1.587   3.490
 8284WAT     OW41416   3.642   1.036   0.903
 8284WAT    HW141417   3.585   1.092   0.955
 8284WAT    HW241418   3.616   1.052   0.812
 8284WAT    LP141419   3.710   1.053   0.913
 8284WAT    LP241420   3.633   0.968   0.920
 8285WAT     OW41421   1.993   6.286   6.419
 8285WAT    HW141422   1.967   6.197   6.445
 8285WAT    HW241423   2.088   6.285   6.421
 8285WAT    LP141424   1.969   6.300   6.355
 8285WAT    LP241425   1.967   6.333   6.464
 8286WAT     OW41426   3.089   1.695   2.026
 8286WAT    HW141427   3.127   1.774   2.065
 8286WAT    HW241428   3.055   1.645   2.101
 8286WAT    LP141429   3.036   1.713   1.983
 8286WAT    LP241430   3.137   1.659   1.992
 8287WAT     OW41431   1.668   0.590   6.401
 8287WAT    HW141432   1.639   0.671   6.444
 8287WAT    HW241433   1.663   0.610   6.308
 8287WAT    LP141434   1.734   0.575   6.420
 8287WAT    LP241435   1.626   0.537   6.418
 8288WAT     OW41436   5.758   2.447   3.100
 8288WAT    HW141437   5.741   2.372   3.157
 8288WAT    HW241438   5.676   2.496   3.100
 8288WAT    LP141439   5.810   2.486   3.126
 8288WAT    LP241440   5.774   2.426   3.036
 8289WAT     OW41441   4.938   4.881   4.165
 8289WAT    HW141442   4.857   4.835   4.143
 8289WAT    HW241443   5.006   4.837   4.114
 8289WAT    LP141444   4.934   4.949   4.147
 8289WAT    LP241445   4.952   4.876   4.233
 8290WAT     OW41446   5.114   4.238   1.383
 8290WAT    HW141447   5.018   4.239   1.379
 8290WAT    HW241448   5.140   4.324   1.350
 8290WAT    LP141449   5.135   4.229   1.450
 8290WAT    LP241450   5.140   4.187   1.344
 8291WAT     OW41451   2.919   0.603   5.387
 8291WAT    HW141452   2.937   0.635   5.298
 8291WAT    HW241453   2.845   0.543   5.376
 8291WAT    LP141454   2.974   0.569   5.413
 8291WAT    LP241455   2.902   0.656   5.429
 8292WAT     OW41456   1.767   0.282   4.076
 8292WAT    HW141457   1.756   0.292   4.171
 8292WAT    HW241458   1.715   0.205   4.054
 8292WAT    LP141459   1.743   0.339   4.043
 8292WAT    LP241460   1.834   0.272   4.060
 8293WAT     OW41461   4.191   2.360   6.394
 8293WAT    HW141462   4.270   2.349   6.342
 8293WAT    HW241463   4.124   2.311   6.345
 8293WAT    LP141464   4.199   2.332   6.458
 8293WAT    LP241465   4.173   2.427   6.399
 8294WAT     OW41466   3.603   5.384   4.286
 8294WAT    HW141467   3.530   5.440   4.259
 8294WAT    HW241468   3.564   5.324   4.350
 8294WAT    LP141469   3.628   5.349   4.231
 8294WAT    LP241470   3.654   5.422   4.315
 8295WAT     OW41471   6.038   5.035   5.727
 8295WAT    HW141472   6.048   5.022   5.821
 8295WAT    HW241473   5.959   5.089   5.719
 8295WAT    LP141474   6.093   5.067   5.700
 8295WAT    LP241475   6.028   4.973   5.695
 8296WAT     OW41476   0.886   5.979   4.854
 8296WAT    HW141477   0.796   6.011   4.864
 8296WAT    HW241478   0.878   5.903   4.796
 8296WAT    LP141479   0.927   6.028   4.825
 8296WAT    LP241480   0.912   5.960   4.916
 8297WAT     OW41481   2.333   5.781   2.553
 8297WAT    HW141482   2.410   5.829   2.584
 8297WAT    HW241483   2.311   5.722   2.625
 8297WAT    LP141484   2.280   5.824   2.539
 8297WAT    LP241485   2.349   5.744   2.495
 8298WAT     OW41486   2.428   5.126   4.632
 8298WAT    HW141487   2.367   5.129   4.559
 8298WAT    HW241488   2.505   5.173   4.601
 8298WAT    LP141489   2.401   5.158   4.688
 8298WAT    LP241490   2.444   5.060   4.648
 8299WAT     OW41491   0.321   4.900   1.556
 8299WAT    HW141492   0.410   4.886   1.586
 8299WAT    HW241493   0.323   4.984   1.510
 8299WAT    LP141494   0.300   4.849   1.513
 8299WAT    LP241495   0.277   4.903   1.611
 8300WAT     OW41496   5.833   1.770   3.576
 8300WAT    HW141497   5.761   1.741   3.632
 8300WAT    HW241498   5.862   1.689   3.532
 8300WAT    LP141499   5.811   1.816   3.529
 8300WAT    LP241500   5.885   1.797   3.613
 8301WAT     OW41501   3.706   0.365   0.020
 8301WAT    HW141502   3.666   0.313   0.090
 8301WAT    HW241503   3.670   0.328  -0.060
 8301WAT    LP141504   3.688   0.433   0.026
 8301WAT    LP241505   3.776   0.359   0.021
 8302WAT     OW41506   5.660   3.227   6.424
 8302WAT    HW141507   5.569   3.213   6.395
 8302WAT    HW241508   5.680   3.316   6.394
 8302WAT    LP141509   5.665   3.223   6.493
 8302WAT    LP241510   5.703   3.181   6.394
 8303WAT     OW41511   6.178   2.732   5.799
 8303WAT    HW141512   6.132   2.707   5.719
 8303WAT    HW241513   6.165   2.827   5.806
 8303WAT    LP141514   6.150   2.699   5.855
 8303WAT    LP241515   6.246   2.717   5.795
 8304WAT     OW41516   3.320   4.686   4.373
 8304WAT    HW141517   3.234   4.725   4.392
 8304WAT    HW241518   3.341   4.635   4.451
 8304WAT    LP141519   3.316   4.645   4.316
 8304WAT    LP241520   3.368   4.736   4.362
 8305WAT     OW41521   1.656   1.396   5.805
 8305WAT    HW141522   1.742   1.432   5.826
 8305WAT    HW241523   1.598   1.472   5.801
 8305WAT    LP141524   1.657   1.362   5.744
 8305WAT    LP241525   1.634   1.352   5.856
 8306WAT     OW41526   1.532   2.812   1.622
 8306WAT    HW141527   1.559   2.767   1.702
 8306WAT    HW241528   1.587   2.890   1.619
 8306WAT    LP141529   1.543   2.772   1.566
 8306WAT    LP241530   1.464   2.830   1.625
 8307WAT     OW41531   1.343   3.635   6.442
 8307WAT    HW141532   1.329   3.547   6.405
 8307WAT    HW241533   1.337   3.622   6.536
 8307WAT    LP141534   1.406   3.659   6.424
 8307WAT    LP241535   1.294   3.679   6.419
 8308WAT     OW41536   3.216   1.896   1.818
 8308WAT    HW141537   3.202   1.969   1.878
 8308WAT    HW241538   3.286   1.845   1.860
 8308WAT    LP141539   3.158   1.857   1.812
 8308WAT    LP241540   3.236   1.918   1.755
 8309WAT     OW41541   1.637   3.817   0.003
 8309WAT    HW141542   1.546   3.835   0.025
 8309WAT    HW241543   1.688   3.873   0.063
 8309WAT    LP141544   1.652   3.750   0.014
 8309WAT    LP241545   1.651   3.834  -0.063
 8310WAT     OW41546   0.462   1.751   3.386
 8310WAT    HW141547   0.386   1.799   3.420
 8310WAT    HW241548   0.501   1.811   3.322
 8310WAT    LP141549   0.507   1.737   3.437
 8310WAT    LP241550   0.442   1.692   3.354
 8311WAT     OW41551   0.422   1.146   4.366
 8311WAT    HW141552   0.459   1.094   4.437
 8311WAT    HW241553   0.468   1.116   4.288
 8311WAT    LP141554   0.353   1.135   4.361
 8311WAT    LP241555   0.434   1.214   4.377
 8312WAT     OW41556   1.671   1.267   2.153
 8312WAT    HW141557   1.754   1.285   2.109
 8312WAT    HW241558   1.687   1.290   2.245
 8312WAT    LP141559   1.619   1.306   2.127
 8312WAT    LP241560   1.654   1.199   2.148
 8313WAT     OW41561   1.133   4.330   4.122
 8313WAT    HW141562   1.178   4.393   4.179
 8313WAT    HW241563   1.046   4.321   4.160
 8313WAT    LP141564   1.129   4.355   4.056
 8313WAT    LP241565   1.167   4.269   4.121
 8314WAT     OW41566   6.630   4.976   3.755
 8314WAT    HW141567   6.724   4.996   3.755
 8314WAT    HW241568   6.627   4.881   3.745
 8314WAT    LP141569   6.600   4.995   3.815
 8314WAT    LP241570   6.598   5.007   3.702
 8315WAT     OW41571   1.655   0.972   1.527
 8315WAT    HW141572   1.573   0.996   1.485
 8315WAT    HW241573   1.663   1.033   1.600
 8315WAT    LP141574   1.652   0.906   1.551
 8315WAT    LP241575   1.709   0.979   1.483
 8316WAT     OW41576   1.876   2.680   2.188
 8316WAT    HW141577   1.824   2.604   2.164
 8316WAT    HW241578   1.815   2.738   2.234
 8316WAT    LP141579   1.929   2.662   2.230
 8316WAT    LP241580   1.902   2.712   2.131
 8317WAT     OW41581   3.144   4.217   4.243
 8317WAT    HW141582   3.088   4.266   4.182
 8317WAT    HW241583   3.107   4.234   4.329
 8317WAT    LP141584   3.142   4.149   4.228
 8317WAT    LP241585   3.210   4.240   4.239
 8318WAT     OW41586   4.353   1.411   3.719
 8318WAT    HW141587   4.426   1.435   3.777
 8318WAT    HW241588   4.300   1.351   3.771
 8318WAT    LP141589   4.316   1.467   3.700
 8318WAT    LP241590   4.377   1.379   3.661
 8319WAT     OW41591   6.755   0.567   4.680
 8319WAT    HW141592   6.709   0.624   4.620
 8319WAT    HW241593   6.687   0.519   4.726
 8319WAT    LP141594   6.797   0.523   4.646
 8319WAT    LP241595   6.793   0.605   4.726
 8320WAT     OW41596   3.308   6.262   1.798
 8320WAT    HW141597   3.365   6.275   1.873
 8320WAT    HW241598   3.220   6.258   1.835
 8320WAT    LP141599   3.313   6.316   1.753
 8320WAT    LP241600   3.323   6.203   1.764
 8321WAT     OW41601   1.354   1.603   0.129
 8321WAT    HW141602   1.305   1.540   0.077
 8321WAT    HW241603   1.413   1.550   0.183
 8321WAT    LP141604   1.391   1.646   0.088
 8321WAT    LP241605   1.311   1.641   0.170
 8322WAT     OW41606   2.721   3.527   0.857
 8322WAT    HW141607   2.777   3.487   0.789
 8322WAT    HW241608   2.711   3.618   0.828
 8322WAT    LP141609   2.659   3.495   0.860
 8322WAT    LP241610   2.753   3.524   0.919
 8323WAT     OW41611   5.600   2.107   5.864
 8323WAT    HW141612   5.662   2.176   5.841
 8323WAT    HW241613   5.655   2.032   5.886
 8323WAT    LP141614   5.561   2.126   5.919
 8323WAT    LP241615   5.559   2.092   5.809
 8324WAT     OW41616   3.381   2.336   1.057
 8324WAT    HW141617   3.439   2.331   0.981
 8324WAT    HW241618   3.322   2.408   1.037
 8324WAT    LP141619   3.345   2.276   1.065
 8324WAT    LP241620   3.417   2.349   1.115
 8325WAT     OW41621   1.763   3.504   5.464
 8325WAT    HW141622   1.725   3.571   5.521
 8325WAT    HW241623   1.809   3.445   5.524
 8325WAT    LP141624   1.713   3.470   5.429
 8325WAT    LP241625   1.808   3.533   5.419
 8326WAT     OW41626   2.007   3.132   2.636
 8326WAT    HW141627   2.081   3.188   2.662
 8326WAT    HW241628   1.972   3.174   2.557
 8326WAT    LP141629   2.029   3.067   2.623
 8326WAT    LP241630   1.959   3.131   2.687
 8327WAT     OW41631   4.203   5.529   1.612
 8327WAT    HW141632   4.147   5.457   1.581
 8327WAT    HW241633   4.183   5.537   1.705
 8327WAT    LP141634   4.271   5.513   1.602
 8327WAT    LP241635   4.189   5.588   1.578
 8328WAT     OW41636   1.865   3.377   5.914
 8328WAT    HW141637   1.888   3.312   5.980
 8328WAT    HW241638   1.769   3.379   5.916
 8328WAT    LP141639   1.892   3.439   5.930
 8328WAT    LP241640   1.888   3.357   5.851
 8329WAT     OW41641   0.280   1.044   6.452
 8329WAT    HW141642   0.254   1.131   6.421
 8329WAT    HW241643   0.347   1.016   6.391
 8329WAT    LP141644   0.306   1.048   6.517
 8329WAT    LP241645   0.225   1.000   6.452
 8330WAT     OW41646   4.995   2.929   4.421
 8330WAT    HW141647   4.987   3.019   4.389
 8330WAT    HW241648   5.083   2.924   4.458
 8330WAT    LP141649   4.947   2.916   4.470
 8330WAT    LP241650   4.988   2.883   4.369
 8331WAT     OW41651   0.309   0.253   5.585
 8331WAT    HW141652   0.317   0.230   5.678
 8331WAT    HW241653   0.394   0.231   5.547
 8331WAT    LP141654   0.257   0.217   5.555
 8331WAT    LP241655   0.296   0.322   5.578
 8332WAT     OW41656   3.543   0.340   2.373
 8332WAT    HW141657   3.623   0.292   2.395
 8332WAT    HW241658   3.556   0.426   2.413
 8332WAT    LP141659   3.536   0.345   2.304
 8332WAT    LP241660   3.487   0.308   2.400
 8333WAT     OW41661   6.555   5.104   6.041
 8333WAT    HW141662   6.561   5.009   6.051
 8333WAT    HW241663   6.575   5.120   5.949
 8333WAT    LP141664   6.491   5.127   6.057
 8333WAT    LP241665   6.602   5.136   6.082
 8334WAT     OW41666   4.358   1.829   3.776
 8334WAT    HW141667   4.294   1.762   3.753
 8334WAT    HW241668   4.414   1.836   3.698
 8334WAT    LP141669   4.327   1.890   3.789
 8334WAT    LP241670   4.396   1.810   3.832
 8335WAT     OW41671   3.754   4.308   0.644
 8335WAT    HW141672   3.786   4.319   0.554
 8335WAT    HW241673   3.691   4.236   0.638
 8335WAT    LP141674   3.806   4.291   0.687
 8335WAT    LP241675   3.722   4.366   0.666
 8336WAT     OW41676   5.382   1.137   5.015
 8336WAT    HW141677   5.440   1.087   4.958
 8336WAT    HW241678   5.335   1.196   4.956
 8336WAT    LP141679   5.337   1.094   5.048
 8336WAT    LP241680   5.419   1.173   5.062
 8337WAT     OW41681   2.567   2.053   4.912
 8337WAT    HW141682   2.484   2.101   4.903
 8337WAT    HW241683   2.541   1.963   4.931
 8337WAT    LP141684   2.604   2.056   4.852
 8337WAT    LP241685   2.605   2.080   4.964
 8338WAT     OW41686   1.857   5.115   6.046
 8338WAT    HW141687   1.791   5.064   6.095
 8338WAT    HW241688   1.939   5.070   6.064
 8338WAT    LP141689   1.842   5.114   5.978
 8338WAT    LP241690   1.859   5.181   6.069
 8339WAT     OW41691   3.461   5.235   4.458
 8339WAT    HW141692   3.462   5.144   4.489
 8339WAT    HW241693   3.374   5.246   4.420
 8339WAT    LP141694   3.470   5.279   4.512
 8339WAT    LP241695   3.510   5.245   4.410
 8340WAT     OW41696   1.935   5.269   4.667
 8340WAT    HW141697   1.916   5.236   4.579
 8340WAT    HW241698   1.977   5.354   4.652
 8340WAT    LP141699   1.876   5.277   4.704
 8340WAT    LP241700   1.979   5.226   4.701
 8341WAT     OW41701   0.516   4.084   5.338
 8341WAT    HW141702   0.456   4.055   5.407
 8341WAT    HW241703   0.468   4.152   5.291
 8341WAT    LP141704   0.575   4.110   5.366
 8341WAT    LP241705   0.532   4.031   5.295
 8342WAT     OW41706   3.678   1.227   4.543
 8342WAT    HW141707   3.659   1.135   4.563
 8342WAT    HW241708   3.593   1.271   4.549
 8342WAT    LP141709   3.723   1.254   4.589
 8342WAT    LP241710   3.704   1.233   4.478
 8343WAT     OW41711   5.177   5.723   0.879
 8343WAT    HW141712   5.151   5.697   0.791
 8343WAT    HW241713   5.102   5.701   0.935
 8343WAT    LP141714   5.234   5.688   0.900
 8343WAT    LP241715   5.190   5.792   0.882
 8344WAT     OW41716   3.324   4.045   3.198
 8344WAT    HW141717   3.300   3.964   3.154
 8344WAT    HW241718   3.339   4.020   3.289
 8344WAT    LP141719   3.382   4.073   3.170
 8344WAT    LP241720   3.272   4.092   3.193
 8345WAT     OW41721   6.500   0.918   6.489
 8345WAT    HW141722   6.439   0.958   6.427
 8345WAT    HW241723   6.544   0.850   6.439
 8345WAT    LP141724   6.546   0.965   6.512
 8345WAT    LP241725   6.465   0.891   6.543
 8346WAT     OW41726   6.062   6.529   2.108
 8346WAT    HW141727   6.019   6.468   2.168
 8346WAT    HW241728   6.096   6.599   2.165
 8346WAT    LP141729   6.115   6.497   2.074
 8346WAT    LP241730   6.017   6.555   2.062
 8347WAT     OW41731   5.011   4.660   0.232
 8347WAT    HW141732   4.943   4.687   0.294
 8347WAT    HW241733   5.036   4.572   0.261
 8347WAT    LP141734   4.987   4.658   0.167
 8347WAT    LP241735   5.066   4.703   0.235
 8348WAT     OW41736   0.458   0.748   3.803
 8348WAT    HW141737   0.426   0.728   3.891
 8348WAT    HW241738   0.384   0.726   3.745
 8348WAT    LP141739   0.474   0.815   3.797
 8348WAT    LP241740   0.514   0.708   3.788
 8349WAT     OW41741   0.613   5.624   1.081
 8349WAT    HW141742   0.610   5.529   1.073
 8349WAT    HW241743   0.550   5.645   1.150
 8349WAT    LP141744   0.678   5.645   1.099
 8349WAT    LP241745   0.595   5.654   1.020
 8350WAT     OW41746   1.730   2.281   1.706
 8350WAT    HW141747   1.703   2.250   1.793
 8350WAT    HW241748   1.648   2.306   1.664
 8350WAT    LP141749   1.773   2.335   1.711
 8350WAT    LP241750   1.761   2.229   1.670
 8351WAT     OW41751   2.151   0.659   0.361
 8351WAT    HW141752   2.076   0.599   0.353
 8351WAT    HW241753   2.112   0.741   0.392
 8351WAT    LP141754   2.196   0.634   0.408
 8351WAT    LP241755   2.183   0.667   0.300
 8352WAT     OW41756   6.794   4.051   0.306
 8352WAT    HW141757   6.827   4.053   0.217
 8352WAT    HW241758   6.866   4.014   0.358
 8352WAT    LP141759   6.778   4.115   0.328
 8352WAT    LP241760   6.737   4.010   0.311
 8353WAT     OW41761   4.981   4.654   2.480
 8353WAT    HW141762   4.894   4.615   2.472
 8353WAT    HW241763   4.987   4.714   2.406
 8353WAT    LP141764   4.987   4.689   2.540
 8353WAT    LP241765   5.031   4.605   2.476
 8354WAT     OW41766   6.379   5.748   3.870
 8354WAT    HW141767   6.328   5.744   3.952
 8354WAT    HW241768   6.335   5.814   3.817
 8354WAT    LP141769   6.445   5.767   3.883
 8354WAT    LP241770   6.378   5.686   3.838
 8355WAT     OW41771   2.197   2.466   1.358
 8355WAT    HW141772   2.272   2.426   1.401
 8355WAT    HW241773   2.198   2.430   1.269
 8355WAT    LP141774   2.137   2.449   1.390
 8355WAT    LP241775   2.203   2.536   1.356
 8356WAT     OW41776   1.916   4.873   5.674
 8356WAT    HW141777   1.877   4.923   5.602
 8356WAT    HW241778   1.945   4.791   5.633
 8356WAT    LP141779   1.971   4.908   5.701
 8356WAT    LP241780   1.869   4.860   5.724
 8357WAT     OW41781   2.374   6.534   5.510
 8357WAT    HW141782   2.441   6.547   5.443
 8357WAT    HW241783   2.414   6.566   5.591
 8357WAT    LP141784   2.317   6.571   5.495
 8357WAT    LP241785   2.358   6.466   5.516
 8358WAT     OW41786   6.647   2.320   2.256
 8358WAT    HW141787   6.650   2.246   2.196
 8358WAT    HW241788   6.736   2.329   2.289
 8358WAT    LP141789   6.628   2.378   2.221
 8358WAT    LP241790   6.602   2.309   2.308
 8359WAT     OW41791   5.059   6.430   5.096
 8359WAT    HW141792   5.093   6.419   5.185
 8359WAT    HW241793   5.137   6.432   5.041
 8359WAT    LP141794   5.018   6.376   5.078
 8359WAT    LP241795   5.023   6.490   5.090
 8360WAT     OW41796   0.968   0.531   2.448
 8360WAT    HW141797   0.971   0.455   2.506
 8360WAT    HW241798   0.909   0.593   2.492
 8360WAT    LP141799   1.032   0.559   2.441
 8360WAT    LP241800   0.943   0.513   2.385
 8361WAT     OW41801   3.684   3.491   4.877
 8361WAT    HW141802   3.779   3.496   4.862
 8361WAT    HW241803   3.676   3.442   4.959
 8361WAT    LP141804   3.657   3.555   4.885
 8361WAT    LP241805   3.652   3.458   4.825
 8362WAT     OW41806   1.673   2.972   3.072
 8362WAT    HW141807   1.765   2.972   3.045
 8362WAT    HW241808   1.675   2.988   3.166
 8362WAT    LP141809   1.638   3.022   3.039
 8362WAT    LP241810   1.644   2.909   3.058
 8363WAT     OW41811   3.346   6.412   1.563
 8363WAT    HW141812   3.441   6.422   1.561
 8363WAT    HW241813   3.328   6.376   1.650
 8363WAT    LP141814   3.314   6.474   1.554
 8363WAT    LP241815   3.324   6.367   1.513
 8364WAT     OW41816   1.282   6.064   3.825
 8364WAT    HW141817   1.263   5.974   3.848
 8364WAT    HW241818   1.219   6.086   3.756
 8364WAT    LP141819   1.274   6.107   3.880
 8364WAT    LP241820   1.348   6.070   3.800
 8365WAT     OW41821   2.483   1.236   5.545
 8365WAT    HW141822   2.539   1.234   5.622
 8365WAT    HW241823   2.515   1.163   5.491
 8365WAT    LP141824   2.416   1.226   5.562
 8365WAT    LP241825   2.490   1.297   5.511
 8366WAT     OW41826   6.329   6.115   6.537
 8366WAT    HW141827   6.238   6.108   6.566
 8366WAT    HW241828   6.339   6.047   6.470
 8366WAT    LP141829   6.342   6.178   6.509
 8366WAT    LP241830   6.373   6.104   6.590
 8367WAT     OW41831   2.329   2.553   1.650
 8367WAT    HW141832   2.393   2.586   1.713
 8367WAT    HW241833   2.382   2.513   1.581
 8367WAT    LP141834   2.287   2.505   1.680
 8367WAT    LP241835   2.290   2.605   1.624
 8368WAT     OW41836   0.079   0.708   4.895
 8368WAT    HW141837   0.057   0.651   4.821
 8368WAT    HW241838   0.149   0.764   4.862
 8368WAT    LP141839   0.024   0.746   4.915
 8368WAT    LP241840   0.102   0.670   4.950
 8369WAT     OW41841   0.748   1.260   5.647
 8369WAT    HW141842   0.812   1.256   5.577
 8369WAT    HW241843   0.715   1.350   5.646
 8369WAT    LP141844   0.695   1.214   5.636
 8369WAT    LP241845   0.778   1.245   5.709
 8370WAT     OW41846   3.186   3.832   6.193
 8370WAT    HW141847   3.146   3.785   6.266
 8370WAT    HW241848   3.122   3.900   6.171
 8370WAT    LP141849   3.246   3.861   6.212
 8370WAT    LP241850   3.196   3.790   6.138
 8371WAT     OW41851   4.482   1.173   2.232
 8371WAT    HW141852   4.488   1.170   2.137
 8371WAT    HW241853   4.530   1.253   2.257
 8371WAT    LP141854   4.416   1.177   2.253
 8371WAT    LP241855   4.512   1.117   2.261
 8372WAT     OW41856   3.920   5.773   4.293
 8372WAT    HW141857   3.846   5.805   4.241
 8372WAT    HW241858   3.886   5.695   4.337
 8372WAT    LP141859   3.974   5.758   4.253
 8372WAT    LP241860   3.939   5.821   4.341
 8373WAT     OW41861   0.727   4.486   5.653
 8373WAT    HW141862   0.803   4.453   5.605
 8373WAT    HW241863   0.670   4.410   5.664
 8373WAT    LP141864   0.747   4.511   5.715
 8373WAT    LP241865   0.695   4.536   5.617
 8374WAT     OW41866   2.779   0.819   1.797
 8374WAT    HW141867   2.711   0.771   1.844
 8374WAT    HW241868   2.802   0.762   1.724
 8374WAT    LP141869   2.755   0.880   1.774
 8374WAT    LP241870   2.835   0.830   1.838
 8375WAT     OW41871   0.712   0.451   4.931
 8375WAT    HW141872   0.753   0.531   4.964
 8375WAT    HW241873   0.710   0.392   5.007
 8375WAT    LP141874   0.648   0.464   4.908
 8375WAT    LP241875   0.751   0.423   4.880
 8376WAT     OW41876   5.133   4.262   6.631
 8376WAT    HW141877   5.169   4.344   6.598
 8376WAT    HW241878   5.199   4.229   6.692
 8376WAT    LP141879   5.072   4.273   6.664
 8376WAT    LP241880   5.123   4.216   6.579
 8377WAT     OW41881   0.903   1.722   6.040
 8377WAT    HW141882   0.894   1.806   5.994
 8377WAT    HW241883   0.885   1.656   5.974
 8377WAT    LP141884   0.968   1.715   6.065
 8377WAT    LP241885   0.857   1.718   6.093
 8378WAT     OW41886   5.152   3.889   2.589
 8378WAT    HW141887   5.244   3.899   2.564
 8378WAT    HW241888   5.111   3.851   2.511
 8378WAT    LP141889   5.146   3.846   2.643
 8378WAT    LP241890   5.124   3.951   2.604
 8379WAT     OW41891   2.263   0.404   3.233
 8379WAT    HW141892   2.249   0.410   3.139
 8379WAT    HW241893   2.224   0.320   3.257
 8379WAT    LP141894   2.332   0.404   3.248
 8379WAT    LP241895   2.232   0.457   3.266
 8380WAT     OW41896   2.685   6.521   6.322
 8380WAT    HW141897   2.729   6.569   6.392
 8380WAT    HW241898   2.744   6.448   6.302
 8380WAT    LP141899   2.623   6.497   6.344
 8380WAT    LP241900   2.676   6.561   6.266
 8381WAT     OW41901   3.746   1.099   2.856
 8381WAT    HW141902   3.817   1.129   2.799
 8381WAT    HW241903   3.771   1.009   2.879
 8381WAT    LP141904   3.741   1.139   2.913
 8381WAT    LP241905   3.685   1.099   2.821
 8382WAT     OW41906   4.671   3.905   2.418
 8382WAT    HW141907   4.714   3.984   2.452
 8382WAT    HW241908   4.713   3.833   2.465
 8382WAT    LP141909   4.602   3.907   2.432
 8382WAT    LP241910   4.681   3.899   2.349
 8383WAT     OW41911   1.179   0.623   3.751
 8383WAT    HW141912   1.203   0.530   3.747
 8383WAT    HW241913   1.108   0.627   3.815
 8383WAT    LP141914   1.233   0.662   3.772
 8383WAT    LP241915   1.157   0.645   3.688
 8384WAT     OW41916   1.936   3.908   4.851
 8384WAT    HW141917   1.856   3.881   4.806
 8384WAT    HW241918   1.957   3.835   4.909
 8384WAT    LP141919   1.988   3.919   4.805
 8384WAT    LP241920   1.925   3.967   4.887
 8385WAT     OW41921   4.077   5.388   6.056
 8385WAT    HW141922   4.134   5.426   6.123
 8385WAT    HW241923   4.136   5.375   5.981
 8385WAT    LP141924   4.050   5.327   6.077
 8385WAT    LP241925   4.026   5.432   6.039
 8386WAT     OW41926   3.163   5.027   5.592
 8386WAT    HW141927   3.142   4.957   5.531
 8386WAT    HW241928   3.258   5.039   5.583
 8386WAT    LP141929   3.130   5.086   5.575
 8386WAT    LP241930   3.147   5.009   5.657
 8387WAT     OW41931   3.820   3.875   0.899
 8387WAT    HW141932   3.844   3.843   0.985
 8387WAT    HW241933   3.889   3.936   0.875
 8387WAT    LP141934   3.816   3.822   0.853
 8387WAT    LP241935   3.758   3.908   0.901
 8388WAT     OW41936   0.394   3.153   3.343
 8388WAT    HW141937   0.455   3.095   3.297
 8388WAT    HW241938   0.330   3.177   3.277
 8388WAT    LP141939   0.364   3.120   3.397
 8388WAT    LP241940   0.428   3.210   3.367
 8389WAT     OW41941   5.113   1.911   5.887
 8389WAT    HW141942   5.158   1.899   5.804
 8389WAT    HW241943   5.086   2.003   5.887
 8389WAT    LP141944   5.057   1.869   5.891
 8389WAT    LP241945   5.156   1.897   5.941
 8390WAT     OW41946   1.236   5.239   4.744
 8390WAT    HW141947   1.174   5.304   4.710
 8390WAT    HW241948   1.319   5.262   4.704
 8390WAT    LP141949   1.240   5.243   4.814
 8390WAT    LP241950   1.216   5.175   4.725
 8391WAT     OW41951   6.695   6.487   4.004
 8391WAT    HW141952   6.605   6.517   4.016
 8391WAT    HW241953   6.738   6.557   3.956
 8391WAT    LP141954   6.726   6.477   4.066
 8391WAT    LP241955   6.696   6.427   3.968
 8392WAT     OW41956   4.384   3.679   6.294
 8392WAT    HW141957   4.331   3.657   6.371
 8392WAT    HW241958   4.342   3.633   6.221
 8392WAT    LP141959   4.383   3.748   6.283
 8392WAT    LP241960   4.450   3.658   6.303
 8393WAT     OW41961   3.485   6.575   0.439
 8393WAT    HW141962   3.444   6.648   0.392
 8393WAT    HW241963   3.572   6.568   0.401
 8393WAT    LP141964   3.488   6.588   0.507
 8393WAT    LP241965   3.449   6.516   0.428
 8394WAT     OW41966   5.425   5.321   6.120
 8394WAT    HW141967   5.495   5.305   6.184
 8394WAT    HW241968   5.347   5.286   6.161
 8394WAT    LP141969   5.418   5.390   6.108
 8394WAT    LP241970   5.439   5.288   6.060
 8395WAT     OW41971   1.158   4.862   0.513
 8395WAT    HW141972   1.131   4.783   0.560
 8395WAT    HW241973   1.182   4.924   0.581
 8395WAT    LP141974   1.212   4.848   0.471
 8395WAT    LP241975   1.105   4.887   0.474
 8396WAT     OW41976   2.502   0.958   6.168
 8396WAT    HW141977   2.518   0.866   6.188
 8396WAT    HW241978   2.440   0.956   6.095
 8396WAT    LP141979   2.475   0.991   6.223
 8396WAT    LP241980   2.562   0.989   6.149
 8397WAT     OW41981   6.567   3.339   1.403
 8397WAT    HW141982   6.473   3.324   1.390
 8397WAT    HW241983   6.572   3.400   1.477
 8397WAT    LP141984   6.599   3.279   1.419
 8397WAT    LP241985   6.596   3.367   1.346
 8398WAT     OW41986   6.129   1.724   0.460
 8398WAT    HW141987   6.221   1.702   0.472
 8398WAT    HW241988   6.082   1.648   0.494
 8398WAT    LP141989   6.112   1.782   0.497
 8398WAT    LP241990   6.114   1.734   0.393
 8399WAT     OW41991   0.540   5.843   6.168
 8399WAT    HW141992   0.484   5.896   6.110
 8399WAT    HW241993   0.513   5.868   6.256
 8399WAT    LP141994   0.529   5.775   6.157
 8399WAT    LP241995   0.608   5.858   6.157
 8400WAT     OW41996   3.694   2.729   1.526
 8400WAT    HW141997   3.736   2.642   1.528
 8400WAT    HW241998   3.603   2.712   1.548
 8400WAT    LP141999   3.723   2.771   1.574
 8400WAT    LP242000   3.700   2.757   1.463
 8401WAT     OW42001   0.767   4.583   5.903
 8401WAT    HW142002   0.762   4.553   5.812
 8401WAT    HW242003   0.715   4.520   5.952
 8401WAT    LP142004   0.834   4.583   5.925
 8401WAT    LP242005   0.741   4.648   5.909
 8402WAT     OW42006   4.965   1.109   0.454
 8402WAT    HW142007   5.003   1.064   0.378
 8402WAT    HW242008   4.906   1.174   0.417
 8402WAT    LP142009   4.930   1.064   0.495
 8402WAT    LP242010   5.015   1.140   0.492
 8403WAT     OW42011   2.136   4.878   1.344
 8403WAT    HW142012   2.082   4.878   1.264
 8403WAT    HW242013   2.108   4.957   1.391
 8403WAT    LP142014   2.124   4.821   1.382
 8403WAT    LP242015   2.204   4.881   1.328
 8404WAT     OW42016   1.623   4.699   2.427
 8404WAT    HW142017   1.584   4.613   2.407
 8404WAT    HW242018   1.674   4.684   2.506
 8404WAT    LP142019   1.664   4.720   2.374
 8404WAT    LP242020   1.573   4.747   2.438
 8405WAT     OW42021   3.514   3.271   6.037
 8405WAT    HW142022   3.516   3.228   5.951
 8405WAT    HW242023   3.567   3.214   6.093
 8405WAT    LP142024   3.543   3.335   6.033
 8405WAT    LP242025   3.449   3.275   6.062
 8406WAT     OW42026   4.378   2.926   5.358
 8406WAT    HW142027   4.320   2.908   5.284
 8406WAT    HW242028   4.418   3.010   5.338
 8406WAT    LP142029   4.341   2.930   5.418
 8406WAT    LP242030   4.426   2.876   5.364
 8407WAT     OW42031   1.240   5.378   5.489
 8407WAT    HW142032   1.239   5.353   5.581
 8407WAT    HW242033   1.187   5.310   5.446
 8407WAT    LP142034   1.212   5.441   5.479
 8407WAT    LP242035   1.305   5.378   5.463
 8408WAT     OW42036   5.937   4.385   1.135
 8408WAT    HW142037   5.851   4.350   1.156
 8408WAT    HW242038   5.965   4.336   1.058
 8408WAT    LP142039   5.934   4.454   1.122
 8408WAT    LP242040   5.981   4.374   1.189
 8409WAT     OW42041   6.398   0.298   3.124
 8409WAT    HW142042   6.485   0.310   3.085
 8409WAT    HW242043   6.384   0.203   3.121
 8409WAT    LP142044   6.397   0.321   3.190
 8409WAT    LP242045   6.349   0.331   3.087
 8410WAT     OW42046   0.138   2.173   5.204
 8410WAT    HW142047   0.050   2.153   5.173
 8410WAT    HW242048   0.161   2.256   5.162
 8410WAT    LP142049   0.139   2.180   5.274
 8410WAT    LP242050   0.184   2.123   5.186
 8411WAT     OW42051   2.346   0.244   1.012
 8411WAT    HW142052   2.423   0.211   0.965
 8411WAT    HW242053   2.340   0.336   0.987
 8411WAT    LP142054   2.288   0.209   0.992
 8411WAT    LP242055   2.354   0.237   1.081
 8412WAT     OW42056   4.987   6.156   1.251
 8412WAT    HW142057   4.949   6.126   1.333
 8412WAT    HW242058   4.949   6.243   1.237
 8412WAT    LP142059   5.057   6.161   1.257
 8412WAT    LP242060   4.971   6.113   1.199
 8413WAT     OW42061   3.581   0.234   0.228
 8413WAT    HW142062   3.520   0.295   0.270
 8413WAT    HW242063   3.532   0.152   0.223
 8413WAT    LP142064   3.598   0.256   0.164
 8413WAT    LP242065   3.639   0.226   0.266
 8414WAT     OW42066   3.034   4.680   5.134
 8414WAT    HW142067   3.071   4.638   5.057
 8414WAT    HW242068   2.956   4.628   5.155
 8414WAT    LP142069   3.080   4.678   5.187
 8414WAT    LP242070   3.017   4.746   5.120
 8415WAT     OW42071   0.924   0.681   0.864
 8415WAT    HW142072   0.957   0.668   0.953
 8415WAT    HW242073   0.996   0.724   0.818
 8415WAT    LP142074   0.908   0.620   0.834
 8415WAT    LP242075   0.867   0.722   0.865
 8416WAT     OW42076   3.403   3.475   3.902
 8416WAT    HW142077   3.433   3.442   3.817
 8416WAT    HW242078   3.412   3.570   3.895
 8416WAT    LP142079   3.337   3.457   3.914
 8416WAT    LP242080   3.443   3.450   3.954
 8417WAT     OW42081   4.386   3.707   2.662
 8417WAT    HW142082   4.435   3.645   2.607
 8417WAT    HW242083   4.390   3.789   2.613
 8417WAT    LP142084   4.320   3.686   2.670
 8417WAT    LP242085   4.417   3.714   2.724
 8418WAT     OW42086   6.725   2.479   0.835
 8418WAT    HW142087   6.654   2.540   0.855
 8418WAT    HW242088   6.777   2.476   0.915
 8418WAT    LP142089   6.699   2.415   0.820
 8418WAT    LP242090   6.763   2.502   0.781
 8419WAT     OW42091   5.837   4.254   2.225
 8419WAT    HW142092   5.925   4.259   2.186
 8419WAT    HW242093   5.827   4.337   2.271
 8419WAT    LP142094   5.788   4.246   2.176
 8419WAT    LP242095   5.834   4.200   2.270
 8420WAT     OW42096   0.974   4.286   0.925
 8420WAT    HW142097   1.038   4.217   0.944
 8420WAT    HW242098   0.915   4.285   1.001
 8420WAT    LP142099   1.005   4.348   0.920
 8420WAT    LP242100   0.938   4.272   0.867
 8421WAT     OW42101   2.044   3.222   0.170
 8421WAT    HW142102   2.088   3.293   0.123
 8421WAT    HW242103   2.107   3.196   0.238
 8421WAT    LP142104   1.984   3.244   0.198
 8421WAT    LP242105   2.031   3.168   0.127
 8422WAT     OW42106   4.656   4.379   5.804
 8422WAT    HW142107   4.621   4.442   5.868
 8422WAT    HW242108   4.598   4.303   5.812
 8422WAT    LP142109   4.653   4.405   5.739
 8422WAT    LP242110   4.722   4.362   5.819
 8423WAT     OW42111   6.290   1.917   3.185
 8423WAT    HW142112   6.311   2.004   3.218
 8423WAT    HW242113   6.365   1.893   3.131
 8423WAT    LP142114   6.282   1.871   3.237
 8423WAT    LP242115   6.231   1.919   3.146
 8424WAT     OW42116   4.215   4.558   4.174
 8424WAT    HW142117   4.253   4.642   4.151
 8424WAT    HW242118   4.284   4.494   4.159
 8424WAT    LP142119   4.195   4.558   4.241
 8424WAT    LP242120   4.159   4.544   4.134
 8425WAT     OW42121   1.435   3.834   5.308
 8425WAT    HW142122   1.510   3.793   5.264
 8425WAT    HW242123   1.363   3.773   5.294
 8425WAT    LP142124   1.448   3.843   5.376
 8425WAT    LP242125   1.421   3.896   5.279
 8426WAT     OW42126   1.312   3.380   6.339
 8426WAT    HW142127   1.238   3.361   6.282
 8426WAT    HW242128   1.389   3.363   6.285
 8426WAT    LP142129   1.311   3.447   6.360
 8426WAT    LP242130   1.312   3.339   6.395
 8427WAT     OW42131   1.079   6.497   5.626
 8427WAT    HW142132   1.146   6.541   5.574
 8427WAT    HW242133   1.060   6.558   5.698
 8427WAT    LP142134   1.021   6.486   5.587
 8427WAT    LP242135   1.102   6.436   5.651
 8428WAT     OW42136   0.566   2.589   3.003
 8428WAT    HW142137   0.533   2.508   2.964
 8428WAT    HW242138   0.640   2.614   2.948
 8428WAT    LP142139   0.517   2.639   3.003
 8428WAT    LP242140   0.587   2.577   3.069
 8429WAT     OW42141   5.537   0.450   4.585
 8429WAT    HW142142   5.589   0.499   4.521
 8429WAT    HW242143   5.458   0.425   4.536
 8429WAT    LP142144   5.571   0.393   4.607
 8429WAT    LP242145   5.520   0.490   4.639
 8430WAT     OW42146   4.648   5.699   3.000
 8430WAT    HW142147   4.702   5.769   2.963
 8430WAT    HW242148   4.709   5.627   3.015
 8430WAT    LP142149   4.618   5.719   3.060
 8430WAT    LP242150   4.598   5.680   2.954
 8431WAT     OW42151   3.614   3.629   0.571
 8431WAT    HW142152   3.529   3.621   0.615
 8431WAT    HW242153   3.678   3.622   0.641
 8431WAT    LP142154   3.622   3.578   0.524
 8431WAT    LP242155   3.619   3.691   0.538
 8432WAT     OW42156   1.484   2.836   3.975
 8432WAT    HW142157   1.577   2.832   3.998
 8432WAT    HW242158   1.451   2.747   3.991
 8432WAT    LP142159   1.450   2.882   4.015
 8432WAT    LP242160   1.475   2.853   3.907
 8433WAT     OW42161   5.251   1.687   5.191
 8433WAT    HW142162   5.180   1.727   5.141
 8433WAT    HW242163   5.213   1.607   5.227
 8433WAT    LP142164   5.305   1.672   5.149
 8433WAT    LP242165   5.272   1.729   5.242
 8434WAT     OW42166   4.523   5.392   0.561
 8434WAT    HW142167   4.481   5.364   0.480
 8434WAT    HW242168   4.450   5.414   0.620
 8434WAT    LP142169   4.562   5.341   0.588
 8434WAT    LP242170   4.563   5.448   0.550
 8435WAT     OW42171   3.511   1.284   3.310
 8435WAT    HW142172   3.519   1.252   3.400
 8435WAT    HW242173   3.576   1.354   3.305
 8435WAT    LP142174   3.526   1.233   3.265
 8435WAT    LP242175   3.447   1.309   3.298
 8436WAT     OW42176   1.817   1.218   3.198
 8436WAT    HW142177   1.757   1.170   3.255
 8436WAT    HW242178   1.826   1.162   3.121
 8436WAT    LP142179   1.790   1.280   3.180
 8436WAT    LP242180   1.879   1.228   3.229
 8437WAT     OW42181   3.068   2.252   0.882
 8437WAT    HW142182   3.155   2.230   0.850
 8437WAT    HW242183   3.073   2.238   0.977
 8437WAT    LP142184   3.052   2.319   0.868
 8437WAT    LP242185   3.019   2.211   0.854
 8438WAT     OW42186   3.376   5.226   1.578
 8438WAT    HW142187   3.281   5.217   1.590
 8438WAT    HW242188   3.396   5.312   1.615
 8438WAT    LP142189   3.410   5.176   1.613
 8438WAT    LP242190   3.393   5.224   1.510
 8439WAT     OW42191   3.064   2.806   3.523
 8439WAT    HW142192   2.972   2.819   3.500
 8439WAT    HW242193   3.075   2.852   3.606
 8439WAT    LP142194   3.078   2.737   3.530
 8439WAT    LP242195   3.106   2.833   3.474
 8440WAT     OW42196   0.152   6.164   5.629
 8440WAT    HW142197   0.155   6.260   5.624
 8440WAT    HW242198   0.105   6.138   5.550
 8440WAT    LP142199   0.217   6.138   5.629
 8440WAT    LP242200   0.119   6.143   5.686
 8441WAT     OW42201   6.446   2.835   2.388
 8441WAT    HW142202   6.394   2.759   2.361
 8441WAT    HW242203   6.454   2.887   2.309
 8441WAT    LP142204   6.412   2.871   2.438
 8441WAT    LP242205   6.508   2.815   2.412
 8442WAT     OW42206   6.262   0.418   0.911
 8442WAT    HW142207   6.200   0.486   0.884
 8442WAT    HW242208   6.320   0.461   0.973
 8442WAT    LP142209   6.228   0.364   0.941
 8442WAT    LP242210   6.298   0.394   0.856
 8443WAT     OW42211   2.482   1.850   2.010
 8443WAT    HW142212   2.408   1.818   2.061
 8443WAT    HW242213   2.462   1.826   1.920
 8443WAT    LP142214   2.488   1.920   2.016
 8443WAT    LP242215   2.542   1.820   2.031
 8444WAT     OW42216   5.601   3.048   0.115
 8444WAT    HW142217   5.554   3.127   0.143
 8444WAT    HW242218   5.684   3.081   0.081
 8444WAT    LP142219   5.611   3.005   0.170
 8444WAT    LP242220   5.565   3.015   0.065
 8445WAT     OW42221   2.328   3.398   3.302
 8445WAT    HW142222   2.406   3.368   3.256
 8445WAT    HW242223   2.344   3.492   3.317
 8445WAT    LP142224   2.271   3.388   3.264
 8445WAT    LP242225   2.322   3.365   3.364
 8446WAT     OW42226   2.065   2.349   0.605
 8446WAT    HW142227   2.110   2.318   0.526
 8446WAT    HW242228   2.117   2.425   0.634
 8446WAT    LP142229   2.000   2.369   0.590
 8446WAT    LP242230   2.064   2.300   0.654
 8447WAT     OW42231   4.044   6.221   6.600
 8447WAT    HW142232   4.094   6.180   6.529
 8447WAT    HW242233   3.954   6.225   6.566
 8447WAT    LP142234   4.047   6.182   6.658
 8447WAT    LP242235   4.068   6.285   6.613
 8448WAT     OW42236   0.612   2.701   1.377
 8448WAT    HW142237   0.702   2.718   1.404
 8448WAT    HW242238   0.587   2.622   1.425
 8448WAT    LP142239   0.570   2.755   1.394
 8448WAT    LP242240   0.608   2.690   1.308
 8449WAT     OW42241   6.556   0.876   0.889
 8449WAT    HW142242   6.635   0.927   0.871
 8449WAT    HW242243   6.582   0.785   0.879
 8449WAT    LP142244   6.533   0.889   0.954
 8449WAT    LP242245   6.506   0.892   0.843
 8450WAT     OW42246   3.177   1.111   6.240
 8450WAT    HW142247   3.133   1.092   6.158
 8450WAT    HW242248   3.223   1.193   6.224
 8450WAT    LP142249   3.131   1.117   6.292
 8450WAT    LP242250   3.223   1.060   6.256
 8451WAT     OW42251   4.232   6.268   1.419
 8451WAT    HW142252   4.161   6.323   1.451
 8451WAT    HW242253   4.221   6.184   1.463
 8451WAT    LP142254   4.228   6.260   1.349
 8451WAT    LP242255   4.294   6.297   1.435
 8452WAT     OW42256   4.432   4.355   6.397
 8452WAT    HW142257   4.384   4.286   6.444
 8452WAT    HW242258   4.524   4.331   6.406
 8452WAT    LP142259   4.413   4.356   6.329
 8452WAT    LP242260   4.420   4.418   6.425
 8453WAT     OW42261   4.486   0.910   2.319
 8453WAT    HW142262   4.567   0.871   2.285
 8453WAT    HW242263   4.494   1.003   2.298
 8453WAT    LP142264   4.430   0.882   2.287
 8453WAT    LP242265   4.482   0.900   2.388
 8454WAT     OW42266   1.893   2.600   6.048
 8454WAT    HW142267   1.829   2.530   6.034
 8454WAT    HW242268   1.925   2.621   5.960
 8454WAT    LP142269   1.863   2.656   6.077
 8454WAT    LP242270   1.946   2.577   6.088
 8455WAT     OW42271   1.292   5.242   4.259
 8455WAT    HW142272   1.224   5.304   4.233
 8455WAT    HW242273   1.254   5.195   4.334
 8455WAT    LP142274   1.306   5.197   4.207
 8455WAT    LP242275   1.350   5.276   4.278
 8456WAT     OW42276   3.933   6.532   4.196
 8456WAT    HW142277   3.975   6.609   4.157
 8456WAT    HW242278   4.006   6.481   4.230
 8456WAT    LP142279   3.890   6.551   4.247
 8456WAT    LP242280   3.898   6.496   4.147
 8457WAT     OW42281   3.406   5.951   6.598
 8457WAT    HW142282   3.451   5.936   6.681
 8457WAT    HW242283   3.412   5.867   6.553
 8457WAT    LP142284   3.339   5.969   6.608
 8457WAT    LP242285   3.438   6.001   6.561
 8458WAT     OW42286   1.518   5.600   4.986
 8458WAT    HW142287   1.519   5.653   4.906
 8458WAT    HW242288   1.607   5.607   5.021
 8458WAT    LP142289   1.471   5.626   5.032
 8458WAT    LP242290   1.501   5.534   4.971
 8459WAT     OW42291   0.434   4.383   1.426
 8459WAT    HW142292   0.435   4.372   1.521
 8459WAT    HW242293   0.346   4.354   1.399
 8459WAT    LP142294   0.444   4.451   1.409
 8459WAT    LP242295   0.483   4.344   1.395
 8460WAT     OW42296   2.277   3.176   4.279
 8460WAT    HW142297   2.283   3.234   4.203
 8460WAT    HW242298   2.332   3.218   4.345
 8460WAT    LP142299   2.210   3.172   4.302
 8460WAT    LP242300   2.300   3.112   4.264
 8461WAT     OW42301   4.818   0.147   5.359
 8461WAT    HW142302   4.911   0.141   5.339
 8461WAT    HW242303   4.808   0.232   5.402
 8461WAT    LP142304   4.780   0.144   5.301
 8461WAT    LP242305   4.798   0.095   5.402
 8462WAT     OW42306   6.416   1.692   1.491
 8462WAT    HW142307   6.417   1.786   1.510
 8462WAT    HW242308   6.496   1.658   1.532
 8462WAT    LP142309   6.359   1.662   1.519
 8462WAT    LP242310   6.417   1.680   1.422
 8463WAT     OW42311   2.575   3.991   3.349
 8463WAT    HW142312   2.663   4.022   3.368
 8463WAT    HW242313   2.517   4.060   3.382
 8463WAT    LP142314   2.566   3.983   3.280
 8463WAT    LP242315   2.562   3.930   3.381
 8464WAT     OW42316   3.108   1.965   3.538
 8464WAT    HW142317   3.198   1.970   3.570
 8464WAT    HW242318   3.082   2.057   3.526
 8464WAT    LP142319   3.105   1.930   3.478
 8464WAT    LP242320   3.066   1.934   3.585
 8465WAT     OW42321   3.440   3.924   6.253
 8465WAT    HW142322   3.348   3.898   6.243
 8465WAT    HW242323   3.465   3.956   6.166
 8465WAT    LP142324   3.446   3.975   6.300
 8465WAT    LP242325   3.479   3.870   6.272
 8466WAT     OW42326   0.653   0.667   1.490
 8466WAT    HW142327   0.559   0.665   1.471
 8466WAT    HW242328   0.692   0.709   1.413
 8466WAT    LP142329   0.666   0.704   1.548
 8466WAT    LP242330   0.678   0.602   1.498
 8467WAT     OW42331   6.685   0.069   1.704
 8467WAT    HW142332   6.650   0.157   1.689
 8467WAT    HW242333   6.762   0.083   1.759
 8467WAT    LP142334   6.638   0.029   1.736
 8467WAT    LP242335   6.704   0.040   1.643
 8468WAT     OW42336   6.027   4.100   3.256
 8468WAT    HW142337   6.118   4.099   3.228
 8468WAT    HW242338   5.997   4.010   3.244
 8468WAT    LP142339   6.021   4.119   3.323
 8468WAT    LP242340   5.989   4.144   3.217
 8469WAT     OW42341   3.399   3.752   3.606
 8469WAT    HW142342   3.418   3.750   3.700
 8469WAT    HW242343   3.483   3.731   3.564
 8469WAT    LP142344   3.351   3.703   3.589
 8469WAT    LP242345   3.377   3.815   3.586
 8470WAT     OW42346   2.392   2.835   5.360
 8470WAT    HW142347   2.355   2.922   5.374
 8470WAT    HW242348   2.484   2.844   5.384
 8470WAT    LP142349   2.360   2.787   5.400
 8470WAT    LP242350   2.386   2.817   5.292
 8471WAT     OW42351   1.874   0.714   5.708
 8471WAT    HW142352   1.959   0.692   5.670
 8471WAT    HW242353   1.867   0.809   5.698
 8471WAT    LP142354   1.822   0.682   5.674
 8471WAT    LP242355   1.872   0.697   5.776
 8472WAT     OW42356   4.071   2.966   6.333
 8472WAT    HW142357   4.017   2.888   6.317
 8472WAT    HW242358   4.085   3.003   6.246
 8472WAT    LP142359   4.037   3.011   6.374
 8472WAT    LP242360   4.132   2.948   6.362
 8473WAT     OW42361   1.096   4.544   5.891
 8473WAT    HW142362   1.080   4.627   5.937
 8473WAT    HW242363   1.103   4.569   5.799
 8473WAT    LP142364   1.156   4.515   5.914
 8473WAT    LP242365   1.043   4.500   5.901
 8474WAT     OW42366   2.110   1.470   0.163
 8474WAT    HW142367   2.119   1.538   0.096
 8474WAT    HW242368   2.049   1.507   0.226
 8474WAT    LP142369   2.085   1.411   0.136
 8474WAT    LP242370   2.172   1.457   0.194
 8475WAT     OW42371   1.973   5.436   0.897
 8475WAT    HW142372   1.916   5.416   0.972
 8475WAT    HW242373   1.917   5.486   0.837
 8475WAT    LP142374   2.028   5.475   0.917
 8475WAT    LP242375   1.996   5.377   0.867
 8476WAT     OW42376   1.724   5.328   6.184
 8476WAT    HW142377   1.775   5.265   6.133
 8476WAT    HW242378   1.787   5.397   6.206
 8476WAT    LP142379   1.671   5.353   6.147
 8476WAT    LP242380   1.700   5.298   6.242
 8477WAT     OW42381   0.064   2.052   0.332
 8477WAT    HW142382   0.014   2.018   0.258
 8477WAT    HW242383   0.010   2.122   0.368
 8477WAT    LP142384   0.074   2.001   0.380
 8477WAT    LP242385   0.126   2.076   0.311
 8478WAT     OW42386   6.606   4.012   3.554
 8478WAT    HW142387   6.556   3.931   3.565
 8478WAT    HW242388   6.648   4.025   3.639
 8478WAT    LP142389   6.653   4.006   3.503
 8478WAT    LP242390   6.563   4.065   3.539
 8479WAT     OW42391   1.759   3.582   0.030
 8479WAT    HW142392   1.712   3.665   0.018
 8479WAT    HW242393   1.690   3.516   0.038
 8479WAT    LP142394   1.799   3.568  -0.025
 8479WAT    LP242395   1.798   3.584   0.088
 8480WAT     OW42396   3.782   1.277   5.966
 8480WAT    HW142397   3.829   1.201   5.932
 8480WAT    HW242398   3.810   1.283   6.057
 8480WAT    LP142399   3.801   1.335   5.931
 8480WAT    LP242400   3.713   1.268   5.961
 8481WAT     OW42401   2.326   2.998   3.895
 8481WAT    HW142402   2.318   2.904   3.882
 8481WAT    HW242403   2.341   3.033   3.807
 8481WAT    LP142404   2.267   3.025   3.922
 8481WAT    LP242405   2.380   3.013   3.937
 8482WAT     OW42406   3.211   2.548   1.006
 8482WAT    HW142407   3.135   2.544   0.948
 8482WAT    HW242408   3.254   2.631   0.984
 8482WAT    LP142409   3.191   2.548   1.073
 8482WAT    LP242410   3.254   2.494   0.995
 8483WAT     OW42411   6.496   1.797   5.939
 8483WAT    HW142412   6.572   1.792   5.881
 8483WAT    HW242413   6.524   1.755   6.020
 8483WAT    LP142414   6.477   1.864   5.950
 8483WAT    LP242415   6.441   1.762   5.911
 8484WAT     OW42416   1.474   2.148   3.471
 8484WAT    HW142417   1.439   2.234   3.495
 8484WAT    HW242418   1.466   2.145   3.375
 8484WAT    LP142419   1.540   2.141   3.491
 8484WAT    LP242420   1.436   2.097   3.500
 8485WAT     OW42421   1.245   0.393   0.706
 8485WAT    HW142422   1.234   0.467   0.646
 8485WAT    HW242423   1.286   0.431   0.784
 8485WAT    LP142424   1.183   0.365   0.722
 8485WAT    LP242425   1.287   0.344   0.678
 8486WAT     OW42426   4.055   0.050   2.809
 8486WAT    HW142427   4.098   0.129   2.779
 8486WAT    HW242428   4.119  -0.019   2.794
 8486WAT    LP142429   4.040   0.055   2.878
 8486WAT    LP242430   3.996   0.037   2.773
 8487WAT     OW42431   6.495   6.482   3.583
 8487WAT    HW142432   6.429   6.523   3.527
 8487WAT    HW242433   6.447   6.451   3.659
 8487WAT    LP142434   6.526   6.429   3.549
 8487WAT    LP242435   6.544   6.529   3.602
 8488WAT     OW42436   4.890   1.029   1.153
 8488WAT    HW142437   4.911   0.951   1.204
 8488WAT    HW242438   4.946   1.023   1.076
 8488WAT    LP142439   4.822   1.029   1.135
 8488WAT    LP242440   4.904   1.087   1.190
 8489WAT     OW42441   3.518   0.826   1.694
 8489WAT    HW142442   3.603   0.814   1.653
 8489WAT    HW242443   3.479   0.738   1.694
 8489WAT    LP142444   3.524   0.849   1.760
 8489WAT    LP242445   3.478   0.870   1.657
 8490WAT     OW42446   1.738   3.939   4.249
 8490WAT    HW142447   1.787   3.899   4.177
 8490WAT    HW242448   1.675   3.997   4.207
 8490WAT    LP142449   1.706   3.890   4.287
 8490WAT    LP242450   1.781   3.976   4.290
 8491WAT     OW42451   4.174   0.452   2.919
 8491WAT    HW142452   4.152   0.412   3.003
 8491WAT    HW242453   4.266   0.479   2.929
 8491WAT    LP142454   4.168   0.405   2.867
 8491WAT    LP242455   4.133   0.507   2.906
 8492WAT     OW42456   1.148   0.804   5.729
 8492WAT    HW142457   1.195   0.881   5.760
 8492WAT    HW242458   1.204   0.768   5.660
 8492WAT    LP142459   1.140   0.757   5.781
 8492WAT    LP242460   1.085   0.821   5.704
 8493WAT     OW42461   2.160   2.119   1.765
 8493WAT    HW142462   2.183   2.210   1.788
 8493WAT    HW242463   2.137   2.079   1.849
 8493WAT    LP142464   2.106   2.118   1.721
 8493WAT    LP242465   2.215   2.087   1.736
 8494WAT     OW42466   2.612   4.839   2.373
 8494WAT    HW142467   2.627   4.750   2.404
 8494WAT    HW242468   2.654   4.842   2.287
 8494WAT    LP142469   2.544   4.853   2.368
 8494WAT    LP242470   2.642   4.886   2.417
 8495WAT     OW42471   3.000   4.898   6.426
 8495WAT    HW142472   2.926   4.878   6.483
 8495WAT    HW242473   2.981   4.851   6.345
 8495WAT    LP142474   3.004   4.967   6.414
 8495WAT    LP242475   3.060   4.876   6.454
 8496WAT     OW42476   2.227   6.674   1.831
 8496WAT    HW142477   2.233   6.684   1.926
 8496WAT    HW242478   2.161   6.606   1.818
 8496WAT    LP142479   2.207   6.734   1.802
 8496WAT    LP242480   2.288   6.655   1.805
 8497WAT     OW42481   5.903   3.989   5.387
 8497WAT    HW142482   5.835   4.055   5.397
 8497WAT    HW242483   5.983   4.032   5.417
 8497WAT    LP142484   5.890   3.933   5.426
 8497WAT    LP242485   5.909   3.970   5.320
 8498WAT     OW42486   4.192   5.339   0.968
 8498WAT    HW142487   4.241   5.305   1.043
 8498WAT    HW242488   4.120   5.389   1.007
 8498WAT    LP142489   4.232   5.381   0.928
 8498WAT    LP242490   4.167   5.287   0.928
 8499WAT     OW42491   0.816   3.577   3.368
 8499WAT    HW142492   0.885   3.643   3.369
 8499WAT    HW242493   0.816   3.543   3.279
 8499WAT    LP142494   0.829   3.527   3.414
 8499WAT    LP242495   0.754   3.607   3.383
 8500WAT     OW42496   2.044   0.588   1.921
 8500WAT    HW142497   2.034   0.507   1.871
 8500WAT    HW242498   2.035   0.657   1.855
 8500WAT    LP142499   1.994   0.593   1.969
 8500WAT    LP242500   2.107   0.590   1.951
 8501WAT     OW42501   3.764   2.185   3.572
 8501WAT    HW142502   3.836   2.244   3.597
 8501WAT    HW242503   3.789   2.153   3.485
 8501WAT    LP142504   3.758   2.132   3.617
 8501WAT    LP242505   3.704   2.221   3.568
 8502WAT     OW42506   2.578   4.337   1.638
 8502WAT    HW142507   2.535   4.254   1.655
 8502WAT    HW242508   2.540   4.398   1.701
 8502WAT    LP142509   2.647   4.332   1.647
 8502WAT    LP242510   2.565   4.359   1.572
 8503WAT     OW42511   6.758   3.941   1.925
 8503WAT    HW142512   6.815   3.981   1.860
 8503WAT    HW242513   6.678   3.919   1.876
 8503WAT    LP142514   6.787   3.884   1.952
 8503WAT    LP242515   6.744   3.986   1.976
 8504WAT     OW42516   5.832   3.419   1.190
 8504WAT    HW142517   5.814   3.459   1.276
 8504WAT    HW242518   5.917   3.376   1.201
 8504WAT    LP142519   5.782   3.373   1.174
 8504WAT    LP242520   5.836   3.468   1.140
 8505WAT     OW42521   3.978   5.456   1.085
 8505WAT    HW142522   3.979   5.524   1.152
 8505WAT    HW242523   3.941   5.498   1.008
 8505WAT    LP142524   4.043   5.433   1.072
 8505WAT    LP242525   3.938   5.402   1.106
 8506WAT     OW42526   6.107   4.590   3.717
 8506WAT    HW142527   6.187   4.638   3.695
 8506WAT    HW242528   6.054   4.653   3.765
 8506WAT    LP142529   6.074   4.570   3.658
 8506WAT    LP242530   6.121   4.534   3.756
 8507WAT     OW42531   3.614   0.856   4.322
 8507WAT    HW142532   3.601   0.906   4.402
 8507WAT    HW242533   3.667   0.781   4.349
 8507WAT    LP142534   3.553   0.835   4.295
 8507WAT    LP242535   3.649   0.894   4.274
 8508WAT     OW42536   2.085   1.045   6.305
 8508WAT    HW142537   2.122   0.957   6.305
 8508WAT    HW242538   2.133   1.091   6.374
 8508WAT    LP142539   2.096   1.077   6.243
 8508WAT    LP242540   2.017   1.044   6.319
 8509WAT     OW42541   2.302   0.514   0.998
 8509WAT    HW142542   2.306   0.570   0.921
 8509WAT    HW242543   2.357   0.558   1.063
 8509WAT    LP142544   2.236   0.509   1.022
 8509WAT    LP242545   2.326   0.450   0.984
 8510WAT     OW42546   3.632   2.493   4.218
 8510WAT    HW142547   3.721   2.510   4.188
 8510WAT    HW242548   3.640   2.486   4.314
 8510WAT    LP142549   3.589   2.546   4.201
 8510WAT    LP242550   3.607   2.434   4.191
 8511WAT     OW42551   0.288   4.227   0.385
 8511WAT    HW142552   0.224   4.250   0.452
 8511WAT    HW242553   0.329   4.146   0.416
 8511WAT    LP142554   0.257   4.217   0.323
 8511WAT    LP242555   0.336   4.278   0.378
 8512WAT     OW42556   5.942   5.445   1.943
 8512WAT    HW142557   5.978   5.521   1.897
 8512WAT    HW242558   5.980   5.370   1.898
 8512WAT    LP142559   5.960   5.446   2.010
 8512WAT    LP242560   5.872   5.445   1.937
 8513WAT     OW42561   5.114   6.092   5.034
 8513WAT    HW142562   5.049   6.103   5.104
 8513WAT    HW242563   5.182   6.037   5.074
 8513WAT    LP142564   5.086   6.060   4.979
 8513WAT    LP242565   5.141   6.154   5.014
 8514WAT     OW42566   0.570   4.403   0.952
 8514WAT    HW142567   0.604   4.406   0.863
 8514WAT    HW242568   0.537   4.492   0.967
 8514WAT    LP142569   0.518   4.356   0.957
 8514WAT    LP242570   0.620   4.387   0.998
 8515WAT     OW42571   2.730   1.366   4.168
 8515WAT    HW142572   2.748   1.460   4.174
 8515WAT    HW242573   2.642   1.356   4.205
 8515WAT    LP142574   2.730   1.345   4.101
 8515WAT    LP242575   2.777   1.329   4.204
 8516WAT     OW42576   4.497   3.875   3.311
 8516WAT    HW142577   4.507   3.946   3.374
 8516WAT    HW242578   4.492   3.920   3.226
 8516WAT    LP142579   4.552   3.832   3.313
 8516WAT    LP242580   4.438   3.839   3.323
 8517WAT     OW42581   5.305   3.764   4.180
 8517WAT    HW142582   5.369   3.702   4.215
 8517WAT    HW242583   5.234   3.763   4.244
 8517WAT    LP142584   5.333   3.828   4.175
 8517WAT    LP242585   5.282   3.743   4.117
 8518WAT     OW42586   2.337   4.970   2.175
 8518WAT    HW142587   2.249   5.006   2.167
 8518WAT    HW242588   2.391   5.029   2.122
 8518WAT    LP142589   2.358   4.971   2.242
 8518WAT    LP242590   2.340   4.905   2.150
 8519WAT     OW42591   0.423   2.531   3.556
 8519WAT    HW142592   0.515   2.544   3.533
 8519WAT    HW242593   0.409   2.585   3.634
 8519WAT    LP142594   0.381   2.552   3.504
 8519WAT    LP242595   0.410   2.464   3.570
 8520WAT     OW42596   1.657   4.600   3.793
 8520WAT    HW142597   1.629   4.528   3.736
 8520WAT    HW242598   1.578   4.627   3.839
 8520WAT    LP142599   1.706   4.579   3.838
 8520WAT    LP242600   1.683   4.653   3.754
 8521WAT     OW42601   1.101   3.894   4.639
 8521WAT    HW142602   1.072   3.893   4.730
 8521WAT    HW242603   1.167   3.824   4.634
 8521WAT    LP142604   1.047   3.880   4.596
 8521WAT    LP242605   1.129   3.956   4.623
 8522WAT     OW42606   4.549   5.390   1.812
 8522WAT    HW142607   4.610   5.318   1.830
 8522WAT    HW242608   4.603   5.469   1.819
 8522WAT    LP142609   4.522   5.384   1.748
 8522WAT    LP242610   4.498   5.391   1.859
 8523WAT     OW42611   6.291   6.378   4.045
 8523WAT    HW142612   6.238   6.397   4.122
 8523WAT    HW242613   6.369   6.434   4.054
 8523WAT    LP142614   6.309   6.311   4.043
 8523WAT    LP242615   6.256   6.394   3.986
 8524WAT     OW42616   6.319   3.609   6.566
 8524WAT    HW142617   6.273   3.606   6.482
 8524WAT    HW242618   6.397   3.662   6.549
 8524WAT    LP142619   6.279   3.640   6.614
 8524WAT    LP242620   6.336   3.545   6.587
 8525WAT     OW42621   2.072   3.029   5.067
 8525WAT    HW142622   2.056   3.007   5.159
 8525WAT    HW242623   2.009   3.098   5.046
 8525WAT    LP142624   2.137   3.052   5.058
 8525WAT    LP242625   2.061   2.973   5.026
 8526WAT     OW42626   0.119   2.334   2.298
 8526WAT    HW142627   0.155   2.272   2.362
 8526WAT    HW242628   0.154   2.304   2.214
 8526WAT    LP142629   0.049   2.333   2.298
 8526WAT    LP242630   0.141   2.399   2.312
 8527WAT     OW42631   6.641   5.331   3.164
 8527WAT    HW142632   6.596   5.414   3.146
 8527WAT    HW242633   6.611   5.272   3.095
 8527WAT    LP142634   6.711   5.340   3.161
 8527WAT    LP242635   6.624   5.306   3.227
 8528WAT     OW42636   6.486   5.075   4.996
 8528WAT    HW142637   6.392   5.067   5.009
 8528WAT    HW242638   6.503   5.039   4.909
 8528WAT    LP142639   6.506   5.142   4.999
 8528WAT    LP242640   6.521   5.038   5.045
 8529WAT     OW42641   4.340   0.227   6.048
 8529WAT    HW142642   4.298   0.176   6.117
 8529WAT    HW242643   4.332   0.174   5.970
 8529WAT    LP142644   4.307   0.289   6.040
 8529WAT    LP242645   4.407   0.239   6.064
 8530WAT     OW42646   0.335   1.803   0.727
 8530WAT    HW142647   0.415   1.777   0.681
 8530WAT    HW242648   0.273   1.826   0.657
 8530WAT    LP142649   0.310   1.750   0.765
 8530WAT    LP242650   0.347   1.858   0.768
 8531WAT     OW42651   1.697   2.861   1.982
 8531WAT    HW142652   1.628   2.875   2.047
 8531WAT    HW242653   1.666   2.787   1.930
 8531WAT    LP142654   1.706   2.917   1.942
 8531WAT    LP242655   1.758   2.845   2.013
 8532WAT     OW42656   6.083   1.523   0.888
 8532WAT    HW142657   6.024   1.465   0.840
 8532WAT    HW242658   6.035   1.605   0.897
 8532WAT    LP142659   6.098   1.496   0.951
 8532WAT    LP242660   6.142   1.532   0.852
 8533WAT     OW42661   6.237   5.753   6.049
 8533WAT    HW142662   6.200   5.707   6.124
 8533WAT    HW242663   6.161   5.789   6.003
 8533WAT    LP142664   6.280   5.805   6.070
 8533WAT    LP242665   6.273   5.709   6.008
 8534WAT     OW42666   0.029   3.180   5.771
 8534WAT    HW142667   0.124   3.189   5.760
 8534WAT    HW242668   0.013   3.086   5.758
 8534WAT    LP142669   0.009   3.200   5.834
 8534WAT    LP242670  -0.005   3.218   5.722
 8535WAT     OW42671   5.230   1.367   0.256
 8535WAT    HW142672   5.161   1.396   0.315
 8535WAT    HW242673   5.260   1.283   0.292
 8535WAT    LP142674   5.205   1.358   0.191
 8535WAT    LP242675   5.283   1.413   0.254
 8536WAT     OW42676   0.516   5.841   3.376
 8536WAT    HW142677   0.445   5.904   3.363
 8536WAT    HW242678   0.587   5.873   3.321
 8536WAT    LP142679   0.536   5.839   3.443
 8536WAT    LP242680   0.496   5.777   3.356
 8537WAT     OW42681   0.518   5.080   1.035
 8537WAT    HW142682   0.527   5.060   1.128
 8537WAT    HW242683   0.424   5.077   1.018
 8537WAT    LP142684   0.544   5.144   1.021
 8537WAT    LP242685   0.552   5.032   0.996
 8538WAT     OW42686   1.443   1.030   1.335
 8538WAT    HW142687   1.429   0.935   1.332
 8538WAT    HW242688   1.357   1.068   1.319
 8538WAT    LP142689   1.467   1.049   1.398
 8538WAT    LP242690   1.488   1.049   1.285
 8539WAT     OW42691   2.404   2.242   6.375
 8539WAT    HW142692   2.351   2.285   6.308
 8539WAT    HW242693   2.429   2.159   6.337
 8539WAT    LP142694   2.461   2.281   6.390
 8539WAT    LP242695   2.366   2.233   6.434
 8540WAT     OW42696   3.359   5.662   3.375
 8540WAT    HW142697   3.341   5.655   3.282
 8540WAT    HW242698   3.452   5.687   3.380
 8540WAT    LP142699   3.319   5.712   3.404
 8540WAT    LP242700   3.348   5.601   3.408
 8541WAT     OW42701   1.244   2.997   1.092
 8541WAT    HW142702   1.201   2.911   1.090
 8541WAT    HW242703   1.262   3.013   1.185
 8541WAT    LP142704   1.303   2.996   1.055
 8541WAT    LP242705   1.201   3.046   1.066
 8542WAT     OW42706   0.889   3.876   4.464
 8542WAT    HW142707   0.931   3.819   4.401
 8542WAT    HW242708   0.950   3.881   4.537
 8542WAT    LP142709   0.879   3.940   4.436
 8542WAT    LP242710   0.827   3.850   4.484
 8543WAT     OW42711   0.877   3.287   1.082
 8543WAT    HW142712   0.864   3.381   1.071
 8543WAT    HW242713   0.962   3.269   1.041
 8543WAT    LP142714   0.879   3.270   1.150
 8543WAT    LP242715   0.827   3.250   1.050
 8544WAT     OW42716   6.541   3.156   2.627
 8544WAT    HW142717   6.486   3.092   2.672
 8544WAT    HW242718   6.491   3.180   2.549
 8544WAT    LP142719   6.552   3.212   2.668
 8544WAT    LP242720   6.603   3.128   2.609
 8545WAT     OW42721   1.446   5.999   1.064
 8545WAT    HW142722   1.353   6.005   1.086
 8545WAT    HW242723   1.482   6.084   1.088
 8545WAT    LP142724   1.477   5.947   1.101
 8545WAT    LP242725   1.454   5.986   0.996
 8546WAT     OW42726   3.416   2.414   5.973
 8546WAT    HW142727   3.458   2.460   5.900
 8546WAT    HW242728   3.323   2.414   5.952
 8546WAT    LP142729   3.440   2.349   5.979
 8546WAT    LP242730   3.428   2.449   6.033
 8547WAT     OW42731   3.726   1.011   4.128
 8547WAT    HW142732   3.683   0.960   4.197
 8547WAT    HW242733   3.761   1.088   4.173
 8547WAT    LP142734   3.778   0.973   4.100
 8547WAT    LP242735   3.681   1.029   4.079
 8548WAT     OW42736   3.679   6.421   3.604
 8548WAT    HW142737   3.642   6.369   3.675
 8548WAT    HW242738   3.724   6.493   3.648
 8548WAT    LP142739   3.723   6.383   3.566
 8548WAT    LP242740   3.628   6.446   3.562
 8549WAT     OW42741   3.322   1.715   6.007
 8549WAT    HW142742   3.371   1.727   5.925
 8549WAT    HW242743   3.390   1.695   6.072
 8549WAT    LP142744   3.288   1.773   6.024
 8549WAT    LP242745   3.277   1.662   6.001
 8550WAT     OW42746   3.559   0.566   4.798
 8550WAT    HW142747   3.514   0.634   4.746
 8550WAT    HW242748   3.617   0.615   4.856
 8550WAT    LP142749   3.512   0.529   4.835
 8550WAT    LP242750   3.595   0.524   4.756
 8551WAT     OW42751   4.194   6.117   6.395
 8551WAT    HW142752   4.283   6.147   6.415
 8551WAT    HW242753   4.177   6.151   6.307
 8551WAT    LP142754   4.191   6.047   6.395
 8551WAT    LP242755   4.149   6.143   6.441
 8552WAT     OW42756   4.615   0.105   3.473
 8552WAT    HW142757   4.615   0.030   3.413
 8552WAT    HW242758   4.699   0.148   3.457
 8552WAT    LP142759   4.562   0.149   3.458
 8552WAT    LP242760   4.610   0.084   3.539
 8553WAT     OW42761   0.095   2.431   1.925
 8553WAT    HW142762   0.134   2.442   1.839
 8553WAT    HW242763   0.144   2.360   1.966
 8553WAT    LP142764   0.102   2.490   1.963
 8553WAT    LP242765   0.027   2.415   1.920
 8554WAT     OW42766   5.573   2.330   2.123
 8554WAT    HW142767   5.514   2.280   2.066
 8554WAT    HW242768   5.531   2.415   2.132
 8554WAT    LP142769   5.579   2.298   2.185
 8554WAT    LP242770   5.636   2.336   2.094
 8555WAT     OW42771   5.382   5.898   5.638
 8555WAT    HW142772   5.333   5.816   5.639
 8555WAT    HW242773   5.338   5.953   5.703
 8555WAT    LP142774   5.449   5.887   5.656
 8555WAT    LP242775   5.379   5.927   5.574
 8556WAT     OW42776   2.473   5.330   1.081
 8556WAT    HW142777   2.512   5.327   1.169
 8556WAT    HW242778   2.401   5.267   1.085
 8556WAT    LP142779   2.449   5.395   1.068
 8556WAT    LP242780   2.520   5.312   1.033
 8557WAT     OW42781   4.335   6.162   3.840
 8557WAT    HW142782   4.305   6.163   3.749
 8557WAT    HW242783   4.427   6.189   3.835
 8557WAT    LP142784   4.298   6.207   3.879
 8557WAT    LP242785   4.330   6.098   3.867
 8558WAT     OW42786   5.593   1.646   0.440
 8558WAT    HW142787   5.649   1.697   0.382
 8558WAT    HW242788   5.538   1.594   0.381
 8558WAT    LP142789   5.631   1.605   0.482
 8558WAT    LP242790   5.554   1.689   0.480
 8559WAT     OW42791   3.569   5.148   1.386
 8559WAT    HW142792   3.577   5.225   1.330
 8559WAT    HW242793   3.503   5.172   1.451
 8559WAT    LP142794   3.548   5.092   1.350
 8559WAT    LP242795   3.630   5.134   1.418
 8560WAT     OW42796   3.825   5.224   4.657
 8560WAT    HW142797   3.748   5.281   4.662
 8560WAT    HW242798   3.856   5.232   4.567
 8560WAT    LP142799   3.874   5.245   4.703
 8560WAT    LP242800   3.807   5.157   4.671
 8561WAT     OW42801   0.069   1.962   2.261
 8561WAT    HW142802   0.016   1.901   2.312
 8561WAT    HW242803   0.118   2.012   2.326
 8561WAT    LP142804   0.112   1.928   2.218
 8561WAT    LP242805   0.027   2.005   2.224
 8562WAT     OW42806   0.446   0.449   5.940
 8562WAT    HW142807   0.398   0.529   5.919
 8562WAT    HW242808   0.450   0.447   6.035
 8562WAT    LP142809   0.413   0.393   5.915
 8562WAT    LP242810   0.511   0.452   5.912
 8563WAT     OW42811   6.261   3.639   2.719
 8563WAT    HW142812   6.168   3.617   2.708
 8563WAT    HW242813   6.292   3.656   2.631
 8563WAT    LP142814   6.268   3.696   2.760
 8563WAT    LP242815   6.295   3.586   2.748
 8564WAT     OW42816   2.062   4.128   3.096
 8564WAT    HW142817   1.984   4.183   3.084
 8564WAT    HW242818   2.098   4.117   3.008
 8564WAT    LP142819   2.108   4.160   3.138
 8564WAT    LP242820   2.045   4.066   3.124
 8565WAT     OW42821   3.646   6.391   5.552
 8565WAT    HW142822   3.718   6.449   5.528
 8565WAT    HW242823   3.676   6.346   5.631
 8565WAT    LP142824   3.588   6.427   5.565
 8565WAT    LP242825   3.633   6.344   5.501
 8566WAT     OW42826   0.216   1.607   0.902
 8566WAT    HW142827   0.296   1.584   0.951
 8566WAT    HW242828   0.248   1.657   0.827
 8566WAT    LP142829   0.183   1.549   0.882
 8566WAT    LP242830   0.174   1.646   0.942
 8567WAT     OW42831   0.879   5.236   2.755
 8567WAT    HW142832   0.961   5.252   2.709
 8567WAT    HW242833   0.885   5.144   2.783
 8567WAT    LP142834   0.872   5.278   2.810
 8567WAT    LP242835   0.824   5.244   2.711
 8568WAT     OW42836   6.181   4.448   5.691
 8568WAT    HW142837   6.115   4.491   5.637
 8568WAT    HW242838   6.186   4.501   5.770
 8568WAT    LP142839   6.161   4.382   5.707
 8568WAT    LP242840   6.242   4.446   5.659
 8569WAT     OW42841   1.773   5.862   3.460
 8569WAT    HW142842   1.831   5.863   3.536
 8569WAT    HW242843   1.799   5.939   3.409
 8569WAT    LP142844   1.782   5.804   3.422
 8569WAT    LP242845   1.706   5.867   3.480
 8570WAT     OW42846   1.048   4.655   0.657
 8570WAT    HW142847   1.062   4.611   0.741
 8570WAT    HW242848   1.018   4.585   0.598
 8570WAT    LP142849   0.999   4.705   0.663
 8570WAT    LP242850   1.107   4.683   0.633
 8571WAT     OW42851   1.483   4.034   1.289
 8571WAT    HW142852   1.435   3.997   1.363
 8571WAT    HW242853   1.571   4.051   1.323
 8571WAT    LP142854   1.486   3.988   1.236
 8571WAT    LP242855   1.453   4.093   1.267
 8572WAT     OW42856   1.534   2.091   2.452
 8572WAT    HW142857   1.608   2.152   2.444
 8572WAT    HW242858   1.551   2.044   2.533
 8572WAT    LP142859   1.474   2.126   2.455
 8572WAT    LP242860   1.533   2.047   2.397
 8573WAT     OW42861   5.465   0.117   3.400
 8573WAT    HW142862   5.502   0.140   3.486
 8573WAT    HW242863   5.525   0.157   3.337
 8573WAT    LP142864   5.464   0.047   3.392
 8573WAT    LP242865   5.401   0.143   3.393
 8574WAT     OW42866   5.790   3.796   1.345
 8574WAT    HW142867   5.859   3.769   1.285
 8574WAT    HW242868   5.804   3.890   1.357
 8574WAT    LP142869   5.727   3.784   1.317
 8574WAT    LP242870   5.795   3.762   1.406
 8575WAT     OW42871   6.717   0.430   1.836
 8575WAT    HW142872   6.676   0.506   1.878
 8575WAT    HW242873   6.646   0.388   1.788
 8575WAT    LP142874   6.768   0.450   1.792
 8575WAT    LP242875   6.743   0.386   1.884
 8576WAT     OW42876   1.646   6.373   5.203
 8576WAT    HW142877   1.641   6.451   5.148
 8576WAT    HW242878   1.694   6.310   5.150
 8576WAT    LP142879   1.681   6.387   5.262
 8576WAT    LP242880   1.583   6.349   5.219
 8577WAT     OW42881   2.986   2.439   2.697
 8577WAT    HW142882   2.950   2.360   2.736
 8577WAT    HW242883   3.070   2.412   2.662
 8577WAT    LP142884   2.944   2.463   2.646
 8577WAT    LP242885   2.994   2.489   2.746
 8578WAT     OW42886   2.321   1.490   1.298
 8578WAT    HW142887   2.301   1.583   1.297
 8578WAT    HW242888   2.244   1.448   1.260
 8578WAT    LP142889   2.378   1.476   1.259
 8578WAT    LP242890   2.332   1.467   1.363
 8579WAT     OW42891   1.506   0.177   3.586
 8579WAT    HW142892   1.495   0.115   3.658
 8579WAT    HW242893   1.417   0.189   3.552
 8579WAT    LP142894   1.533   0.237   3.608
 8579WAT    LP242895   1.548   0.150   3.536
 8580WAT     OW42896   6.374   3.658   1.740
 8580WAT    HW142897   6.332   3.649   1.826
 8580WAT    HW242898   6.302   3.660   1.678
 8580WAT    LP142899   6.412   3.717   1.737
 8580WAT    LP242900   6.416   3.603   1.728
 8581WAT     OW42901   6.362   0.572   4.012
 8581WAT    HW142902   6.378   0.662   4.041
 8581WAT    HW242903   6.267   0.561   4.018
 8581WAT    LP142904   6.383   0.563   3.946
 8581WAT    LP242905   6.394   0.526   4.054
 8582WAT     OW42906   5.873   4.883   3.602
 8582WAT    HW142907   5.903   4.848   3.686
 8582WAT    HW242908   5.778   4.885   3.610
 8582WAT    LP142909   5.899   4.947   3.591
 8582WAT    LP242910   5.893   4.841   3.549
 8583WAT     OW42911   5.329   5.348   1.320
 8583WAT    HW142912   5.366   5.280   1.264
 8583WAT    HW242913   5.368   5.331   1.406
 8583WAT    LP142914   5.348   5.411   1.297
 8583WAT    LP242915   5.260   5.343   1.323
 8584WAT     OW42916   0.492   2.818   0.650
 8584WAT    HW142917   0.550   2.798   0.577
 8584WAT    HW242918   0.549   2.814   0.727
 8584WAT    LP142919   0.464   2.881   0.643
 8584WAT    LP242920   0.441   2.770   0.655
 8585WAT     OW42921   1.392   2.592   4.044
 8585WAT    HW142922   1.409   2.586   4.138
 8585WAT    HW242923   1.297   2.600   4.036
 8585WAT    LP142924   1.424   2.648   4.017
 8585WAT    LP242925   1.415   2.535   4.011
 8586WAT     OW42926   0.468   1.331   1.123
 8586WAT    HW142927   0.456   1.425   1.113
 8586WAT    HW242928   0.383   1.293   1.101
 8586WAT    LP142929   0.517   1.307   1.079
 8586WAT    LP242930   0.487   1.315   1.188
 8587WAT     OW42931   6.107   1.218   6.569
 8587WAT    HW142932   6.195   1.235   6.535
 8587WAT    HW242933   6.101   1.272   6.648
 8587WAT    LP142934   6.058   1.236   6.522
 8587WAT    LP242935   6.100   1.150   6.585
 8588WAT     OW42936   3.290   4.024   4.728
 8588WAT    HW142937   3.307   4.006   4.821
 8588WAT    HW242938   3.204   3.986   4.711
 8588WAT    LP142939   3.290   4.093   4.716
 8588WAT    LP242940   3.339   3.994   4.688
 8589WAT     OW42941   2.602   1.619   4.430
 8589WAT    HW142942   2.537   1.675   4.386
 8589WAT    HW242943   2.617   1.662   4.514
 8589WAT    LP142944   2.578   1.554   4.438
 8589WAT    LP242945   2.662   1.617   4.393
 8590WAT     OW42946   3.431   3.829   4.590
 8590WAT    HW142947   3.394   3.908   4.630
 8590WAT    HW242948   3.371   3.759   4.617
 8590WAT    LP142949   3.432   3.834   4.521
 8590WAT    LP242950   3.495   3.816   4.614
 8591WAT     OW42951   3.749   3.023   3.657
 8591WAT    HW142952   3.745   2.935   3.619
 8591WAT    HW242953   3.831   3.024   3.706
 8591WAT    LP142954   3.749   3.072   3.607
 8591WAT    LP242955   3.695   3.033   3.700
 8592WAT     OW42956   4.232   5.381   5.447
 8592WAT    HW142957   4.170   5.419   5.385
 8592WAT    HW242958   4.178   5.329   5.507
 8592WAT    LP142959   4.278   5.340   5.413
 8592WAT    LP242960   4.266   5.431   5.482
 8593WAT     OW42961   0.153   5.501   3.729
 8593WAT    HW142962   0.182   5.586   3.696
 8593WAT    HW242963   0.079   5.522   3.786
 8593WAT    LP142964   0.132   5.460   3.677
 8593WAT    LP242965   0.204   5.470   3.765
 8594WAT     OW42966   0.700   6.250   5.698
 8594WAT    HW142967   0.674   6.206   5.617
 8594WAT    HW242968   0.730   6.336   5.669
 8594WAT    LP142969   0.646   6.255   5.741
 8594WAT    LP242970   0.752   6.215   5.729
 8595WAT     OW42971   2.399   2.723   2.873
 8595WAT    HW142972   2.434   2.686   2.792
 8595WAT    HW242973   2.376   2.646   2.926
 8595WAT    LP142974   2.447   2.762   2.906
 8595WAT    LP242975   2.342   2.762   2.860
 8596WAT     OW42976   2.782   0.257   6.318
 8596WAT    HW142977   2.770   0.309   6.398
 8596WAT    HW242978   2.860   0.295   6.277
 8596WAT    LP142979   2.793   0.190   6.333
 8596WAT    LP242980   2.727   0.263   6.276
 8597WAT     OW42981   5.025   2.261   2.023
 8597WAT    HW142982   4.982   2.317   2.087
 8597WAT    HW242983   5.020   2.173   2.062
 8597WAT    LP142984   4.991   2.263   1.962
 8597WAT    LP242985   5.092   2.280   2.014
 8598WAT     OW42986   4.959   0.164   4.259
 8598WAT    HW142987   4.974   0.073   4.236
 8598WAT    HW242988   4.902   0.198   4.189
 8598WAT    LP142989   4.927   0.169   4.321
 8598WAT    LP242990   5.019   0.200   4.261
 8599WAT     OW42991   0.998   1.289   1.189
 8599WAT    HW142992   0.911   1.290   1.228
 8599WAT    HW242993   0.984   1.311   1.097
 8599WAT    LP142994   1.040   1.337   1.220
 8599WAT    LP242995   1.027   1.226   1.195
 8600WAT     OW42996   0.907   3.402   5.886
 8600WAT    HW142997   0.963   3.326   5.897
 8600WAT    HW242998   0.943   3.448   5.810
 8600WAT    LP142999   0.841   3.382   5.873
 8600WAT    LP243000   0.908   3.442   5.943
 8601WAT     OW43001   3.393   4.896   2.118
 8601WAT    HW143002   3.482   4.899   2.152
 8601WAT    HW243003   3.375   4.986   2.089
 8601WAT    LP143004   3.389   4.851   2.064
 8601WAT    LP243005   3.348   4.877   2.168
 8602WAT     OW43006   1.710   0.202   2.663
 8602WAT    HW143007   1.637   0.249   2.704
 8602WAT    HW243008   1.685   0.109   2.670
 8602WAT    LP143009   1.717   0.220   2.596
 8602WAT    LP243010   1.770   0.214   2.698
 8603WAT     OW43011   0.528   1.984   1.543
 8603WAT    HW143012   0.611   1.979   1.497
 8603WAT    HW243013   0.552   1.990   1.636
 8603WAT    LP143014   0.492   2.040   1.524
 8603WAT    LP243015   0.489   1.926   1.532
 8604WAT     OW43016   5.248   0.961   4.644
 8604WAT    HW143017   5.152   0.961   4.642
 8604WAT    HW243018   5.270   0.915   4.725
 8604WAT    LP143019   5.274   0.927   4.588
 8604WAT    LP243020   5.273   1.026   4.644
 8605WAT     OW43021   6.620   0.079   0.367
 8605WAT    HW143022   6.627   0.068   0.461
 8605WAT    HW243023   6.609  -0.009   0.333
 8605WAT    LP143024   6.564   0.119   0.351
 8605WAT    LP243025   6.677   0.109   0.340
 8606WAT     OW43026   5.472   0.760   3.662
 8606WAT    HW143027   5.434   0.689   3.611
 8606WAT    HW243028   5.551   0.722   3.701
 8606WAT    LP143029   5.488   0.814   3.621
 8606WAT    LP243030   5.428   0.781   3.712
 8607WAT     OW43031   4.494   0.597   0.838
 8607WAT    HW143032   4.557   0.602   0.766
 8607WAT    HW243033   4.518   0.517   0.885
 8607WAT    LP143034   4.499   0.653   0.879
 8607WAT    LP243035   4.428   0.592   0.813
 8608WAT     OW43036   6.724   2.509   5.702
 8608WAT    HW143037   6.798   2.544   5.751
 8608WAT    HW243038   6.754   2.505   5.612
 8608WAT    LP143039   6.707   2.445   5.725
 8608WAT    LP243040   6.668   2.552   5.708
 8609WAT     OW43041   1.843   6.378   6.205
 8609WAT    HW143042   1.884   6.461   6.180
 8609WAT    HW243043   1.899   6.344   6.275
 8609WAT    LP143044   1.778   6.389   6.229
 8609WAT    LP243045   1.841   6.334   6.151
 8610WAT     OW43046   3.779   0.786   5.612
 8610WAT    HW143047   3.832   0.736   5.550
 8610WAT    HW243048   3.839   0.850   5.649
 8610WAT    LP143049   3.726   0.817   5.580
 8610WAT    LP243050   3.754   0.744   5.662
 8611WAT     OW43051   0.766   6.237   2.424
 8611WAT    HW143052   0.858   6.229   2.397
 8611WAT    HW243053   0.752   6.163   2.483
 8611WAT    LP143054   0.755   6.298   2.457
 8611WAT    LP243055   0.724   6.233   2.369
 8612WAT     OW43056   2.684   2.224   3.412
 8612WAT    HW143057   2.719   2.229   3.500
 8612WAT    HW243058   2.760   2.239   3.355
 8612WAT    LP143059   2.656   2.161   3.399
 8612WAT    LP243060   2.635   2.273   3.401
 8613WAT     OW43061   6.704   5.124   1.991
 8613WAT    HW143062   6.766   5.194   1.970
 8613WAT    HW243063   6.650   5.160   2.061
 8613WAT    LP143064   6.664   5.109   1.935
 8613WAT    LP243065   6.737   5.067   2.012
 8614WAT     OW43066   5.244   3.423   2.552
 8614WAT    HW143067   5.269   3.504   2.508
 8614WAT    HW243068   5.286   3.429   2.638
 8614WAT    LP143069   5.174   3.419   2.560
 8614WAT    LP243070   5.267   3.367   2.517
 8615WAT     OW43071   0.002   1.023   0.860
 8615WAT    HW143072  -0.010   1.110   0.896
 8615WAT    HW243073   0.027   0.969   0.935
 8615WAT    LP143074  -0.057   0.999   0.831
 8615WAT    LP243075   0.053   1.023   0.812
 8616WAT     OW43076   6.743   0.206   3.231
 8616WAT    HW143077   6.770   0.131   3.179
 8616WAT    HW243078   6.704   0.267   3.168
 8616WAT    LP143079   6.696   0.188   3.280
 8616WAT    LP243080   6.798   0.235   3.263
 8617WAT     OW43081   0.033   2.046   6.023
 8617WAT    HW143082  -0.053   2.089   6.025
 8617WAT    HW243083   0.016   1.958   6.058
 8617WAT    LP143084   0.058   2.043   5.958
 8617WAT    LP243085   0.078   2.081   6.064
 8618WAT     OW43086   5.605   3.043   3.431
 8618WAT    HW143087   5.624   3.111   3.495
 8618WAT    HW243088   5.521   3.068   3.393
 8618WAT    LP143089   5.654   3.041   3.381
 8618WAT    LP243090   5.601   2.980   3.462
 8619WAT     OW43091   0.500   3.849   5.194
 8619WAT    HW143092   0.518   3.935   5.234
 8619WAT    HW243093   0.405   3.838   5.205
 8619WAT    LP143094   0.517   3.849   5.127
 8619WAT    LP243095   0.535   3.799   5.228
 8620WAT     OW43096   4.659   4.213   5.083
 8620WAT    HW143097   4.676   4.298   5.124
 8620WAT    HW243098   4.571   4.221   5.047
 8620WAT    LP143099   4.706   4.200   5.033
 8620WAT    LP243100   4.662   4.162   5.131
 8621WAT     OW43101   5.289   0.816   4.423
 8621WAT    HW143102   5.286   0.872   4.501
 8621WAT    HW243103   5.247   0.735   4.450
 8621WAT    LP143104   5.254   0.846   4.370
 8621WAT    LP243105   5.355   0.805   4.403
 8622WAT     OW43106   4.633   0.312   4.601
 8622WAT    HW143107   4.642   0.402   4.570
 8622WAT    HW243108   4.672   0.259   4.532
 8622WAT    LP143109   4.667   0.303   4.661
 8622WAT    LP243110   4.565   0.296   4.610
 8623WAT     OW43111   0.747   1.115   0.158
 8623WAT    HW143112   0.843   1.108   0.165
 8623WAT    HW243113   0.714   1.045   0.213
 8623WAT    LP143114   0.726   1.178   0.181
 8623WAT    LP243115   0.727   1.106   0.092
 8624WAT     OW43116   1.764   5.203   2.641
 8624WAT    HW143117   1.728   5.180   2.555
 8624WAT    HW243118   1.720   5.144   2.702
 8624WAT    LP143119   1.833   5.193   2.642
 8624WAT    LP243120   1.749   5.270   2.656
 8625WAT     OW43121   0.709   6.549   0.005
 8625WAT    HW143122   0.619   6.558   0.035
 8625WAT    HW243123   0.762   6.591   0.073
 8625WAT    LP143124   0.727   6.481  -0.002
 8625WAT    LP243125   0.718   6.582  -0.056
 8626WAT     OW43126   3.454   1.734   3.727
 8626WAT    HW143127   3.434   1.659   3.783
 8626WAT    HW243128   3.482   1.694   3.644
 8626WAT    LP143129   3.397   1.773   3.717
 8626WAT    LP243130   3.505   1.773   3.754
 8627WAT     OW43131   1.607   6.224   4.809
 8627WAT    HW143132   1.629   6.191   4.722
 8627WAT    HW243133   1.513   6.213   4.816
 8627WAT    LP143134   1.640   6.187   4.858
 8627WAT    LP243135   1.625   6.292   4.814
 8628WAT     OW43136   5.311   1.991   3.847
 8628WAT    HW143137   5.271   1.993   3.934
 8628WAT    HW243138   5.257   1.931   3.797
 8628WAT    LP143139   5.311   2.055   3.818
 8628WAT    LP243140   5.377   1.968   3.851
 8629WAT     OW43141   4.957   0.718   2.169
 8629WAT    HW143142   4.984   0.703   2.260
 8629WAT    HW243143   4.965   0.633   2.127
 8629WAT    LP143144   4.891   0.742   2.167
 8629WAT    LP243145   5.000   0.765   2.139
 8630WAT     OW43146   2.202   6.116   1.992
 8630WAT    HW143147   2.114   6.079   1.982
 8630WAT    HW243148   2.186   6.209   2.011
 8630WAT    LP143149   2.235   6.086   2.046
 8630WAT    LP243150   2.239   6.108   1.934
 8631WAT     OW43151   5.351   1.434   4.633
 8631WAT    HW143152   5.371   1.347   4.598
 8631WAT    HW243153   5.327   1.418   4.724
 8631WAT    LP143154   5.406   1.476   4.628
 8631WAT    LP243155   5.297   1.462   4.598
 8632WAT     OW43156   0.869   1.797   3.257
 8632WAT    HW143157   0.832   1.708   3.255
 8632WAT    HW243158   0.952   1.788   3.303
 8632WAT    LP143159   0.879   1.821   3.192
 8632WAT    LP243160   0.826   1.840   3.291
 8633WAT     OW43161   6.518   3.898   1.785
 8633WAT    HW143162   6.505   3.938   1.699
 8633WAT    HW243163   6.484   3.809   1.775
 8633WAT    LP143164   6.586   3.897   1.802
 8633WAT    LP243165   6.482   3.933   1.833
 8634WAT     OW43166   2.318   1.418   0.335
 8634WAT    HW143167   2.244   1.437   0.277
 8634WAT    HW243168   2.339   1.327   0.316
 8634WAT    LP143169   2.372   1.460   0.320
 8634WAT    LP243170   2.300   1.426   0.402
 8635WAT     OW43171   5.346   4.863   0.407
 8635WAT    HW143172   5.432   4.899   0.384
 8635WAT    HW243173   5.299   4.859   0.323
 8635WAT    LP143174   5.352   4.799   0.435
 8635WAT    LP243175   5.312   4.905   0.452
 8636WAT     OW43176   0.884   2.104   2.451
 8636WAT    HW143177   0.970   2.139   2.427
 8636WAT    HW243178   0.844   2.080   2.368
 8636WAT    LP143179   0.890   2.049   2.493
 8636WAT    LP243180   0.846   2.154   2.483
 8637WAT     OW43181   0.231   2.699   3.987
 8637WAT    HW143182   0.163   2.642   3.950
 8637WAT    HW243183   0.191   2.738   4.064
 8637WAT    LP143184   0.288   2.662   4.004
 8637WAT    LP243185   0.249   2.749   3.941
 8638WAT     OW43186   4.160   0.493   5.444
 8638WAT    HW143187   4.236   0.521   5.394
 8638WAT    HW243188   4.123   0.420   5.394
 8638WAT    LP143189   4.179   0.471   5.508
 8638WAT    LP243190   4.114   0.545   5.450
 8639WAT     OW43191   4.400   3.757   2.930
 8639WAT    HW143192   4.314   3.720   2.948
 8639WAT    HW243193   4.414   3.742   2.836
 8639WAT    LP143194   4.401   3.826   2.944
 8639WAT    LP243195   4.450   3.726   2.967
 8640WAT     OW43196   5.384   5.688   6.553
 8640WAT    HW143197   5.290   5.698   6.569
 8640WAT    HW243198   5.425   5.747   6.616
 8640WAT    LP143199   5.404   5.622   6.564
 8640WAT    LP243200   5.400   5.707   6.487
 8641WAT     OW43201   3.168   5.563   1.436
 8641WAT    HW143202   3.109   5.503   1.392
 8641WAT    HW243203   3.126   5.649   1.428
 8641WAT    LP143204   3.176   5.546   1.503
 8641WAT    LP243205   3.231   5.564   1.404
 8642WAT     OW43206   3.753   6.361   2.664
 8642WAT    HW143207   3.746   6.275   2.623
 8642WAT    HW243208   3.813   6.347   2.738
 8642WAT    LP143209   3.780   6.408   2.619
 8642WAT    LP243210   3.690   6.383   2.686
 8643WAT     OW43211   2.477   1.270   1.215
 8643WAT    HW143212   2.426   1.343   1.251
 8643WAT    HW243213   2.423   1.237   1.143
 8643WAT    LP143214   2.538   1.293   1.191
 8643WAT    LP243215   2.487   1.221   1.263
 8644WAT     OW43216   5.809   5.667   0.453
 8644WAT    HW143217   5.862   5.713   0.518
 8644WAT    HW243218   5.719   5.675   0.486
 8644WAT    LP143219   5.814   5.697   0.390
 8644WAT    LP243220   5.827   5.600   0.449
 8645WAT     OW43221   0.318   1.263   5.762
 8645WAT    HW143222   0.343   1.344   5.805
 8645WAT    HW243223   0.234   1.283   5.720
 8645WAT    LP143224   0.365   1.244   5.715
 8645WAT    LP243225   0.310   1.211   5.809
 8646WAT     OW43226   0.600   3.543   0.393
 8646WAT    HW143227   0.511   3.515   0.416
 8646WAT    HW243228   0.656   3.472   0.424
 8646WAT    LP143229   0.606   3.550   0.323
 8646WAT    LP243230   0.616   3.603   0.424
 8647WAT     OW43231   1.503   1.538   4.761
 8647WAT    HW143232   1.589   1.498   4.749
 8647WAT    HW243233   1.466   1.544   4.673
 8647WAT    LP143234   1.462   1.498   4.802
 8647WAT    LP243235   1.509   1.602   4.790
 8648WAT     OW43236   3.512   3.624   2.507
 8648WAT    HW143237   3.550   3.698   2.554
 8648WAT    HW243238   3.519   3.550   2.568
 8648WAT    LP143239   3.444   3.636   2.491
 8648WAT    LP243240   3.547   3.611   2.448
 8649WAT     OW43241   3.081   2.674   6.034
 8649WAT    HW143242   3.110   2.658   5.944
 8649WAT    HW243243   2.987   2.686   6.027
 8649WAT    LP143244   3.096   2.618   6.074
 8649WAT    LP243245   3.112   2.731   6.060
 8650WAT     OW43246   2.332   0.681   0.786
 8650WAT    HW143247   2.280   0.760   0.776
 8650WAT    HW243248   2.311   0.628   0.708
 8650WAT    LP143249   2.400   0.696   0.787
 8650WAT    LP243250   2.314   0.646   0.844
 8651WAT     OW43251   0.982   3.074   5.234
 8651WAT    HW143252   1.015   3.055   5.146
 8651WAT    HW243253   1.015   3.162   5.253
 8651WAT    LP143254   0.912   3.072   5.235
 8651WAT    LP243255   1.008   3.028   5.280
 8652WAT     OW43256   0.526   5.086   6.147
 8652WAT    HW143257   0.493   5.176   6.141
 8652WAT    HW243258   0.578   5.074   6.068
 8652WAT    LP143259   0.566   5.078   6.204
 8652WAT    LP243260   0.473   5.040   6.150
 8653WAT     OW43261   3.523   1.655   3.468
 8653WAT    HW143262   3.580   1.588   3.431
 8653WAT    HW243263   3.557   1.737   3.433
 8653WAT    LP143264   3.457   1.645   3.448
 8653WAT    LP243265   3.527   1.655   3.538
 8654WAT     OW43266   5.491   5.429   4.135
 8654WAT    HW143267   5.508   5.523   4.137
 8654WAT    HW243268   5.572   5.391   4.101
 8654WAT    LP143269   5.477   5.405   4.199
 8654WAT    LP243270   5.438   5.415   4.092
 8655WAT     OW43271   2.195   2.093   5.381
 8655WAT    HW143272   2.251   2.138   5.318
 8655WAT    HW243273   2.197   2.001   5.353
 8655WAT    LP143274   2.221   2.099   5.446
 8655WAT    LP243275   2.130   2.118   5.379
 8656WAT     OW43276   2.215   0.084   5.978
 8656WAT    HW143277   2.174   0.155   5.929
 8656WAT    HW243278   2.264   0.128   6.048
 8656WAT    LP143279   2.166   0.042   6.005
 8656WAT    LP243280   2.258   0.047   5.937
 8657WAT     OW43281   2.920   1.288   2.709
 8657WAT    HW143282   2.989   1.264   2.647
 8657WAT    HW243283   2.963   1.346   2.772
 8657WAT    LP143284   2.868   1.322   2.676
 8657WAT    LP243285   2.894   1.232   2.741
 8658WAT     OW43286   5.545   5.750   6.338
 8658WAT    HW143287   5.482   5.713   6.400
 8658WAT    HW243288   5.501   5.744   6.253
 8658WAT    LP143289   5.559   5.816   6.354
 8658WAT    LP243290   5.604   5.713   6.338
 8659WAT     OW43291   3.506   0.405   6.063
 8659WAT    HW143292   3.539   0.414   5.973
 8659WAT    HW243293   3.549   0.475   6.112
 8659WAT    LP143294   3.437   0.412   6.065
 8659WAT    LP243295   3.524   0.342   6.089
 8660WAT     OW43296   6.437   0.473   3.770
 8660WAT    HW143297   6.436   0.556   3.721
 8660WAT    HW243298   6.420   0.499   3.861
 8660WAT    LP143299   6.388   0.430   3.747
 8660WAT    LP243300   6.500   0.443   3.765
 8661WAT     OW43301   3.418   0.770   4.667
 8661WAT    HW143302   3.358   0.722   4.610
 8661WAT    HW243303   3.362   0.834   4.711
 8661WAT    LP143304   3.448   0.727   4.714
 8661WAT    LP243305   3.467   0.802   4.630
 8662WAT     OW43306   5.050   0.975   0.227
 8662WAT    HW143307   5.016   1.029   0.156
 8662WAT    HW243308   5.143   0.965   0.206
 8662WAT    LP143309   5.042   1.006   0.289
 8662WAT    LP243310   5.018   0.912   0.228
 8663WAT     OW43311   4.953   0.321   5.784
 8663WAT    HW143312   4.920   0.395   5.733
 8663WAT    HW243313   4.981   0.360   5.867
 8663WAT    LP143314   4.902   0.275   5.795
 8663WAT    LP243315   5.006   0.290   5.752
 8664WAT     OW43316   5.243   0.502   6.618
 8664WAT    HW143317   5.269   0.566   6.684
 8664WAT    HW243318   5.156   0.472   6.646
 8664WAT    LP143319   5.240   0.532   6.555
 8664WAT    LP243320   5.288   0.448   6.616
 8665WAT     OW43321   1.031   0.209   4.871
 8665WAT    HW143322   1.007   0.199   4.963
 8665WAT    HW243323   1.044   0.120   4.839
 8665WAT    LP143324   0.980   0.241   4.836
 8665WAT    LP243325   1.090   0.247   4.865
 8666WAT     OW43326   1.926   2.659   2.753
 8666WAT    HW143327   1.875   2.578   2.763
 8666WAT    HW243328   1.958   2.677   2.842
 8666WAT    LP143329   1.980   2.648   2.709
 8666WAT    LP243330   1.887   2.711   2.729
 8667WAT     OW43331   2.997   3.043   4.889
 8667WAT    HW143332   2.976   3.010   4.801
 8667WAT    HW243333   2.938   3.117   4.901
 8667WAT    LP143334   2.985   2.993   4.937
 8667WAT    LP243335   3.064   3.063   4.892
 8668WAT     OW43336   0.807   0.094   1.313
 8668WAT    HW143337   0.764   0.008   1.313
 8668WAT    HW243338   0.743   0.153   1.351
 8668WAT    LP143339   0.865   0.092   1.352
 8668WAT    LP243340   0.823   0.113   1.248
 8669WAT     OW43341   3.034   6.229   6.512
 8669WAT    HW143342   2.958   6.213   6.567
 8669WAT    HW243343   3.109   6.206   6.567
 8669WAT    LP143344   3.032   6.189   6.455
 8669WAT    LP243345   3.038   6.296   6.493
 8670WAT     OW43346   0.172   1.432   1.886
 8670WAT    HW143347   0.110   1.503   1.901
 8670WAT    HW243348   0.258   1.470   1.908
 8670WAT    LP143349   0.158   1.378   1.928
 8670WAT    LP243350   0.171   1.410   1.820
 8671WAT     OW43351   0.874   3.543   6.118
 8671WAT    HW143352   0.791   3.591   6.118
 8671WAT    HW243353   0.877   3.499   6.033
 8671WAT    LP143354   0.928   3.587   6.125
 8671WAT    LP243355   0.875   3.496   6.170
 8672WAT     OW43356   6.034   3.875   2.650
 8672WAT    HW143357   6.016   3.781   2.656
 8672WAT    HW243358   5.965   3.910   2.594
 8672WAT    LP143359   6.032   3.905   2.714
 8672WAT    LP243360   6.097   3.886   2.622
 8673WAT     OW43361   5.820   3.005   5.616
 8673WAT    HW143362   5.830   3.009   5.521
 8673WAT    HW243363   5.729   3.030   5.631
 8673WAT    LP143364   5.833   2.941   5.640
 8673WAT    LP243365   5.864   3.050   5.647
 8674WAT     OW43366   1.428   5.576   2.209
 8674WAT    HW143367   1.410   5.484   2.232
 8674WAT    HW243368   1.522   5.586   2.222
 8674WAT    LP143369   1.410   5.588   2.143
 8674WAT    LP243370   1.392   5.619   2.251
 8675WAT     OW43371   4.149   3.903   4.065
 8675WAT    HW143372   4.150   3.881   4.158
 8675WAT    HW243373   4.143   3.819   4.020
 8675WAT    LP143374   4.094   3.944   4.050
 8675WAT    LP243375   4.208   3.937   4.048
 8676WAT     OW43376   5.611   6.023   1.823
 8676WAT    HW143377   5.527   6.044   1.863
 8676WAT    HW243378   5.667   6.000   1.897
 8676WAT    LP143379   5.605   5.970   1.779
 8676WAT    LP243380   5.637   6.079   1.789
 8677WAT     OW43381   0.629   1.615   2.523
 8677WAT    HW143382   0.588   1.534   2.551
 8677WAT    HW243383   0.559   1.680   2.526
 8677WAT    LP143384   0.681   1.633   2.566
 8677WAT    LP243385   0.654   1.609   2.458
 8678WAT     OW43386   0.020   4.909   4.588
 8678WAT    HW143387   0.111   4.880   4.581
 8678WAT    HW243388   0.015   4.952   4.673
 8678WAT    LP143389   0.005   4.954   4.536
 8678WAT    LP243390  -0.023   4.854   4.585
 8679WAT     OW43391   3.122   5.807   3.085
 8679WAT    HW143392   3.199   5.751   3.095
 8679WAT    HW243393   3.156   5.896   3.081
 8679WAT    LP143394   3.087   5.791   3.026
 8679WAT    LP243395   3.079   5.799   3.140
 8680WAT     OW43396   2.748   3.158   5.484
 8680WAT    HW143397   2.812   3.141   5.554
 8680WAT    HW243398   2.782   3.236   5.439
 8680WAT    LP143399   2.745   3.104   5.441
 8680WAT    LP243400   2.685   3.171   5.511
 8681WAT     OW43401   6.771   4.670   5.963
 8681WAT    HW143402   6.731   4.584   5.974
 8681WAT    HW243403   6.862   4.658   5.993
 8681WAT    LP143404   6.770   4.690   5.896
 8681WAT    LP243405   6.739   4.718   6.003
 8682WAT     OW43406   4.875   0.765   0.207
 8682WAT    HW143407   4.793   0.806   0.235
 8682WAT    HW243408   4.941   0.833   0.220
 8682WAT    LP143409   4.890   0.709   0.247
 8682WAT    LP243410   4.872   0.746   0.140
 8683WAT     OW43411   1.556   3.524   4.031
 8683WAT    HW143412   1.644   3.546   4.002
 8683WAT    HW243413   1.501   3.537   3.954
 8683WAT    LP143414   1.552   3.458   4.053
 8683WAT    LP243415   1.536   3.567   4.083
 8684WAT     OW43416   5.622   1.669   3.736
 8684WAT    HW143417   5.644   1.615   3.812
 8684WAT    HW243418   5.565   1.612   3.683
 8684WAT    LP143419   5.588   1.727   3.755
 8684WAT    LP243420   5.680   1.686   3.700
 8685WAT     OW43421   5.992   3.606   2.679
 8685WAT    HW143422   5.959   3.592   2.768
 8685WAT    HW243423   5.938   3.550   2.624
 8685WAT    LP143424   5.984   3.673   2.661
 8685WAT    LP243425   6.059   3.588   2.674
 8686WAT     OW43426   2.787   0.559   6.101
 8686WAT    HW143427   2.824   0.583   6.016
 8686WAT    HW243428   2.858   0.513   6.146
 8686WAT    LP143429   2.768   0.617   6.137
 8686WAT    LP243430   2.731   0.517   6.093
 8687WAT     OW43431   5.445   6.528   3.405
 8687WAT    HW143432   5.436   6.623   3.399
 8687WAT    HW243433   5.497   6.513   3.483
 8687WAT    LP143434   5.382   6.498   3.411
 8687WAT    LP243435   5.478   6.503   3.348
 8688WAT     OW43436   3.696   5.807   1.562
 8688WAT    HW143437   3.603   5.819   1.542
 8688WAT    HW243438   3.733   5.774   1.481
 8688WAT    LP143439   3.725   5.868   1.580
 8688WAT    LP243440   3.704   5.761   1.614
 8689WAT     OW43441   0.663   0.437   1.641
 8689WAT    HW143442   0.665   0.522   1.596
 8689WAT    HW243443   0.586   0.442   1.698
 8689WAT    LP143444   0.656   0.385   1.594
 8689WAT    LP243445   0.721   0.428   1.679
 8690WAT     OW43446   5.534   0.946   0.341
 8690WAT    HW143447   5.541   0.975   0.250
 8690WAT    HW243448   5.576   0.860   0.342
 8690WAT    LP143449   5.566   0.990   0.384
 8690WAT    LP243450   5.466   0.941   0.360
 8691WAT     OW43451   4.443   5.325   4.742
 8691WAT    HW143452   4.486   5.306   4.658
 8691WAT    HW243453   4.507   5.375   4.792
 8691WAT    LP143454   4.385   5.363   4.731
 8691WAT    LP243455   4.426   5.266   4.775
 8692WAT     OW43456   6.656   4.914   4.205
 8692WAT    HW143457   6.738   4.874   4.177
 8692WAT    HW243458   6.624   4.960   4.128
 8692WAT    LP143459   6.610   4.865   4.225
 8692WAT    LP243460   6.666   4.958   4.258
 8693WAT     OW43461   0.276   3.017   6.319
 8693WAT    HW143462   0.363   3.046   6.292
 8693WAT    HW243463   0.292   2.944   6.379
 8693WAT    LP143464   0.242   3.068   6.352
 8693WAT    LP243465   0.239   2.996   6.264
 8694WAT     OW43466   6.583   2.189   6.039
 8694WAT    HW143467   6.573   2.255   5.971
 8694WAT    HW243468   6.502   2.138   6.037
 8694WAT    LP143469   6.638   2.147   6.025
 8694WAT    LP243470   6.592   2.219   6.102
 8695WAT     OW43471   1.698   0.296   5.619
 8695WAT    HW143472   1.678   0.388   5.637
 8695WAT    HW243473   1.672   0.250   5.699
 8695WAT    LP143474   1.660   0.274   5.564
 8695WAT    LP243475   1.766   0.288   5.606
 8696WAT     OW43476   6.473   3.032   5.524
 8696WAT    HW143477   6.505   3.122   5.530
 8696WAT    HW243478   6.483   3.009   5.432
 8696WAT    LP143479   6.510   2.990   5.564
 8696WAT    LP243480   6.405   3.029   5.543
 8697WAT     OW43481   6.605   2.575   2.177
 8697WAT    HW143482   6.695   2.607   2.181
 8697WAT    HW243483   6.612   2.481   2.195
 8697WAT    LP143484   6.565   2.606   2.226
 8697WAT    LP243485   6.577   2.586   2.114
 8698WAT     OW43486   0.089   4.889   5.017
 8698WAT    HW143487   0.018   4.842   5.060
 8698WAT    HW243488   0.047   4.940   4.949
 8698WAT    LP143489   0.123   4.930   5.062
 8698WAT    LP243490   0.135   4.843   4.989
 8699WAT     OW43491   6.709   1.714   3.977
 8699WAT    HW143492   6.746   1.629   3.951
 8699WAT    HW243493   6.638   1.692   4.037
 8699WAT    LP143494   6.757   1.753   4.010
 8699WAT    LP243495   6.685   1.748   3.921
 8700WAT     OW43496   4.504   2.057   0.447
 8700WAT    HW143497   4.489   1.963   0.440
 8700WAT    HW243498   4.592   2.065   0.485
 8700WAT    LP143499   4.502   2.088   0.384
 8700WAT    LP243500   4.457   2.087   0.489
 8701WAT     OW43501   6.201   3.020   5.565
 8701WAT    HW143502   6.296   3.025   5.551
 8701WAT    HW243503   6.192   3.015   5.660
 8701WAT    LP143504   6.169   3.076   5.540
 8701WAT    LP243505   6.175   2.962   5.535
 8702WAT     OW43506   3.513   3.394   3.664
 8702WAT    HW143507   3.494   3.434   3.579
 8702WAT    HW243508   3.604   3.418   3.682
 8702WAT    LP143509   3.471   3.420   3.714
 8702WAT    LP243510   3.506   3.325   3.662
 8703WAT     OW43511   1.054   5.025   3.417
 8703WAT    HW143512   1.087   5.003   3.504
 8703WAT    HW243513   0.961   5.003   3.420
 8703WAT    LP143514   1.063   5.093   3.403
 8703WAT    LP243515   1.087   4.987   3.368
 8704WAT     OW43516   1.893   6.178   3.810
 8704WAT    HW143517   1.858   6.177   3.722
 8704WAT    HW243518   1.935   6.263   3.818
 8704WAT    LP143519   1.842   6.171   3.858
 8704WAT    LP243520   1.939   6.126   3.819
 8705WAT     OW43521   4.510   6.654   2.712
 8705WAT    HW143522   4.604   6.634   2.713
 8705WAT    HW243523   4.499   6.715   2.639
 8705WAT    LP143524   4.472   6.596   2.702
 8705WAT    LP243525   4.491   6.684   2.772
 8706WAT     OW43526   5.098   4.747   3.987
 8706WAT    HW143527   5.058   4.660   3.990
 8706WAT    HW243528   5.186   4.734   4.021
 8706WAT    LP143529   5.100   4.771   3.921
 8706WAT    LP243530   5.062   4.792   4.027
 8707WAT     OW43531   1.112   1.563   1.769
 8707WAT    HW143532   1.169   1.546   1.844
 8707WAT    HW243533   1.171   1.598   1.702
 8707WAT    LP143534   1.082   1.504   1.747
 8707WAT    LP243535   1.063   1.610   1.785
 8708WAT     OW43536   5.825   3.148   0.670
 8708WAT    HW143537   5.854   3.173   0.582
 8708WAT    HW243538   5.758   3.212   0.692
 8708WAT    LP143539   5.799   3.083   0.669
 8708WAT    LP243540   5.879   3.151   0.715
 8709WAT     OW43541   5.352   2.187   1.118
 8709WAT    HW143542   5.291   2.226   1.180
 8709WAT    HW243543   5.322   2.096   1.109
 8709WAT    LP143544   5.350   2.220   1.057
 8709WAT    LP243545   5.418   2.188   1.143
 8710WAT     OW43546   2.862   3.771   1.470
 8710WAT    HW143547   2.918   3.736   1.540
 8710WAT    HW243548   2.832   3.855   1.503
 8710WAT    LP143549   2.899   3.779   1.411
 8710WAT    LP243550   2.809   3.728   1.458
 8711WAT     OW43551   4.417   3.479   5.187
 8711WAT    HW143552   4.372   3.504   5.107
 8711WAT    HW243553   4.500   3.526   5.184
 8711WAT    LP143554   4.380   3.498   5.244
 8711WAT    LP243555   4.428   3.410   5.189
 8712WAT     OW43556   2.538   4.789   2.880
 8712WAT    HW143557   2.619   4.825   2.843
 8712WAT    HW243558   2.500   4.861   2.930
 8712WAT    LP143559   2.494   4.769   2.828
 8712WAT    LP243560   2.551   4.734   2.921
 8713WAT     OW43561   1.729   0.869   2.638
 8713WAT    HW143562   1.685   0.861   2.723
 8713WAT    HW243563   1.687   0.803   2.584
 8713WAT    LP143564   1.719   0.933   2.611
 8713WAT    LP243565   1.797   0.857   2.645
 8714WAT     OW43566   4.044   0.668   0.564
 8714WAT    HW143567   4.115   0.624   0.610
 8714WAT    HW243568   4.013   0.734   0.626
 8714WAT    LP143569   4.068   0.698   0.505
 8714WAT    LP243570   3.993   0.623   0.549
 8715WAT     OW43571   3.789   1.656   6.129
 8715WAT    HW143572   3.810   1.607   6.050
 8715WAT    HW243573   3.835   1.740   6.118
 8715WAT    LP143574   3.720   1.667   6.134
 8715WAT    LP243575   3.812   1.623   6.186
 8716WAT     OW43576   3.561   5.385   0.130
 8716WAT    HW143577   3.494   5.442   0.167
 8716WAT    HW243578   3.644   5.425   0.158
 8716WAT    LP143579   3.555   5.320   0.156
 8716WAT    LP243580   3.557   5.383   0.061
 8717WAT     OW43581   3.823   0.091   2.658
 8717WAT    HW143582   3.898   0.076   2.717
 8717WAT    HW243583   3.751   0.111   2.717
 8717WAT    LP143584   3.836   0.144   2.615
 8717WAT    LP243585   3.809   0.033   2.621
 8718WAT     OW43586   0.395   3.470   5.438
 8718WAT    HW143587   0.482   3.508   5.451
 8718WAT    HW243588   0.403   3.380   5.470
 8718WAT    LP143589   0.347   3.505   5.474
 8718WAT    LP243590   0.378   3.471   5.370
 8719WAT     OW43591   1.397   1.612   3.419
 8719WAT    HW143592   1.364   1.643   3.503
 8719WAT    HW243593   1.461   1.544   3.442
 8719WAT    LP143594   1.345   1.585   3.381
 8719WAT    LP243595   1.428   1.664   3.384
 8720WAT     OW43596   6.425   1.881   1.060
 8720WAT    HW143597   6.468   1.798   1.080
 8720WAT    HW243598   6.340   1.876   1.105
 8720WAT    LP143599   6.463   1.935   1.084
 8720WAT    LP243600   6.416   1.888   0.991
 8721WAT     OW43601   1.006   1.999   4.634
 8721WAT    HW143602   1.010   1.930   4.701
 8721WAT    HW243603   0.974   1.954   4.555
 8721WAT    LP143604   0.961   2.050   4.653
 8721WAT    LP243605   1.069   2.027   4.623
 8722WAT     OW43606   0.399   2.496   5.740
 8722WAT    HW143607   0.467   2.562   5.735
 8722WAT    HW243608   0.436   2.426   5.793
 8722WAT    LP143609   0.341   2.522   5.769
 8722WAT    LP243610   0.383   2.472   5.676
 8723WAT     OW43611   0.686   4.880   2.477
 8723WAT    HW143612   0.702   4.861   2.385
 8723WAT    HW243613   0.772   4.898   2.513
 8723WAT    LP143614   0.644   4.935   2.484
 8723WAT    LP243615   0.657   4.824   2.509
 8724WAT     OW43616   6.065   2.560   4.215
 8724WAT    HW143617   6.070   2.602   4.301
 8724WAT    HW243618   6.086   2.630   4.153
 8724WAT    LP143619   6.112   2.508   4.210
 8724WAT    LP243620   6.001   2.534   4.203
 8725WAT     OW43621   0.929   0.491   0.306
 8725WAT    HW143622   0.916   0.461   0.216
 8725WAT    HW243623   1.023   0.481   0.321
 8725WAT    LP143624   0.910   0.558   0.313
 8725WAT    LP243625   0.893   0.451   0.351
 8726WAT     OW43626   0.159   2.222   2.682
 8726WAT    HW143627   0.075   2.178   2.672
 8726WAT    HW243628   0.163   2.247   2.774
 8726WAT    LP143629   0.212   2.178   2.666
 8726WAT    LP243630   0.163   2.278   2.641
 8727WAT     OW43631   2.633   4.862   4.304
 8727WAT    HW143632   2.623   4.952   4.272
 8727WAT    HW243633   2.548   4.840   4.341
 8727WAT    LP143634   2.650   4.819   4.252
 8727WAT    LP243635   2.683   4.859   4.353
 8728WAT     OW43636   0.081   1.527   1.295
 8728WAT    HW143637   0.065   1.581   1.372
 8728WAT    HW243638   0.084   1.589   1.222
 8728WAT    LP143639   0.142   1.493   1.301
 8728WAT    LP243640   0.029   1.481   1.286
 8729WAT     OW43641   5.218   3.080   6.486
 8729WAT    HW143642   5.241   2.994   6.520
 8729WAT    HW243643   5.233   3.140   6.560
 8729WAT    LP143644   5.259   3.097   6.432
 8729WAT    LP243645   5.151   3.082   6.466
 8730WAT     OW43646   4.691   2.901   3.115
 8730WAT    HW143647   4.629   2.973   3.126
 8730WAT    HW243648   4.651   2.845   3.049
 8730WAT    LP143649   4.753   2.926   3.092
 8730WAT    LP243650   4.701   2.867   3.175
 8731WAT     OW43651   6.436   2.636   5.807
 8731WAT    HW143652   6.478   2.718   5.781
 8731WAT    HW243653   6.342   2.656   5.810
 8731WAT    LP143654   6.449   2.586   5.760
 8731WAT    LP243655   6.459   2.615   5.870
 8732WAT     OW43656   3.492   2.596   2.772
 8732WAT    HW143657   3.452   2.573   2.688
 8732WAT    HW243658   3.436   2.665   2.807
 8732WAT    LP143659   3.493   2.541   2.815
 8732WAT    LP243660   3.557   2.620   2.762
 8733WAT     OW43661   3.273   1.608   5.647
 8733WAT    HW143662   3.331   1.674   5.685
 8733WAT    HW243663   3.298   1.527   5.689
 8733WAT    LP143664   3.206   1.623   5.661
 8733WAT    LP243665   3.282   1.604   5.578
 8734WAT     OW43666   6.614   0.720   6.348
 8734WAT    HW143667   6.709   0.712   6.336
 8734WAT    HW243668   6.578   0.712   6.260
 8734WAT    LP143669   6.590   0.669   6.389
 8734WAT    LP243670   6.598   0.782   6.376
 8735WAT     OW43671   5.746   6.505   5.159
 8735WAT    HW143672   5.718   6.497   5.250
 8735WAT    HW243673   5.807   6.579   5.159
 8735WAT    LP143674   5.779   6.447   5.138
 8735WAT    LP243675   5.691   6.518   5.117
 8736WAT     OW43676   0.090   5.442   5.535
 8736WAT    HW143677   0.067   5.375   5.472
 8736WAT    HW243678   0.016   5.503   5.533
 8736WAT    LP143679   0.097   5.414   5.599
 8736WAT    LP243680   0.149   5.474   5.517
 8737WAT     OW43681   5.197   3.451   0.223
 8737WAT    HW143682   5.186   3.543   0.197
 8737WAT    HW243683   5.246   3.456   0.305
 8737WAT    LP143684   5.135   3.420   0.233
 8737WAT    LP243685   5.234   3.416   0.174
 8738WAT     OW43686   3.463   6.522   1.849
 8738WAT    HW143687   3.505   6.595   1.894
 8738WAT    HW243688   3.475   6.447   1.908
 8738WAT    LP143689   3.395   6.534   1.839
 8738WAT    LP243690   3.494   6.509   1.787
 8739WAT     OW43691   1.065   5.528   6.106
 8739WAT    HW143692   0.988   5.547   6.160
 8739WAT    HW243693   1.140   5.547   6.162
 8739WAT    LP143694   1.065   5.461   6.086
 8739WAT    LP243695   1.066   5.569   6.049
 8740WAT     OW43696   6.713   0.084   5.754
 8740WAT    HW143697   6.773   0.106   5.682
 8740WAT    HW243698   6.639   0.041   5.711
 8740WAT    LP143699   6.744   0.040   5.799
 8740WAT    LP243700   6.693   0.141   5.788
 8741WAT     OW43701   2.394   4.800   4.423
 8741WAT    HW143702   2.302   4.825   4.430
 8741WAT    HW243703   2.392   4.706   4.409
 8741WAT    LP143704   2.423   4.833   4.368
 8741WAT    LP243705   2.429   4.817   4.481
 8742WAT     OW43706   3.690   2.945   1.981
 8742WAT    HW143707   3.762   2.884   1.997
 8742WAT    HW243708   3.685   2.952   1.886
 8742WAT    LP143709   3.630   2.921   2.008
 8742WAT    LP243710   3.705   3.008   2.009
 8743WAT     OW43711   5.817   5.585   3.812
 8743WAT    HW143712   5.894   5.635   3.840
 8743WAT    HW243713   5.844   5.493   3.821
 8743WAT    LP143714   5.763   5.599   3.853
 8743WAT    LP243715   5.801   5.600   3.746
 8744WAT     OW43716   3.297   2.694   0.057
 8744WAT    HW143717   3.300   2.758  -0.013
 8744WAT    HW243718   3.357   2.625   0.029
 8744WAT    LP143719   3.319   2.723   0.117
 8744WAT    LP243720   3.232   2.669   0.066
 8745WAT     OW43721   4.922   4.630   2.067
 8745WAT    HW143722   5.000   4.685   2.064
 8745WAT    HW243723   4.852   4.689   2.097
 8745WAT    LP143724   4.907   4.605   2.003
 8745WAT    LP243725   4.930   4.577   2.112
 8746WAT     OW43726   1.294   4.488   4.269
 8746WAT    HW143727   1.315   4.435   4.346
 8746WAT    HW243728   1.379   4.521   4.238
 8746WAT    LP143729   1.264   4.448   4.220
 8746WAT    LP243730   1.252   4.541   4.286
 8747WAT     OW43731   2.773   6.021   3.011
 8747WAT    HW143732   2.703   6.082   2.985
 8747WAT    HW243733   2.830   6.017   2.934
 8747WAT    LP143734   2.807   6.045   3.067
 8747WAT    LP243735   2.746   5.958   3.025
 8748WAT     OW43736   1.774   4.318   1.776
 8748WAT    HW143737   1.851   4.304   1.722
 8748WAT    HW243738   1.776   4.411   1.798
 8748WAT    LP143739   1.715   4.302   1.741
 8748WAT    LP243740   1.777   4.279   1.834
 8749WAT     OW43741   5.519   3.866   2.124
 8749WAT    HW143742   5.594   3.853   2.182
 8749WAT    HW243743   5.523   3.959   2.102
 8749WAT    LP143744   5.525   3.827   2.067
 8749WAT    LP243745   5.459   3.851   2.157
 8750WAT     OW43746   4.535   6.336   1.642
 8750WAT    HW143747   4.516   6.370   1.555
 8750WAT    HW243748   4.630   6.329   1.645
 8750WAT    LP143749   4.512   6.381   1.692
 8750WAT    LP243750   4.505   6.274   1.652
 8751WAT     OW43751   4.628   4.304   1.931
 8751WAT    HW143752   4.661   4.392   1.912
 8751WAT    HW243753   4.613   4.265   1.845
 8751WAT    LP143754   4.675   4.267   1.967
 8751WAT    LP243755   4.568   4.308   1.967
 8752WAT     OW43756   6.043   3.547   4.092
 8752WAT    HW143757   5.970   3.494   4.061
 8752WAT    HW243758   6.106   3.547   4.019
 8752WAT    LP143759   6.022   3.613   4.105
 8752WAT    LP243760   6.072   3.520   4.149
 8753WAT     OW43761   3.363   1.973   3.615
 8753WAT    HW143762   3.385   2.049   3.668
 8753WAT    HW243763   3.395   1.898   3.665
 8753WAT    LP143764   3.293   1.968   3.606
 8753WAT    LP243765   3.394   1.976   3.552
 8754WAT     OW43766   3.310   5.788   1.737
 8754WAT    HW143767   3.342   5.825   1.654
 8754WAT    HW243768   3.256   5.857   1.775
 8754WAT    LP143769   3.272   5.731   1.725
 8754WAT    LP243770   3.364   5.772   1.779
 8755WAT     OW43771   6.784   3.749   6.404
 8755WAT    HW143772   6.690   3.741   6.417
 8755WAT    HW243773   6.815   3.658   6.400
 8755WAT    LP143774   6.798   3.782   6.344
 8755WAT    LP243775   6.814   3.783   6.457
 8756WAT     OW43776   3.208   3.945   4.235
 8756WAT    HW143777   3.188   4.039   4.237
 8756WAT    HW243778   3.188   3.918   4.145
 8756WAT    LP143779   3.276   3.934   4.250
 8756WAT    LP243780   3.168   3.910   4.281
 8757WAT     OW43781   1.249   3.433   1.365
 8757WAT    HW143782   1.221   3.511   1.413
 8757WAT    HW243783   1.208   3.360   1.411
 8757WAT    LP143784   1.228   3.435   1.299
 8757WAT    LP243785   1.319   3.427   1.367
 8758WAT     OW43786   4.171   0.526   6.587
 8758WAT    HW143787   4.095   0.470   6.602
 8758WAT    HW243788   4.192   0.562   6.673
 8758WAT    LP143789   4.225   0.488   6.563
 8758WAT    LP243790   4.156   0.577   6.542
 8759WAT     OW43791   0.813   0.229   2.826
 8759WAT    HW143792   0.717   0.234   2.829
 8759WAT    HW243793   0.842   0.297   2.886
 8759WAT    LP143794   0.835   0.166   2.847
 8759WAT    LP243795   0.836   0.241   2.761
 8760WAT     OW43796   1.460   3.750   2.495
 8760WAT    HW143797   1.448   3.786   2.583
 8760WAT    HW243798   1.373   3.716   2.471
 8760WAT    LP143799   1.480   3.800   2.450
 8760WAT    LP243800   1.507   3.698   2.495
 8761WAT     OW43801   4.821   0.263   3.797
 8761WAT    HW143802   4.916   0.254   3.790
 8761WAT    HW243803   4.787   0.177   3.771
 8761WAT    LP143804   4.802   0.278   3.863
 8761WAT    LP243805   4.798   0.313   3.754
 8762WAT     OW43806   4.056   5.589   0.635
 8762WAT    HW143807   4.078   5.677   0.604
 8762WAT    HW243808   4.141   5.549   0.655
 8762WAT    LP143809   4.017   5.593   0.693
 8762WAT    LP243810   4.022   5.553   0.586
 8763WAT     OW43811   4.241   2.048   1.970
 8763WAT    HW143812   4.149   2.053   1.995
 8763WAT    HW243813   4.240   2.001   1.886
 8763WAT    LP143814   4.269   2.112   1.963
 8763WAT    LP243815   4.278   2.012   2.018
 8764WAT     OW43816   0.415   5.856   1.867
 8764WAT    HW143817   0.454   5.918   1.805
 8764WAT    HW243818   0.484   5.841   1.931
 8764WAT    LP143819   0.358   5.884   1.897
 8764WAT    LP243820   0.398   5.796   1.834
 8765WAT     OW43821   5.391   2.165   1.538
 8765WAT    HW143822   5.465   2.107   1.522
 8765WAT    HW243823   5.314   2.115   1.510
 8765WAT    LP143824   5.386   2.181   1.606
 8765WAT    LP243825   5.397   2.224   1.501
 8766WAT     OW43826   1.623   4.894   0.575
 8766WAT    HW143827   1.556   4.944   0.528
 8766WAT    HW243828   1.694   4.883   0.511
 8766WAT    LP143829   1.645   4.929   0.631
 8766WAT    LP243830   1.598   4.832   0.595
 8767WAT     OW43831   6.372   3.185   2.408
 8767WAT    HW143832   6.392   3.232   2.328
 8767WAT    HW243833   6.322   3.108   2.380
 8767WAT    LP143834   6.431   3.165   2.440
 8767WAT    LP243835   6.334   3.225   2.452
 8768WAT     OW43836   4.020   2.260   5.142
 8768WAT    HW143837   4.052   2.195   5.079
 8768WAT    HW243838   4.084   2.258   5.213
 8768WAT    LP143839   4.019   2.324   5.112
 8768WAT    LP243840   3.957   2.243   5.165
 8769WAT     OW43841   0.806   3.521   3.096
 8769WAT    HW143842   0.721   3.496   3.059
 8769WAT    HW243843   0.828   3.603   3.053
 8769WAT    LP143844   0.801   3.529   3.165
 8769WAT    LP243845   0.854   3.472   3.081
 8770WAT     OW43846   0.350   2.329   3.114
 8770WAT    HW143847   0.372   2.243   3.148
 8770WAT    HW243848   0.407   2.341   3.039
 8770WAT    LP143849   0.282   2.332   3.094
 8770WAT    LP243850   0.362   2.379   3.162
 8771WAT     OW43851   4.614   4.914   0.012
 8771WAT    HW143852   4.547   4.868   0.063
 8771WAT    HW243853   4.688   4.922   0.072
 8771WAT    LP143854   4.632   4.876  -0.044
 8771WAT    LP243855   4.591   4.977  -0.008
 8772WAT     OW43856   0.842   5.476   4.753
 8772WAT    HW143857   0.763   5.440   4.713
 8772WAT    HW243858   0.844   5.438   4.841
 8772WAT    LP143859   0.899   5.456   4.716
 8772WAT    LP243860   0.839   5.545   4.756
 8773WAT     OW43861   4.787   1.606   5.137
 8773WAT    HW143862   4.802   1.580   5.046
 8773WAT    HW243863   4.693   1.621   5.143
 8773WAT    LP143864   4.807   1.555   5.181
 8773WAT    LP243865   4.822   1.665   5.152
 8774WAT     OW43866   1.396   1.849   4.940
 8774WAT    HW143867   1.340   1.838   4.863
 8774WAT    HW243868   1.374   1.775   4.996
 8774WAT    LP143869   1.464   1.848   4.922
 8774WAT    LP243870   1.382   1.910   4.972
 8775WAT     OW43871   4.954   6.489   3.688
 8775WAT    HW143872   4.979   6.488   3.596
 8775WAT    HW243873   4.914   6.403   3.703
 8775WAT    LP143874   5.010   6.498   3.729
 8775WAT    LP243875   4.908   6.540   3.701
 8776WAT     OW43876   5.482   1.316   5.972
 8776WAT    HW143877   5.485   1.277   6.059
 8776WAT    HW243878   5.401   1.283   5.933
 8776WAT    LP143879   5.481   1.386   5.976
 8776WAT    LP243880   5.538   1.296   5.934
 8777WAT     OW43881   2.370   0.935   1.543
 8777WAT    HW143882   2.410   0.855   1.575
 8777WAT    HW243883   2.436   0.974   1.485
 8777WAT    LP143884   2.311   0.922   1.507
 8777WAT    LP243885   2.356   0.979   1.596
 8778WAT     OW43886   5.659   2.508   3.525
 8778WAT    HW143887   5.622   2.594   3.502
 8778WAT    HW243888   5.596   2.445   3.491
 8778WAT    LP143889   5.721   2.500   3.495
 8778WAT    LP243890   5.665   2.502   3.594
 8779WAT     OW43891   5.722   3.205   2.779
 8779WAT    HW143892   5.736   3.214   2.873
 8779WAT    HW243893   5.802   3.162   2.747
 8779WAT    LP143894   5.666   3.166   2.766
 8779WAT    LP243895   5.715   3.268   2.749
 8780WAT     OW43896   2.862   5.707   1.620
 8780WAT    HW143897   2.898   5.738   1.703
 8780WAT    HW243898   2.914   5.751   1.553
 8780WAT    LP143899   2.868   5.638   1.614
 8780WAT    LP243900   2.794   5.725   1.615
 8781WAT     OW43901   1.468   6.669   6.611
 8781WAT    HW143902   1.546   6.614   6.605
 8781WAT    HW243903   1.396   6.607   6.622
 8781WAT    LP143904   1.472   6.712   6.666
 8781WAT    LP243905   1.459   6.706   6.553
 8782WAT     OW43906   1.700   5.608   2.253
 8782WAT    HW143907   1.744   5.592   2.337
 8782WAT    HW243908   1.704   5.702   2.240
 8782WAT    LP143909   1.733   5.574   2.201
 8782WAT    LP243910   1.634   5.586   2.256
 8783WAT     OW43911   2.493   0.716   1.657
 8783WAT    HW143912   2.463   0.626   1.646
 8783WAT    HW243913   2.521   0.722   1.748
 8783WAT    LP143914   2.547   0.729   1.614
 8783WAT    LP243915   2.442   0.762   1.643
 8784WAT     OW43916   0.790   6.233   4.538
 8784WAT    HW143917   0.875   6.191   4.525
 8784WAT    HW243918   0.765   6.264   4.450
 8784WAT    LP143919   0.743   6.187   4.562
 8784WAT    LP243920   0.796   6.287   4.582
 8785WAT     OW43921   1.207   5.594   5.734
 8785WAT    HW143922   1.293   5.631   5.752
 8785WAT    HW243923   1.219   5.499   5.740
 8785WAT    LP143924   1.160   5.616   5.781
 8785WAT    LP243925   1.185   5.612   5.670
 8786WAT     OW43926   3.520   3.062   5.836
 8786WAT    HW143927   3.606   3.084   5.800
 8786WAT    HW243928   3.525   2.968   5.855
 8786WAT    LP143929   3.507   3.099   5.895
 8786WAT    LP243930   3.469   3.075   5.790
 8787WAT     OW43931   5.883   1.387   1.630
 8787WAT    HW143932   5.927   1.392   1.546
 8787WAT    HW243933   5.830   1.466   1.635
 8787WAT    LP143934   5.842   1.330   1.633
 8787WAT    LP243935   5.929   1.385   1.683
 8788WAT     OW43936   6.771   5.041   4.819
 8788WAT    HW143937   6.798   5.133   4.823
 8788WAT    HW243938   6.677   5.045   4.800
 8788WAT    LP143939   6.805   5.007   4.768
 8788WAT    LP243940   6.782   5.009   4.880
 8789WAT     OW43941   5.246   6.233   5.542
 8789WAT    HW143942   5.202   6.299   5.596
 8789WAT    HW243943   5.198   6.152   5.557
 8789WAT    LP143944   5.243   6.251   5.474
 8789WAT    LP243945   5.313   6.226   5.561
 8790WAT     OW43946   4.226   6.458   4.579
 8790WAT    HW143947   4.219   6.381   4.636
 8790WAT    HW243948   4.173   6.525   4.622
 8790WAT    LP143949   4.293   6.479   4.574
 8790WAT    LP243950   4.201   6.443   4.515
 8791WAT     OW43951   4.889   4.138   0.559
 8791WAT    HW143952   4.822   4.112   0.621
 8791WAT    HW243953   4.864   4.095   0.477
 8791WAT    LP143954   4.891   4.207   0.551
 8791WAT    LP243955   4.952   4.115   0.580
 8792WAT     OW43956   3.477   1.881   6.318
 8792WAT    HW143957   3.491   1.802   6.267
 8792WAT    HW243958   3.401   1.861   6.372
 8792WAT    LP143959   3.533   1.895   6.358
 8792WAT    LP243960   3.464   1.936   6.276
 8793WAT     OW43961   6.286   1.536   0.167
 8793WAT    HW143962   6.325   1.570   0.087
 8793WAT    HW243963   6.361   1.504   0.218
 8793WAT    LP143964   6.252   1.587   0.202
 8793WAT    LP243965   6.241   1.484   0.153
 8794WAT     OW43966   1.514   4.854   4.089
 8794WAT    HW143967   1.590   4.864   4.032
 8794WAT    HW243968   1.527   4.920   4.158
 8794WAT    LP143969   1.455   4.867   4.054
 8794WAT    LP243970   1.511   4.790   4.117
 8795WAT     OW43971   4.688   3.114   2.348
 8795WAT    HW143972   4.721   3.043   2.403
 8795WAT    HW243973   4.622   3.073   2.293
 8795WAT    LP143974   4.659   3.165   2.387
 8795WAT    LP243975   4.740   3.141   2.310
 8796WAT     OW43976   5.279   2.835   6.600
 8796WAT    HW143977   5.237   2.753   6.575
 8796WAT    HW243978   5.370   2.812   6.619
 8796WAT    LP143979   5.276   2.881   6.547
 8796WAT    LP243980   5.248   2.863   6.656
 8797WAT     OW43981   5.327   0.662   0.854
 8797WAT    HW143982   5.334   0.569   0.833
 8797WAT    HW243983   5.365   0.707   0.778
 8797WAT    LP143984   5.260   0.681   0.862
 8797WAT    LP243985   5.362   0.677   0.912
 8798WAT     OW43986   0.789   1.134   5.087
 8798WAT    HW143987   0.804   1.146   4.994
 8798WAT    HW243988   0.700   1.165   5.102
 8798WAT    LP143989   0.795   1.067   5.105
 8798WAT    LP243990   0.835   1.172   5.125
 8799WAT     OW43991   1.102   1.722   3.384
 8799WAT    HW143992   1.130   1.647   3.332
 8799WAT    HW243993   1.142   1.708   3.470
 8799WAT    LP143994   1.125   1.782   3.356
 8799WAT    LP243995   1.032   1.724   3.390
 8800WAT     OW43996   3.605   5.211   6.562
 8800WAT    HW143997   3.517   5.173   6.571
 8800WAT    HW243998   3.608   5.282   6.626
 8800WAT    LP143999   3.654   5.163   6.575
 8800WAT    LP244000   3.614   5.236   6.497
 8801WAT     OW44001   5.688   5.599   5.789
 8801WAT    HW144002   5.651   5.588   5.877
 8801WAT    HW244003   5.780   5.574   5.799
 8801WAT    LP144004   5.656   5.556   5.744
 8801WAT    LP244005   5.682   5.665   5.768
 8802WAT     OW44006   1.514   5.657   0.465
 8802WAT    HW144007   1.510   5.750   0.442
 8802WAT    HW244008   1.435   5.619   0.427
 8802WAT    LP144009   1.571   5.627   0.438
 8802WAT    LP244010   1.514   5.649   0.535
 8803WAT     OW44011   2.745   5.942   3.819
 8803WAT    HW144012   2.753   6.022   3.768
 8803WAT    HW244013   2.830   5.932   3.861
 8803WAT    LP144014   2.694   5.948   3.867
 8803WAT    LP244015   2.732   5.887   3.777
 8804WAT     OW44016   3.259   3.805   3.088
 8804WAT    HW144017   3.282   3.720   3.126
 8804WAT    HW244018   3.298   3.803   3.001
 8804WAT    LP144019   3.190   3.812   3.084
 8804WAT    LP244020   3.286   3.857   3.126
 8805WAT     OW44021   4.551   0.494   2.195
 8805WAT    HW144022   4.601   0.420   2.159
 8805WAT    HW244023   4.605   0.525   2.268
 8805WAT    LP144024   4.544   0.544   2.147
 8805WAT    LP244025   4.488   0.473   2.217
 8806WAT     OW44026   4.827   1.234   5.769
 8806WAT    HW144027   4.861   1.182   5.841
 8806WAT    HW244028   4.905   1.268   5.725
 8806WAT    LP144029   4.789   1.194   5.725
 8806WAT    LP244030   4.787   1.286   5.793
 8807WAT     OW44031   2.114   3.469   1.299
 8807WAT    HW144032   2.090   3.380   1.275
 8807WAT    HW244033   2.070   3.524   1.234
 8807WAT    LP144034   2.091   3.484   1.364
 8807WAT    LP244035   2.183   3.479   1.296
 8808WAT     OW44036   1.788   5.890   5.724
 8808WAT    HW144037   1.722   5.857   5.664
 8808WAT    HW244038   1.863   5.912   5.669
 8808WAT    LP144039   1.765   5.947   5.758
 8808WAT    LP244040   1.805   5.841   5.771
 8809WAT     OW44041   3.881   2.257   1.385
 8809WAT    HW144042   3.892   2.251   1.290
 8809WAT    HW244043   3.822   2.185   1.407
 8809WAT    LP144044   3.943   2.249   1.417
 8809WAT    LP244045   3.853   2.319   1.403
 8810WAT     OW44046   2.903   0.410   1.878
 8810WAT    HW144047   2.819   0.409   1.834
 8810WAT    HW244048   2.961   0.360   1.821
 8810WAT    LP144049   2.927   0.476   1.885
 8810WAT    LP244050   2.899   0.380   1.941
 8811WAT     OW44051   5.773   6.473   0.370
 8811WAT    HW144052   5.698   6.524   0.401
 8811WAT    HW244053   5.811   6.527   0.301
 8811WAT    LP144054   5.819   6.463   0.422
 8811WAT    LP244055   5.752   6.411   0.345
 8812WAT     OW44056   4.154   3.832   4.327
 8812WAT    HW144057   4.060   3.821   4.345
 8812WAT    HW244058   4.193   3.750   4.354
 8812WAT    LP144059   4.164   3.843   4.258
 8812WAT    LP244060   4.180   3.886   4.363
 8813WAT     OW44061   1.691   4.295   2.853
 8813WAT    HW144062   1.759   4.297   2.921
 8813WAT    HW244063   1.702   4.210   2.810
 8813WAT    LP144064   1.628   4.300   2.882
 8813WAT    LP244065   1.700   4.347   2.808
 8814WAT     OW44066   2.602   3.644   4.137
 8814WAT    HW144067   2.557   3.725   4.113
 8814WAT    HW244068   2.691   3.671   4.157
 8814WAT    LP144069   2.571   3.615   4.193
 8814WAT    LP244070   2.601   3.598   4.084
 8815WAT     OW44071   5.617   6.627   1.191
 8815WAT    HW144072   5.686   6.644   1.255
 8815WAT    HW244073   5.663   6.605   1.110
 8815WAT    LP144074   5.576   6.574   1.212
 8815WAT    LP244075   5.577   6.684   1.182
 8816WAT     OW44076   6.703   1.136   3.188
 8816WAT    HW144077   6.777   1.155   3.131
 8816WAT    HW244078   6.627   1.131   3.129
 8816WAT    LP144079   6.712   1.075   3.221
 8816WAT    LP244080   6.694   1.187   3.235
 8817WAT     OW44081   0.670   1.240   0.964
 8817WAT    HW144082   0.628   1.223   0.880
 8817WAT    HW244083   0.600   1.276   1.019
 8817WAT    LP144084   0.695   1.180   0.992
 8817WAT    LP244085   0.722   1.286   0.957
 8818WAT     OW44086   4.673   3.990   6.590
 8818WAT    HW144087   4.691   3.902   6.624
 8818WAT    HW244088   4.730   3.998   6.513
 8818WAT    LP144089   4.606   3.997   6.573
 8818WAT    LP244090   4.690   4.039   6.638
 8819WAT     OW44091   2.620   3.325   5.014
 8819WAT    HW144092   2.627   3.407   5.062
 8819WAT    HW244093   2.586   3.262   5.078
 8819WAT    LP144094   2.576   3.331   4.960
 8819WAT    LP244095   2.683   3.305   4.990
 8820WAT     OW44096   1.256   0.618   0.548
 8820WAT    HW144097   1.218   0.571   0.474
 8820WAT    HW244098   1.337   0.656   0.514
 8820WAT    LP144099   1.212   0.668   0.571
 8820WAT    LP244100   1.270   0.574   0.601
 8821WAT     OW44101   0.140   2.913   2.267
 8821WAT    HW144102   0.063   2.968   2.259
 8821WAT    HW244103   0.191   2.930   2.188
 8821WAT    LP144104   0.177   2.930   2.324
 8821WAT    LP244105   0.122   2.845   2.270
 8822WAT     OW44106   4.223   3.629   6.513
 8822WAT    HW144107   4.247   3.683   6.588
 8822WAT    HW244108   4.198   3.545   6.552
 8822WAT    LP144109   4.169   3.657   6.478
 8822WAT    LP244110   4.277   3.621   6.470
 8823WAT     OW44111   2.095   5.201   5.108
 8823WAT    HW144112   2.100   5.111   5.077
 8823WAT    HW244113   2.185   5.234   5.101
 8823WAT    LP144114   2.053   5.239   5.067
 8823WAT    LP244115   2.073   5.204   5.174
 8824WAT     OW44116   3.197   3.894   0.057
 8824WAT    HW144117   3.105   3.892   0.028
 8824WAT    HW244118   3.230   3.807   0.035
 8824WAT    LP144119   3.232   3.943   0.023
 8824WAT    LP244120   3.200   3.905   0.126
 8825WAT     OW44121   1.025   6.475   1.563
 8825WAT    HW144122   1.036   6.566   1.589
 8825WAT    HW244123   1.103   6.455   1.512
 8825WAT    LP144124   1.020   6.433   1.619
 8825WAT    LP244125   0.967   6.468   1.523
 8826WAT     OW44126   2.320   4.003   4.854
 8826WAT    HW144127   2.279   3.945   4.918
 8826WAT    HW244128   2.250   4.024   4.792
 8826WAT    LP144129   2.344   4.061   4.885
 8826WAT    LP244130   2.373   3.971   4.821
 8827WAT     OW44131   4.636   5.235   1.139
 8827WAT    HW144132   4.633   5.327   1.112
 8827WAT    HW244133   4.585   5.232   1.220
 8827WAT    LP144134   4.606   5.194   1.090
 8827WAT    LP244135   4.702   5.214   1.150
 8828WAT     OW44136   5.711   1.616   1.619
 8828WAT    HW144137   5.620   1.588   1.616
 8828WAT    HW244138   5.709   1.700   1.666
 8828WAT    LP144139   5.751   1.570   1.653
 8828WAT    LP244140   5.736   1.625   1.554
 8829WAT     OW44141   4.820   4.005   0.334
 8829WAT    HW144142   4.758   3.933   0.342
 8829WAT    HW244143   4.781   4.063   0.268
 8829WAT    LP144144   4.826   4.039   0.395
 8829WAT    LP244145   4.883   3.982   0.313
 8830WAT     OW44146   4.232   3.706   0.925
 8830WAT    HW144147   4.248   3.768   0.853
 8830WAT    HW244148   4.227   3.760   1.003
 8830WAT    LP144149   4.172   3.671   0.915
 8830WAT    LP244150   4.285   3.660   0.930
 8831WAT     OW44151   1.090   2.456   4.908
 8831WAT    HW144152   0.997   2.445   4.929
 8831WAT    HW244153   1.092   2.461   4.812
 8831WAT    LP144154   1.115   2.514   4.936
 8831WAT    LP244155   1.127   2.401   4.930
 8832WAT     OW44156   4.590   5.769   5.207
 8832WAT    HW144157   4.684   5.779   5.191
 8832WAT    HW244158   4.563   5.699   5.147
 8832WAT    LP144159   4.578   5.751   5.273
 8832WAT    LP244160   4.556   5.828   5.193
 8833WAT     OW44161   0.131   0.941   3.544
 8833WAT    HW144162   0.067   0.921   3.476
 8833WAT    HW244163   0.086   1.005   3.600
 8833WAT    LP144164   0.147   0.884   3.581
 8833WAT    LP244165   0.189   0.968   3.517
 8834WAT     OW44166   1.555   4.639   5.824
 8834WAT    HW144167   1.583   4.582   5.752
 8834WAT    HW244168   1.484   4.590   5.867
 8834WAT    LP144169   1.607   4.651   5.868
 8834WAT    LP244170   1.531   4.700   5.799
 8835WAT     OW44171   0.430   0.133   2.566
 8835WAT    HW144172   0.485   0.101   2.495
 8835WAT    HW244173   0.421   0.058   2.626
 8835WAT    LP144174   0.460   0.187   2.598
 8835WAT    LP244175   0.367   0.152   2.542
 8836WAT     OW44176   2.649   6.363   5.255
 8836WAT    HW144177   2.584   6.296   5.276
 8836WAT    HW244178   2.729   6.334   5.299
 8836WAT    LP144179   2.659   6.367   5.185
 8836WAT    LP244180   2.629   6.425   5.279
 8837WAT     OW44181   5.516   2.541   1.877
 8837WAT    HW144182   5.568   2.462   1.860
 8837WAT    HW244183   5.491   2.572   1.790
 8837WAT    LP144184   5.459   2.525   1.915
 8837WAT    LP244185   5.554   2.588   1.911
 8838WAT     OW44186   1.805   3.959   5.224
 8838WAT    HW144187   1.754   3.880   5.211
 8838WAT    HW244188   1.888   3.929   5.263
 8838WAT    LP144189   1.817   3.992   5.164
 8838WAT    LP244190   1.772   4.003   5.268
 8839WAT     OW44191   4.365   0.341   6.541
 8839WAT    HW144192   4.417   0.373   6.467
 8839WAT    HW244193   4.305   0.413   6.560
 8839WAT    LP144194   4.329   0.284   6.523
 8839WAT    LP244195   4.405   0.327   6.596
 8840WAT     OW44196   6.130   5.265   4.831
 8840WAT    HW144197   6.036   5.281   4.841
 8840WAT    HW244198   6.171   5.344   4.867
 8840WAT    LP144199   6.149   5.208   4.867
 8840WAT    LP244200   6.147   5.257   4.764
 8841WAT     OW44201   2.742   5.632   4.895
 8841WAT    HW144202   2.740   5.720   4.857
 8841WAT    HW244203   2.686   5.580   4.838
 8841WAT    LP144204   2.807   5.606   4.896
 8841WAT    LP244205   2.716   5.633   4.960
 8842WAT     OW44206   0.317   5.291   1.645
 8842WAT    HW144207   0.279   5.373   1.615
 8842WAT    HW244208   0.384   5.318   1.708
 8842WAT    LP144209   0.268   5.251   1.676
 8842WAT    LP244210   0.345   5.256   1.592
 8843WAT     OW44211   0.305   3.444   3.097
 8843WAT    HW144212   0.239   3.469   3.032
 8843WAT    HW244213   0.283   3.355   3.121
 8843WAT    LP144214   0.370   3.447   3.069
 8843WAT    LP244215   0.302   3.487   3.153
 8844WAT     OW44216   2.709   3.760   5.585
 8844WAT    HW144217   2.786   3.738   5.637
 8844WAT    HW244218   2.635   3.744   5.643
 8844WAT    LP144219   2.711   3.828   5.566
 8844WAT    LP244220   2.705   3.720   5.527
 8845WAT     OW44221   4.006   1.477   3.924
 8845WAT    HW144222   3.970   1.488   3.836
 8845WAT    HW244223   3.930   1.450   3.977
 8845WAT    LP144224   4.055   1.428   3.925
 8845WAT    LP244225   4.032   1.537   3.948
 8846WAT     OW44226   0.051   4.375   1.536
 8846WAT    HW144227   0.106   4.349   1.462
 8846WAT    HW244228  -0.003   4.298   1.554
 8846WAT    LP144229   0.091   4.391   1.592
 8846WAT    LP244230   0.011   4.430   1.519
 8847WAT     OW44231   5.306   5.922   5.122
 8847WAT    HW144232   5.362   5.916   5.045
 8847WAT    HW244233   5.366   5.941   5.194
 8847WAT    LP144234   5.259   5.973   5.115
 8847WAT    LP244235   5.273   5.861   5.133
 8848WAT     OW44236   6.403   1.088   5.458
 8848WAT    HW144237   6.379   1.169   5.412
 8848WAT    HW244238   6.319   1.047   5.481
 8848WAT    LP144239   6.440   1.046   5.415
 8848WAT    LP244240   6.440   1.102   5.515
 8849WAT     OW44241   0.902   0.897   5.668
 8849WAT    HW144242   0.987   0.857   5.686
 8849WAT    HW244243   0.901   0.976   5.722
 8849WAT    LP144244   0.896   0.914   5.600
 8849WAT    LP244245   0.850   0.854   5.685
 8850WAT     OW44246   6.227   5.632   4.719
 8850WAT    HW144247   6.239   5.580   4.798
 8850WAT    HW244248   6.222   5.722   4.750
 8850WAT    LP144249   6.280   5.624   4.675
 8850WAT    LP244250   6.167   5.614   4.687
 8851WAT     OW44251   5.623   3.891   3.970
 8851WAT    HW144252   5.575   3.809   3.964
 8851WAT    HW244253   5.684   3.879   4.043
 8851WAT    LP144254   5.659   3.903   3.910
 8851WAT    LP244255   5.580   3.945   3.982
 8852WAT     OW44256   3.669   6.228   1.560
 8852WAT    HW144257   3.708   6.298   1.613
 8852WAT    HW244258   3.690   6.253   1.470
 8852WAT    LP144259   3.698   6.166   1.576
 8852WAT    LP244260   3.600   6.225   1.569
 8853WAT     OW44261   5.354   1.670   3.063
 8853WAT    HW144262   5.398   1.753   3.082
 8853WAT    HW244263   5.303   1.689   2.984
 8853WAT    LP144264   5.400   1.619   3.051
 8853WAT    LP244265   5.312   1.652   3.116
 8854WAT     OW44266   0.963   4.415   5.525
 8854WAT    HW144267   1.026   4.482   5.554
 8854WAT    HW244268   1.012   4.333   5.532
 8854WAT    LP144269   0.907   4.414   5.567
 8854WAT    LP244270   0.943   4.427   5.459
 8855WAT     OW44271   1.980   4.451   1.105
 8855WAT    HW144272   2.003   4.388   1.173
 8855WAT    HW244273   1.973   4.399   1.025
 8855WAT    LP144274   1.919   4.483   1.120
 8855WAT    LP244275   2.030   4.500   1.098
 8856WAT     OW44276   4.447   1.276   3.178
 8856WAT    HW144277   4.458   1.295   3.271
 8856WAT    HW244278   4.370   1.220   3.174
 8856WAT    LP144279   4.437   1.335   3.142
 8856WAT    LP244280   4.503   1.242   3.153
 8857WAT     OW44281   4.690   3.772   0.644
 8857WAT    HW144282   4.671   3.785   0.551
 8857WAT    HW244283   4.623   3.709   0.673
 8857WAT    LP144284   4.754   3.745   0.653
 8857WAT    LP244285   4.684   3.832   0.679
 8858WAT     OW44286   5.767   3.548   4.596
 8858WAT    HW144287   5.748   3.591   4.679
 8858WAT    HW244288   5.726   3.461   4.604
 8858WAT    LP144289   5.739   3.583   4.543
 8858WAT    LP244290   5.836   3.541   4.587
 8859WAT     OW44291   0.735   0.654   3.862
 8859WAT    HW144292   0.691   0.649   3.947
 8859WAT    HW244293   0.672   0.700   3.806
 8859WAT    LP144294   0.794   0.691   3.867
 8859WAT    LP244295   0.749   0.591   3.837
 8860WAT     OW44296   4.149   5.273   5.082
 8860WAT    HW144297   4.123   5.205   5.145
 8860WAT    HW244298   4.109   5.245   4.999
 8860WAT    LP144299   4.125   5.335   5.102
 8860WAT    LP244300   4.219   5.275   5.076
 8861WAT     OW44301   6.654   5.618   3.625
 8861WAT    HW144302   6.677   5.602   3.717
 8861WAT    HW244303   6.586   5.553   3.606
 8861WAT    LP144304   6.629   5.683   3.618
 8861WAT    LP244305   6.709   5.609   3.584
 8862WAT     OW44306   5.558   5.029   4.693
 8862WAT    HW144307   5.520   5.025   4.781
 8862WAT    HW244308   5.548   4.940   4.659
 8862WAT    LP144309   5.523   5.074   4.653
 8862WAT    LP244310   5.625   5.047   4.696
 8863WAT     OW44311   0.707   2.837   1.800
 8863WAT    HW144312   0.616   2.807   1.797
 8863WAT    HW244313   0.704   2.918   1.851
 8863WAT    LP144314   0.748   2.790   1.832
 8863WAT    LP244315   0.732   2.849   1.736
 8864WAT     OW44316   1.650   0.679   4.728
 8864WAT    HW144317   1.644   0.712   4.817
 8864WAT    HW244318   1.740   0.699   4.700
 8864WAT    LP144319   1.639   0.610   4.726
 8864WAT    LP244320   1.604   0.711   4.686
 8865WAT     OW44321   4.314   4.892   4.422
 8865WAT    HW144322   4.244   4.912   4.361
 8865WAT    HW244323   4.310   4.961   4.488
 8865WAT    LP144324   4.304   4.829   4.452
 8865WAT    LP244325   4.376   4.892   4.390
 8866WAT     OW44326   2.617   0.996   5.462
 8866WAT    HW144327   2.706   1.019   5.434
 8866WAT    HW244328   2.598   0.915   5.414
 8866WAT    LP144329   2.615   0.984   5.531
 8866WAT    LP244330   2.572   1.046   5.444
 8867WAT     OW44331   4.251   5.757   1.468
 8867WAT    HW144332   4.169   5.794   1.437
 8867WAT    HW244333   4.225   5.680   1.519
 8867WAT    LP144334   4.292   5.739   1.415
 8867WAT    LP244335   4.285   5.803   1.509
 8868WAT     OW44336   4.101   4.251   4.317
 8868WAT    HW144337   4.007   4.235   4.309
 8868WAT    HW244338   4.107   4.343   4.344
 8868WAT    LP144339   4.129   4.210   4.366
 8868WAT    LP244340   4.133   4.241   4.256
 8869WAT     OW44341   5.040   1.594   1.429
 8869WAT    HW144342   5.033   1.599   1.525
 8869WAT    HW244343   4.974   1.530   1.404
 8869WAT    LP144344   5.027   1.657   1.400
 8869WAT    LP244345   5.104   1.573   1.410
 8870WAT     OW44346   2.860   5.555   2.522
 8870WAT    HW144347   2.804   5.600   2.459
 8870WAT    HW244348   2.948   5.559   2.484
 8870WAT    LP144349   2.858   5.588   2.584
 8870WAT    LP244350   2.839   5.489   2.531
 8871WAT     OW44351   6.382   0.292   0.698
 8871WAT    HW144352   6.337   0.331   0.773
 8871WAT    HW244353   6.365   0.353   0.626
 8871WAT    LP144354   6.451   0.288   0.710
 8871WAT    LP244355   6.356   0.229   0.683
 8872WAT     OW44356   0.479   4.620   0.180
 8872WAT    HW144357   0.480   4.535   0.224
 8872WAT    HW244358   0.558   4.665   0.213
 8872WAT    LP144359   0.482   4.612   0.111
 8872WAT    LP244360   0.422   4.656   0.197
 8873WAT     OW44361   1.229   1.095   0.008
 8873WAT    HW144362   1.184   1.122  -0.072
 8873WAT    HW244363   1.306   1.151   0.013
 8873WAT    LP144364   1.187   1.104   0.063
 8873WAT    LP244365   1.247   1.027   0.004
 8874WAT     OW44366   2.542   1.389   5.931
 8874WAT    HW144367   2.553   1.307   5.884
 8874WAT    HW244368   2.579   1.372   6.018
 8874WAT    LP144369   2.577   1.441   5.900
 8874WAT    LP244370   2.474   1.406   5.936
 8875WAT     OW44371   2.308   3.654   0.401
 8875WAT    HW144372   2.281   3.671   0.311
 8875WAT    HW244373   2.227   3.654   0.451
 8875WAT    LP144374   2.340   3.592   0.406
 8875WAT    LP244375   2.351   3.704   0.424
 8876WAT     OW44376   2.561   2.470   6.411
 8876WAT    HW144377   2.497   2.527   6.455
 8876WAT    HW244378   2.519   2.384   6.410
 8876WAT    LP144379   2.573   2.493   6.346
 8876WAT    LP244380   2.621   2.468   6.447
 8877WAT     OW44381   6.780   3.537   5.842
 8877WAT    HW144382   6.849   3.499   5.895
 8877WAT    HW244383   6.720   3.464   5.825
 8877WAT    LP144384   6.747   3.588   5.876
 8877WAT    LP244385   6.805   3.562   5.781
 8878WAT     OW44386   6.153   3.780   3.140
 8878WAT    HW144387   6.189   3.811   3.222
 8878WAT    HW244388   6.058   3.792   3.148
 8878WAT    LP144389   6.178   3.817   3.086
 8878WAT    LP244390   6.168   3.712   3.130
 8879WAT     OW44391   6.477   1.692   4.125
 8879WAT    HW144392   6.401   1.686   4.068
 8879WAT    HW244393   6.464   1.776   4.171
 8879WAT    LP144394   6.478   1.639   4.171
 8879WAT    LP244395   6.536   1.693   4.088
 8880WAT     OW44396   0.190   3.448   4.627
 8880WAT    HW144397   0.210   3.535   4.660
 8880WAT    HW244398   0.275   3.410   4.604
 8880WAT    LP144399   0.158   3.409   4.676
 8880WAT    LP244400   0.149   3.451   4.570
 8881WAT     OW44401   0.171   0.385   2.985
 8881WAT    HW144402   0.196   0.360   2.896
 8881WAT    HW244403   0.102   0.323   3.009
 8881WAT    LP144404   0.226   0.379   3.029
 8881WAT    LP244405   0.147   0.450   2.987
 8882WAT     OW44406   0.217   0.935   5.354
 8882WAT    HW144407   0.282   1.004   5.362
 8882WAT    HW244408   0.265   0.860   5.321
 8882WAT    LP144409   0.189   0.920   5.417
 8882WAT    LP244410   0.166   0.954   5.310
 8883WAT     OW44411   4.552   2.298   5.520
 8883WAT    HW144412   4.503   2.217   5.502
 8883WAT    HW244413   4.522   2.325   5.607
 8883WAT    LP144414   4.620   2.285   5.520
 8883WAT    LP244415   4.537   2.347   5.472
 8884WAT     OW44416   5.373   2.347   0.896
 8884WAT    HW144417   5.366   2.297   0.977
 8884WAT    HW244418   5.455   2.318   0.856
 8884WAT    LP144419   5.319   2.333   0.854
 8884WAT    LP244420   5.375   2.416   0.909
 8885WAT     OW44421   3.746   1.123   6.393
 8885WAT    HW144422   3.674   1.178   6.423
 8885WAT    HW244423   3.709   1.034   6.394
 8885WAT    LP144424   3.766   1.140   6.328
 8885WAT    LP244425   3.800   1.128   6.437
 8886WAT     OW44426   2.134   3.937   3.897
 8886WAT    HW144427   2.203   3.966   3.956
 8886WAT    HW244428   2.127   4.006   3.831
 8886WAT    LP144429   2.151   3.876   3.867
 8886WAT    LP244430   2.073   3.930   3.932
 8887WAT     OW44431   1.026   3.616   4.870
 8887WAT    HW144432   1.033   3.609   4.774
 8887WAT    HW244433   1.023   3.710   4.887
 8887WAT    LP144434   0.967   3.585   4.892
 8887WAT    LP244435   1.081   3.586   4.901
 8888WAT     OW44436   2.148   4.677   1.965
 8888WAT    HW144437   2.215   4.684   2.033
 8888WAT    HW244438   2.194   4.695   1.883
 8888WAT    LP144439   2.120   4.613   1.964
 8888WAT    LP244440   2.097   4.724   1.975
 8889WAT     OW44441   4.238   4.809   3.411
 8889WAT    HW144442   4.222   4.721   3.377
 8889WAT    HW244443   4.317   4.838   3.365
 8889WAT    LP144444   4.184   4.851   3.398
 8889WAT    LP244445   4.250   4.807   3.480
 8890WAT     OW44446   3.726   6.323   1.286
 8890WAT    HW144447   3.650   6.357   1.239
 8890WAT    HW244448   3.782   6.286   1.217
 8890WAT    LP144449   3.759   6.375   1.319
 8890WAT    LP244450   3.707   6.274   1.331
 8891WAT     OW44451   5.276   1.870   1.968
 8891WAT    HW144452   5.228   1.830   2.041
 8891WAT    HW244453   5.208   1.892   1.904
 8891WAT    LP144454   5.310   1.927   1.989
 8891WAT    LP244455   5.321   1.824   1.941
 8892WAT     OW44456   4.599   3.674   4.950
 8892WAT    HW144457   4.633   3.761   4.931
 8892WAT    HW244458   4.637   3.652   5.036
 8892WAT    LP144459   4.529   3.674   4.953
 8892WAT    LP244460   4.620   3.628   4.902
 8893WAT     OW44461   3.659   4.893   1.747
 8893WAT    HW144462   3.681   4.904   1.654
 8893WAT    HW244463   3.649   4.798   1.758
 8893WAT    LP144464   3.711   4.917   1.787
 8893WAT    LP244465   3.600   4.926   1.763
 8894WAT     OW44466   5.179   3.128   4.091
 8894WAT    HW144467   5.086   3.144   4.077
 8894WAT    HW244468   5.223   3.185   4.027
 8894WAT    LP144469   5.197   3.146   4.156
 8894WAT    LP244470   5.195   3.061   4.079
 8895WAT     OW44471   2.162   0.539   1.605
 8895WAT    HW144472   2.089   0.485   1.635
 8895WAT    HW244473   2.134   0.629   1.622
 8895WAT    LP144474   2.220   0.524   1.641
 8895WAT    LP244475   2.174   0.529   1.537
 8896WAT     OW44476   4.832   0.511   4.195
 8896WAT    HW144477   4.745   0.544   4.217
 8896WAT    HW244478   4.816   0.426   4.154
 8896WAT    LP144479   4.864   0.555   4.151
 8896WAT    LP244480   4.871   0.504   4.253
 8897WAT     OW44481   5.123   5.406   4.938
 8897WAT    HW144482   5.078   5.472   4.991
 8897WAT    HW244483   5.053   5.359   4.893
 8897WAT    LP144484   5.166   5.437   4.892
 8897WAT    LP244485   5.160   5.363   4.979
 8898WAT     OW44486   0.055   5.978   6.326
 8898WAT    HW144487   0.093   6.038   6.389
 8898WAT    HW244488  -0.038   5.976   6.347
 8898WAT    LP144489   0.065   6.001   6.260
 8898WAT    LP244490   0.083   5.914   6.332
 8899WAT     OW44491   6.139   6.508   5.885
 8899WAT    HW144492   6.099   6.568   5.822
 8899WAT    HW244493   6.120   6.546   5.971
 8899WAT    LP144494   6.110   6.444   5.880
 8899WAT    LP244495   6.208   6.503   5.875
 8900WAT     OW44496   0.062   0.323   2.044
 8900WAT    HW144497   0.007   0.351   1.971
 8900WAT    HW244498   0.010   0.341   2.122
 8900WAT    LP144499   0.077   0.255   2.040
 8900WAT    LP244500   0.122   0.359   2.045
 8901WAT     OW44501   3.316   5.632   5.432
 8901WAT    HW144502   3.367   5.565   5.386
 8901WAT    HW244503   3.315   5.707   5.372
 8901WAT    LP144504   3.251   5.609   5.444
 8901WAT    LP244505   3.346   5.649   5.493
 8902WAT     OW44506   5.621   1.405   2.415
 8902WAT    HW144507   5.603   1.482   2.362
 8902WAT    HW244508   5.685   1.434   2.480
 8902WAT    LP144509   5.562   1.382   2.446
 8902WAT    LP244510   5.648   1.353   2.376
 8903WAT     OW44511   2.165   4.456   4.282
 8903WAT    HW144512   2.117   4.525   4.235
 8903WAT    HW244513   2.142   4.376   4.236
 8903WAT    LP144514   2.234   4.468   4.279
 8903WAT    LP244515   2.145   4.453   4.349
 8904WAT     OW44516   4.231   2.207   1.097
 8904WAT    HW144517   4.228   2.205   1.001
 8904WAT    HW244518   4.294   2.139   1.120
 8904WAT    LP144519   4.253   2.270   1.119
 8904WAT    LP244520   4.168   2.193   1.124
 8905WAT     OW44521   2.657   1.464   0.479
 8905WAT    HW144522   2.563   1.465   0.461
 8905WAT    HW244523   2.663   1.440   0.572
 8905WAT    LP144524   2.689   1.416   0.439
 8905WAT    LP244525   2.685   1.527   0.468
 8906WAT     OW44526   4.513   1.475   2.996
 8906WAT    HW144527   4.495   1.423   2.918
 8906WAT    HW244528   4.479   1.422   3.068
 8906WAT    LP144529   4.581   1.486   3.003
 8906WAT    LP244530   4.479   1.536   2.992
 8907WAT     OW44531   6.199   4.956   3.161
 8907WAT    HW144532   6.215   4.939   3.068
 8907WAT    HW244533   6.286   4.972   3.197
 8907WAT    LP144534   6.159   5.013   3.169
 8907WAT    LP244535   6.169   4.901   3.191
 8908WAT     OW44536   0.465   4.651   1.011
 8908WAT    HW144537   0.375   4.650   0.977
 8908WAT    HW244538   0.454   4.645   1.106
 8908WAT    LP144539   0.501   4.597   0.987
 8908WAT    LP244540   0.497   4.711   0.994
 8909WAT     OW44541   5.298   0.947   0.102
 8909WAT    HW144542   5.286   0.953   0.007
 8909WAT    HW244543   5.377   0.999   0.119
 8909WAT    LP144544   5.243   0.973   0.136
 8909WAT    LP244545   5.308   0.880   0.121
 8910WAT     OW44546   0.267   3.100   1.767
 8910WAT    HW144547   0.264   3.160   1.693
 8910WAT    HW244548   0.344   3.126   1.817
 8910WAT    LP144549   0.209   3.105   1.806
 8910WAT    LP244550   0.274   3.034   1.744
 8911WAT     OW44551   1.680   5.632   5.355
 8911WAT    HW144552   1.610   5.567   5.357
 8911WAT    HW244553   1.705   5.637   5.262
 8911WAT    LP144554   1.657   5.694   5.378
 8911WAT    LP244555   1.734   5.612   5.394
 8912WAT     OW44556   1.412   5.847   0.840
 8912WAT    HW144557   1.438   5.907   0.910
 8912WAT    HW244558   1.344   5.793   0.879
 8912WAT    LP144559   1.386   5.883   0.785
 8912WAT    LP244560   1.466   5.808   0.819
 8913WAT     OW44561   0.724   5.114   4.771
 8913WAT    HW144562   0.668   5.183   4.736
 8913WAT    HW244563   0.662   5.046   4.800
 8913WAT    LP144564   0.766   5.088   4.721
 8913WAT    LP244565   0.762   5.137   4.825
 8914WAT     OW44566   3.981   4.886   2.401
 8914WAT    HW144567   3.955   4.970   2.439
 8914WAT    HW244568   3.900   4.835   2.397
 8914WAT    LP144569   4.008   4.895   2.337
 8914WAT    LP244570   4.028   4.854   2.442
 8915WAT     OW44571   1.959   5.028   4.798
 8915WAT    HW144572   2.054   5.013   4.802
 8915WAT    HW244573   1.951   5.116   4.761
 8915WAT    LP144574   1.928   4.981   4.757
 8915WAT    LP244575   1.931   5.026   4.862
 8916WAT     OW44576   4.358   4.654   4.550
 8916WAT    HW144577   4.434   4.623   4.500
 8916WAT    HW244578   4.331   4.734   4.505
 8916WAT    LP144579   4.307   4.606   4.549
 8916WAT    LP244580   4.376   4.667   4.616
 8917WAT     OW44581   4.311   0.310   3.802
 8917WAT    HW144582   4.221   0.288   3.776
 8917WAT    HW244583   4.361   0.230   3.785
 8917WAT    LP144584   4.335   0.363   3.764
 8917WAT    LP244585   4.314   0.326   3.870
 8918WAT     OW44586   4.969   1.676   0.198
 8918WAT    HW144587   5.014   1.672   0.113
 8918WAT    HW244588   4.876   1.670   0.176
 8918WAT    LP144589   4.988   1.622   0.238
 8918WAT    LP244590   4.984   1.736   0.231
 8919WAT     OW44591   4.272   6.590   3.634
 8919WAT    HW144592   4.306   6.518   3.581
 8919WAT    HW244593   4.201   6.550   3.684
 8919WAT    LP144594   4.321   6.615   3.677
 8919WAT    LP244595   4.247   6.641   3.593
 8920WAT     OW44596   2.045   3.113   4.408
 8920WAT    HW144597   2.056   3.179   4.477
 8920WAT    HW244598   2.115   3.132   4.345
 8920WAT    LP144599   2.053   3.048   4.434
 8920WAT    LP244600   1.982   3.119   4.378
 8921WAT     OW44601   5.571   2.656   5.958
 8921WAT    HW144602   5.662   2.683   5.957
 8921WAT    HW244603   5.521   2.737   5.952
 8921WAT    LP144604   5.557   2.614   5.904
 8921WAT    LP244605   5.556   2.623   6.018
 8922WAT     OW44606   3.851   6.133   6.195
 8922WAT    HW144607   3.774   6.077   6.192
 8922WAT    HW244608   3.834   6.201   6.129
 8922WAT    LP144609   3.859   6.162   6.258
 8922WAT    LP244610   3.909   6.097   6.178
 8923WAT     OW44611   2.777   4.083   1.094
 8923WAT    HW144612   2.850   4.076   1.156
 8923WAT    HW244613   2.818   4.090   1.008
 8923WAT    LP144614   2.737   4.026   1.098
 8923WAT    LP244615   2.738   4.140   1.108
 8924WAT     OW44616   5.008   5.958   0.269
 8924WAT    HW144617   5.069   5.900   0.223
 8924WAT    HW244618   4.950   5.991   0.200
 8924WAT    LP144619   4.971   5.922   0.317
 8924WAT    LP244620   5.042   6.010   0.300
 8925WAT     OW44621   4.480   3.737   1.601
 8925WAT    HW144622   4.428   3.736   1.681
 8925WAT    HW244623   4.556   3.790   1.622
 8925WAT    LP144624   4.499   3.672   1.583
 8925WAT    LP244625   4.443   3.766   1.549
 8926WAT     OW44626   3.305   0.508   0.863
 8926WAT    HW144627   3.334   0.585   0.913
 8926WAT    HW244628   3.386   0.468   0.832
 8926WAT    LP144629   3.270   0.463   0.905
 8926WAT    LP244630   3.264   0.527   0.810
 8927WAT     OW44631   3.489   5.883   0.207
 8927WAT    HW144632   3.549   5.819   0.246
 8927WAT    HW244633   3.407   5.871   0.255
 8927WAT    LP144634   3.513   5.948   0.216
 8927WAT    LP244635   3.480   5.870   0.139
 8928WAT     OW44636   3.618   6.366   0.887
 8928WAT    HW144637   3.591   6.393   0.975
 8928WAT    HW244638   3.592   6.439   0.830
 8928WAT    LP144639   3.687   6.356   0.884
 8928WAT    LP244640   3.585   6.307   0.868
 8929WAT     OW44641   3.296   3.447   2.915
 8929WAT    HW144642   3.252   3.364   2.894
 8929WAT    HW244643   3.389   3.423   2.919
 8929WAT    LP144644   3.285   3.494   2.864
 8929WAT    LP244645   3.274   3.472   2.976
 8930WAT     OW44646   5.670   5.378   1.983
 8930WAT    HW144647   5.759   5.408   1.964
 8930WAT    HW244648   5.639   5.438   2.051
 8930WAT    LP144649   5.630   5.383   1.926
 8930WAT    LP244650   5.670   5.312   2.006
 8931WAT     OW44651   1.502   2.404   1.608
 8931WAT    HW144652   1.446   2.341   1.562
 8931WAT    HW244653   1.522   2.471   1.543
 8931WAT    LP144654   1.468   2.432   1.663
 8931WAT    LP244655   1.561   2.374   1.631
 8932WAT     OW44656   0.619   6.466   6.011
 8932WAT    HW144657   0.585   6.382   5.980
 8932WAT    HW244658   0.634   6.517   5.931
 8932WAT    LP144659   0.573   6.498   6.053
 8932WAT    LP244660   0.680   6.457   6.046
 8933WAT     OW44661   4.191   4.138   5.318
 8933WAT    HW144662   4.156   4.148   5.407
 8933WAT    HW244663   4.232   4.223   5.299
 8933WAT    LP144664   4.238   4.087   5.315
 8933WAT    LP244665   4.139   4.125   5.273
 8934WAT     OW44666   0.533   4.467   4.179
 8934WAT    HW144667   0.498   4.381   4.159
 8934WAT    HW244668   0.559   4.461   4.271
 8934WAT    LP144669   0.589   4.481   4.139
 8934WAT    LP244670   0.485   4.516   4.170
 8935WAT     OW44671   2.130   1.323   5.894
 8935WAT    HW144672   2.163   1.289   5.811
 8935WAT    HW244673   2.113   1.245   5.947
 8935WAT    LP144674   2.177   1.364   5.925
 8935WAT    LP244675   2.071   1.359   5.884
 8936WAT     OW44676   4.926   5.012   5.780
 8936WAT    HW144677   4.878   5.067   5.718
 8936WAT    HW244678   4.872   4.934   5.791
 8936WAT    LP144679   4.989   4.994   5.754
 8936WAT    LP244680   4.935   5.045   5.841
 8937WAT     OW44681   2.056   3.400   2.006
 8937WAT    HW144682   2.018   3.418   1.920
 8937WAT    HW244683   2.059   3.305   2.013
 8937WAT    LP144684   2.121   3.427   2.010
 8937WAT    LP244685   2.017   3.428   2.057
 8938WAT     OW44686   4.930   3.112   6.463
 8938WAT    HW144687   4.905   3.177   6.528
 8938WAT    HW244688   5.024   3.097   6.478
 8938WAT    LP144689   4.894   3.053   6.472
 8938WAT    LP244690   4.919   3.136   6.398
 8939WAT     OW44691   5.898   3.276   0.435
 8939WAT    HW144692   5.857   3.360   0.416
 8939WAT    HW244693   5.988   3.297   0.458
 8939WAT    LP144694   5.865   3.244   0.488
 8939WAT    LP244695   5.896   3.235   0.378
 8940WAT     OW44696   6.286   5.985   3.752
 8940WAT    HW144697   6.287   6.038   3.831
 8940WAT    HW244698   6.361   6.015   3.701
 8940WAT    LP144699   6.293   5.917   3.768
 8940WAT    LP244700   6.227   5.994   3.716
 8941WAT     OW44701   0.906   0.977   1.502
 8941WAT    HW144702   0.867   1.064   1.512
 8941WAT    HW244703   0.863   0.923   1.569
 8941WAT    LP144704   0.894   0.951   1.438
 8941WAT    LP244705   0.975   0.979   1.513
 8942WAT     OW44706   3.825   4.273   0.378
 8942WAT    HW144707   3.870   4.339   0.324
 8942WAT    HW244708   3.749   4.249   0.325
 8942WAT    LP144709   3.866   4.218   0.389
 8942WAT    LP244710   3.805   4.301   0.439
 8943WAT     OW44711   0.943   5.815   0.398
 8943WAT    HW144712   0.993   5.812   0.480
 8943WAT    HW244713   1.008   5.798   0.330
 8943WAT    LP144714   0.893   5.765   0.398
 8943WAT    LP244715   0.913   5.878   0.389
 8944WAT     OW44716   2.985   5.589   5.523
 8944WAT    HW144717   2.915   5.649   5.551
 8944WAT    HW244718   3.036   5.573   5.602
 8944WAT    LP144719   2.958   5.530   5.499
 8944WAT    LP244720   3.024   5.619   5.474
 8945WAT     OW44721   6.470   0.483   5.047
 8945WAT    HW144722   6.503   0.551   5.105
 8945WAT    HW244723   6.375   0.496   5.046
 8945WAT    LP144724   6.497   0.490   4.983
 8945WAT    LP244725   6.486   0.419   5.071
 8946WAT     OW44726   5.670   2.065   2.509
 8946WAT    HW144727   5.729   2.093   2.579
 8946WAT    HW244728   5.582   2.077   2.546
 8946WAT    LP144729   5.678   2.105   2.452
 8946WAT    LP244730   5.681   1.998   2.492
 8947WAT     OW44731   2.294   3.173   4.988
 8947WAT    HW144732   2.258   3.257   5.016
 8947WAT    HW244733   2.224   3.110   5.003
 8947WAT    LP144734   2.312   3.175   4.921
 8947WAT    LP244735   2.351   3.156   5.026
 8948WAT     OW44736   3.531   6.253   0.634
 8948WAT    HW144737   3.574   6.274   0.716
 8948WAT    HW244738   3.443   6.289   0.643
 8948WAT    LP144739   3.564   6.282   0.580
 8948WAT    LP244740   3.528   6.183   0.625
 8949WAT     OW44741   1.336   1.380   1.151
 8949WAT    HW144742   1.278   1.393   1.227
 8949WAT    HW244743   1.287   1.416   1.077
 8949WAT    LP144744   1.396   1.414   1.160
 8949WAT    LP244745   1.349   1.312   1.141
 8950WAT     OW44746   1.253   6.526   0.051
 8950WAT    HW144747   1.268   6.465   0.123
 8950WAT    HW244748   1.198   6.595   0.088
 8950WAT    LP144749   1.314   6.553   0.028
 8950WAT    LP244750   1.220   6.494  -0.002
 8951WAT     OW44751   5.733   5.239   5.087
 8951WAT    HW144752   5.688   5.158   5.114
 8951WAT    HW244753   5.818   5.234   5.129
 8951WAT    LP144754   5.739   5.241   5.017
 8951WAT    LP244755   5.697   5.295   5.109
 8952WAT     OW44756   0.624   3.108   4.964
 8952WAT    HW144757   0.565   3.164   4.913
 8952WAT    HW244758   0.711   3.131   4.934
 8952WAT    LP144759   0.617   3.122   5.033
 8952WAT    LP244760   0.610   3.041   4.952
 8953WAT     OW44761   1.783   0.213   4.759
 8953WAT    HW144762   1.759   0.270   4.832
 8953WAT    HW244763   1.699   0.175   4.731
 8953WAT    LP144764   1.811   0.251   4.707
 8953WAT    LP244765   1.827   0.163   4.779
 8954WAT     OW44766   0.763   0.650   5.661
 8954WAT    HW144767   0.783   0.738   5.691
 8954WAT    HW244768   0.832   0.630   5.598
 8954WAT    LP144769   0.764   0.604   5.714
 8954WAT    LP244770   0.700   0.649   5.630
 8955WAT     OW44771   4.832   2.777   4.245
 8955WAT    HW144772   4.894   2.815   4.307
 8955WAT    HW244773   4.760   2.746   4.300
 8955WAT    LP144774   4.810   2.825   4.199
 8955WAT    LP244775   4.862   2.723   4.211
 8956WAT     OW44776   0.806   2.267   4.473
 8956WAT    HW144777   0.850   2.260   4.558
 8956WAT    HW244778   0.859   2.212   4.414
 8956WAT    LP144779   0.741   2.243   4.477
 8956WAT    LP244780   0.805   2.333   4.451
 8957WAT     OW44781   2.069   4.297   4.731
 8957WAT    HW144782   2.093   4.364   4.666
 8957WAT    HW244783   2.092   4.214   4.690
 8957WAT    LP144784   2.106   4.307   4.790
 8957WAT    LP244785   2.001   4.300   4.745
 8958WAT     OW44786   1.052   3.210   4.003
 8958WAT    HW144787   1.002   3.268   3.946
 8958WAT    HW244788   1.143   3.225   3.978
 8958WAT    LP144789   1.042   3.226   4.070
 8958WAT    LP244790   1.035   3.143   3.992
 8959WAT     OW44791   5.792   2.683   0.089
 8959WAT    HW144792   5.872   2.706   0.042
 8959WAT    HW244793   5.784   2.588   0.077
 8959WAT    LP144794   5.798   2.699   0.157
 8959WAT    LP244795   5.737   2.716   0.062
 8960WAT     OW44796   5.756   0.312   1.489
 8960WAT    HW144797   5.781   0.306   1.397
 8960WAT    HW244798   5.706   0.393   1.495
 8960WAT    LP144799   5.716   0.257   1.507
 8960WAT    LP244800   5.812   0.314   1.530
 8961WAT     OW44801   5.226   3.475   1.299
 8961WAT    HW144802   5.279   3.403   1.265
 8961WAT    HW244803   5.150   3.433   1.339
 8961WAT    LP144804   5.262   3.512   1.346
 8961WAT    LP244805   5.206   3.517   1.247
 8962WAT     OW44806   1.129   4.055   1.332
 8962WAT    HW144807   1.058   4.062   1.396
 8962WAT    HW244808   1.149   4.146   1.309
 8962WAT    LP144809   1.185   4.024   1.361
 8962WAT    LP244810   1.108   4.019   1.276
 8963WAT     OW44811   6.332   1.689   5.565
 8963WAT    HW144812   6.323   1.782   5.546
 8963WAT    HW244813   6.415   1.664   5.525
 8963WAT    LP144814   6.333   1.677   5.634
 8963WAT    LP244815   6.279   1.653   5.536
 8964WAT     OW44816   5.874   6.354   3.831
 8964WAT    HW144817   5.856   6.290   3.900
 8964WAT    HW244818   5.918   6.426   3.876
 8964WAT    LP144819   5.915   6.326   3.782
 8964WAT    LP244820   5.814   6.376   3.802
 8965WAT     OW44821   4.180   5.989   3.124
 8965WAT    HW144822   4.178   6.035   3.040
 8965WAT    HW244823   4.265   6.011   3.162
 8965WAT    LP144824   4.128   6.010   3.165
 8965WAT    LP244825   4.175   5.919   3.114
 8966WAT     OW44826   4.338   4.772   2.267
 8966WAT    HW144827   4.271   4.720   2.311
 8966WAT    HW244828   4.301   4.791   2.181
 8966WAT    LP144829   4.350   4.832   2.302
 8966WAT    LP244830   4.397   4.736   2.261
 8967WAT     OW44831   1.835   1.350   6.124
 8967WAT    HW144832   1.770   1.420   6.113
 8967WAT    HW244833   1.906   1.391   6.173
 8967WAT    LP144834   1.808   1.296   6.160
 8967WAT    LP244835   1.858   1.328   6.062
 8968WAT     OW44836   5.727   6.575   2.273
 8968WAT    HW144837   5.777   6.655   2.260
 8968WAT    HW244838   5.670   6.570   2.196
 8968WAT    LP144839   5.769   6.519   2.276
 8968WAT    LP244840   5.689   6.579   2.332
 8969WAT     OW44841   0.079   0.314   4.630
 8969WAT    HW144842   0.040   0.401   4.639
 8969WAT    HW244843   0.142   0.308   4.702
 8969WAT    LP144844   0.030   0.264   4.636
 8969WAT    LP244845   0.112   0.308   4.568
 8970WAT     OW44846   6.617   2.295   5.456
 8970WAT    HW144847   6.695   2.351   5.447
 8970WAT    HW244848   6.548   2.354   5.486
 8970WAT    LP144849   6.600   2.266   5.394
 8970WAT    LP244850   6.629   2.244   5.503
 8971WAT     OW44851   3.228   0.949   4.743
 8971WAT    HW144852   3.139   0.916   4.726
 8971WAT    HW244853   3.226   0.975   4.835
 8971WAT    LP144854   3.275   0.898   4.733
 8971WAT    LP244855   3.243   1.003   4.702
 8972WAT     OW44856   0.752   6.066   0.594
 8972WAT    HW144857   0.801   6.136   0.636
 8972WAT    HW244858   0.775   6.072   0.502
 8972WAT    LP144859   0.770   6.004   0.621
 8972WAT    LP244860   0.683   6.075   0.603
 8973WAT     OW44861   3.658   1.716   1.133
 8973WAT    HW144862   3.633   1.795   1.086
 8973WAT    HW244863   3.643   1.737   1.225
 8973WAT    LP144864   3.619   1.662   1.113
 8973WAT    LP244865   3.726   1.701   1.122
 8974WAT     OW44866   1.386   3.120   2.077
 8974WAT    HW144867   1.434   3.049   2.121
 8974WAT    HW244868   1.297   3.113   2.112
 8974WAT    LP144869   1.413   3.182   2.093
 8974WAT    LP244870   1.386   3.111   2.008
 8975WAT     OW44871   4.133   2.834   0.087
 8975WAT    HW144872   4.042   2.805   0.081
 8975WAT    HW244873   4.134   2.897   0.158
 8975WAT    LP144874   4.175   2.779   0.101
 8975WAT    LP244875   4.153   2.864   0.027
 8976WAT     OW44876   6.180   4.239   1.687
 8976WAT    HW144877   6.148   4.214   1.600
 8976WAT    HW244878   6.150   4.169   1.745
 8976WAT    LP144879   6.250   4.242   1.687
 8976WAT    LP244880   6.154   4.301   1.707
 8977WAT     OW44881   0.433   5.518   5.849
 8977WAT    HW144882   0.440   5.597   5.796
 8977WAT    HW244883   0.504   5.525   5.912
 8977WAT    LP144884   0.371   5.515   5.881
 8977WAT    LP244885   0.441   5.461   5.809
 8978WAT     OW44886   5.946   1.966   0.778
 8978WAT    HW144887   5.861   1.993   0.744
 8978WAT    HW244888   6.004   1.968   0.701
 8978WAT    LP144889   5.969   2.011   0.827
 8978WAT    LP244890   5.943   1.902   0.805
 8979WAT     OW44891   3.146   5.406   2.665
 8979WAT    HW144892   3.180   5.494   2.650
 8979WAT    HW244893   3.121   5.375   2.578
 8979WAT    LP144894   3.195   5.365   2.693
 8979WAT    LP244895   3.090   5.408   2.707
 8980WAT     OW44896   2.558   2.927   2.958
 8980WAT    HW144897   2.502   3.002   2.977
 8980WAT    HW244898   2.498   2.859   2.927
 8980WAT    LP144899   2.605   2.943   2.909
 8980WAT    LP244900   2.591   2.905   3.016
 8981WAT     OW44901   5.081   3.434   3.170
 8981WAT    HW144902   5.114   3.488   3.242
 8981WAT    HW244903   5.007   3.482   3.134
 8981WAT    LP144904   5.131   3.425   3.121
 8981WAT    LP244905   5.061   3.371   3.194
 8982WAT     OW44906   1.659   5.544   3.803
 8982WAT    HW144907   1.587   5.481   3.804
 8982WAT    HW244908   1.626   5.619   3.852
 8982WAT    LP144909   1.716   5.518   3.833
 8982WAT    LP244910   1.675   5.563   3.737
 8983WAT     OW44911   4.325   4.760   1.094
 8983WAT    HW144912   4.319   4.758   1.190
 8983WAT    HW244913   4.412   4.724   1.075
 8983WAT    LP144914   4.275   4.720   1.066
 8983WAT    LP244915   4.320   4.825   1.070
 8984WAT     OW44916   2.995   4.445   3.283
 8984WAT    HW144917   3.028   4.357   3.261
 8984WAT    HW244918   2.992   4.491   3.199
 8984WAT    LP144919   2.931   4.441   3.312
 8984WAT    LP244920   3.039   4.477   3.327
 8985WAT     OW44921   5.072   0.846   6.402
 8985WAT    HW144922   5.037   0.784   6.465
 8985WAT    HW244923   5.009   0.918   6.401
 8985WAT    LP144924   5.135   0.869   6.423
 8985WAT    LP244925   5.078   0.817   6.338
 8986WAT     OW44926   3.272   6.380   1.151
 8986WAT    HW144927   3.222   6.452   1.113
 8986WAT    HW244928   3.226   6.359   1.232
 8986WAT    LP144929   3.272   6.325   1.107
 8986WAT    LP244930   3.338   6.400   1.164
 8987WAT     OW44931   6.241   1.042   3.398
 8987WAT    HW144932   6.174   1.086   3.449
 8987WAT    HW244933   6.317   1.100   3.402
 8987WAT    LP144934   6.257   0.979   3.426
 8987WAT    LP244935   6.220   1.033   3.331
 8988WAT     OW44936   1.505   2.138   3.192
 8988WAT    HW144937   1.600   2.142   3.184
 8988WAT    HW244938   1.473   2.206   3.132
 8988WAT    LP144939   1.481   2.075   3.173
 8988WAT    LP244940   1.485   2.152   3.258
 8989WAT     OW44941   2.161   1.899   4.247
 8989WAT    HW144942   2.086   1.937   4.200
 8989WAT    HW244943   2.156   1.936   4.335
 8989WAT    LP144944   2.155   1.829   4.249
 8989WAT    LP244945   2.221   1.916   4.216
 8990WAT     OW44946   6.598   4.688   3.030
 8990WAT    HW144947   6.532   4.622   3.010
 8990WAT    HW244948   6.584   4.709   3.123
 8990WAT    LP144949   6.662   4.663   3.020
 8990WAT    LP244950   6.588   4.745   2.991
 8991WAT     OW44951   2.778   2.485   5.326
 8991WAT    HW144952   2.756   2.566   5.279
 8991WAT    HW244953   2.834   2.437   5.265
 8991WAT    LP144954   2.811   2.499   5.385
 8991WAT    LP244955   2.720   2.448   5.340
 8992WAT     OW44956   6.692   2.100   2.096
 8992WAT    HW144957   6.733   2.096   2.010
 8992WAT    HW244958   6.748   2.047   2.152
 8992WAT    LP144959   6.690   2.166   2.119
 8992WAT    LP244960   6.627   2.074   2.094
 8993WAT     OW44961   5.503   6.679   5.866
 8993WAT    HW144962   5.591   6.715   5.855
 8993WAT    HW244963   5.494   6.666   5.961
 8993WAT    LP144964   5.455   6.724   5.843
 8993WAT    LP244965   5.497   6.618   5.832
 8994WAT     OW44966   3.857   6.565   5.517
 8994WAT    HW144967   3.876   6.627   5.447
 8994WAT    HW244968   3.834   6.619   5.592
 8994WAT    LP144969   3.804   6.523   5.500
 8994WAT    LP244970   3.914   6.526   5.532
 8995WAT     OW44971   3.577   5.600   0.561
 8995WAT    HW144972   3.609   5.646   0.484
 8995WAT    HW244973   3.482   5.600   0.551
 8995WAT    LP144974   3.602   5.535   0.563
 8995WAT    LP244975   3.595   5.634   0.620
 8996WAT     OW44976   4.879   4.229   4.490
 8996WAT    HW144977   4.871   4.320   4.463
 8996WAT    HW244978   4.793   4.191   4.472
 8996WAT    LP144979   4.928   4.197   4.452
 8996WAT    LP244980   4.895   4.224   4.558
 8997WAT     OW44981   1.122   0.797   0.703
 8997WAT    HW144982   1.194   0.856   0.724
 8997WAT    HW244983   1.163   0.724   0.655
 8997WAT    LP144984   1.091   0.773   0.761
 8997WAT    LP244985   1.074   0.829   0.663
 8998WAT     OW44986   0.467   1.794   3.976
 8998WAT    HW144987   0.412   1.810   4.052
 8998WAT    HW244988   0.484   1.880   3.939
 8998WAT    LP144989   0.527   1.763   3.995
 8998WAT    LP244990   0.434   1.753   3.929
 8999WAT     OW44991   4.932   5.358   4.238
 8999WAT    HW144992   4.964   5.274   4.205
 8999WAT    HW244993   5.004   5.392   4.290
 8999WAT    LP144994   4.917   5.401   4.185
 8999WAT    LP244995   4.875   5.349   4.278
 9000WAT     OW44996   2.788   5.887   4.783
 9000WAT    HW144997   2.752   5.957   4.837
 9000WAT    HW244998   2.880   5.881   4.809
 9000WAT    LP144999   2.755   5.827   4.796
 9000WAT    LP245000   2.783   5.903   4.715
 9001WAT     OW45001   2.312   1.081   1.766
 9001WAT    HW145002   2.365   1.034   1.830
 9001WAT    HW245003   2.321   1.031   1.685
 9001WAT    LP145004   2.245   1.083   1.786
 9001WAT    LP245005   2.335   1.146   1.757
 9002WAT     OW45006   4.555   3.218   2.735
 9002WAT    HW145007   4.466   3.238   2.708
 9002WAT    HW245008   4.610   3.263   2.670
 9002WAT    LP145009   4.568   3.242   2.799
 9002WAT    LP245010   4.566   3.149   2.733
 9003WAT     OW45011   4.683   1.718   1.461
 9003WAT    HW145012   4.644   1.685   1.380
 9003WAT    HW245013   4.740   1.789   1.434
 9003WAT    LP145014   4.633   1.742   1.505
 9003WAT    LP245015   4.719   1.668   1.494
 9004WAT     OW45016   1.585   2.494   5.505
 9004WAT    HW145017   1.616   2.436   5.436
 9004WAT    HW245018   1.664   2.516   5.555
 9004WAT    LP145019   1.556   2.552   5.478
 9004WAT    LP245020   1.538   2.462   5.546
 9005WAT     OW45021   2.493   1.803   4.981
 9005WAT    HW145022   2.560   1.738   4.963
 9005WAT    HW245023   2.488   1.807   5.077
 9005WAT    LP145024   2.511   1.866   4.955
 9005WAT    LP245025   2.431   1.783   4.954
 9006WAT     OW45026   2.661   5.256   4.562
 9006WAT    HW145027   2.718   5.187   4.596
 9006WAT    HW245028   2.690   5.269   4.471
 9006WAT    LP145029   2.594   5.237   4.564
 9006WAT    LP245030   2.669   5.315   4.599
 9007WAT     OW45031   6.095   2.730   1.538
 9007WAT    HW145032   6.162   2.701   1.476
 9007WAT    HW245033   6.012   2.714   1.493
 9007WAT    LP145034   6.099   2.692   1.597
 9007WAT    LP245035   6.103   2.798   1.553
 9008WAT     OW45036   2.135   4.846   5.848
 9008WAT    HW145037   2.206   4.885   5.797
 9008WAT    HW245038   2.057   4.855   5.793
 9008WAT    LP145039   2.148   4.778   5.860
 9008WAT    LP245040   2.126   4.879   5.909
 9009WAT     OW45041   6.344   0.500   0.522
 9009WAT    HW145042   6.410   0.561   0.556
 9009WAT    HW245043   6.295   0.550   0.457
 9009WAT    LP145044   6.374   0.444   0.493
 9009WAT    LP245045   6.301   0.479   0.574
 9010WAT     OW45046   3.563   2.481   2.322
 9010WAT    HW145047   3.524   2.499   2.236
 9010WAT    HW245048   3.656   2.496   2.310
 9010WAT    LP145049   3.537   2.525   2.370
 9010WAT    LP245050   3.550   2.415   2.341
 9011WAT     OW45051   2.569   3.577   0.092
 9011WAT    HW145052   2.585   3.554   0.183
 9011WAT    HW245053   2.515   3.506   0.058
 9011WAT    LP145054   2.536   3.638   0.087
 9011WAT    LP245055   2.630   3.581   0.057
 9012WAT     OW45056   2.372   6.346   3.339
 9012WAT    HW145057   2.377   6.317   3.430
 9012WAT    HW245058   2.396   6.268   3.288
 9012WAT    LP145059   2.307   6.367   3.323
 9012WAT    LP245060   2.417   6.398   3.327
 9013WAT     OW45061   2.774   2.779   5.624
 9013WAT    HW145062   2.723   2.801   5.703
 9013WAT    HW245063   2.725   2.818   5.552
 9013WAT    LP145064   2.838   2.807   5.628
 9013WAT    LP245065   2.780   2.710   5.617
 9014WAT     OW45066   1.233   3.410   4.153
 9014WAT    HW145067   1.281   3.377   4.077
 9014WAT    HW245068   1.289   3.478   4.190
 9014WAT    LP145069   1.171   3.437   4.133
 9014WAT    LP245070   1.222   3.359   4.200
 9015WAT     OW45071   2.458   5.670   2.339
 9015WAT    HW145072   2.405   5.712   2.407
 9015WAT    HW245073   2.436   5.577   2.345
 9015WAT    LP145074   2.441   5.695   2.276
 9015WAT    LP245075   2.526   5.680   2.351
 9016WAT     OW45076   3.539   4.792   0.101
 9016WAT    HW145077   3.598   4.851   0.055
 9016WAT    HW245078   3.479   4.760   0.033
 9016WAT    LP145079   3.574   4.738   0.129
 9016WAT    LP245080   3.504   4.826   0.151
 9017WAT     OW45081   0.810   2.347   5.877
 9017WAT    HW145082   0.804   2.366   5.783
 9017WAT    HW245083   0.880   2.282   5.884
 9017WAT    LP145084   0.825   2.404   5.913
 9017WAT    LP245085   0.749   2.320   5.900
 9018WAT     OW45086   0.173   6.093   1.396
 9018WAT    HW145087   0.093   6.133   1.365
 9018WAT    HW245088   0.165   6.094   1.492
 9018WAT    LP145089   0.178   6.027   1.373
 9018WAT    LP245090   0.229   6.129   1.376
 9019WAT     OW45091   6.696   5.491   4.537
 9019WAT    HW145092   6.603   5.506   4.520
 9019WAT    HW245093   6.715   5.546   4.614
 9019WAT    LP145094   6.708   5.424   4.552
 9019WAT    LP245095   6.735   5.511   4.483
 9020WAT     OW45096   5.221   0.002   0.710
 9020WAT    HW145097   5.288  -0.050   0.666
 9020WAT    HW245098   5.248   0.002   0.802
 9020WAT    LP145099   5.220   0.067   0.685
 9020WAT    LP245100   5.158  -0.027   0.702
 9021WAT     OW45101   1.959   3.707   2.540
 9021WAT    HW145102   1.965   3.792   2.496
 9021WAT    HW245103   1.873   3.673   2.515
 9021WAT    LP145104   2.009   3.664   2.518
 9021WAT    LP245105   1.963   3.715   2.610
 9022WAT     OW45106   5.257   6.672   4.088
 9022WAT    HW145107   5.247   6.650   3.996
 9022WAT    HW245108   5.178   6.637   4.130
 9022WAT    LP145109   5.314   6.641   4.115
 9022WAT    LP245110   5.261   6.741   4.098
 9023WAT     OW45111   2.265   6.240   4.465
 9023WAT    HW145112   2.322   6.175   4.507
 9023WAT    HW245113   2.222   6.192   4.394
 9023WAT    LP145114   2.218   6.265   4.511
 9023WAT    LP245115   2.303   6.293   4.440
 9024WAT     OW45116   6.289   0.473   1.869
 9024WAT    HW145117   6.311   0.529   1.795
 9024WAT    HW245118   6.217   0.518   1.913
 9024WAT    LP145119   6.269   0.410   1.848
 9024WAT    LP245120   6.344   0.467   1.912
 9025WAT     OW45121   5.835   1.290   3.884
 9025WAT    HW145122   5.821   1.206   3.927
 9025WAT    HW245123   5.924   1.315   3.908
 9025WAT    LP145124   5.829   1.283   3.814
 9025WAT    LP245125   5.789   1.337   3.907
 9026WAT     OW45126   0.531   4.670   3.659
 9026WAT    HW145127   0.620   4.636   3.664
 9026WAT    HW245128   0.488   4.614   3.594
 9026WAT    LP145129   0.499   4.665   3.721
 9026WAT    LP245130   0.531   4.737   3.638
 9027WAT     OW45131   6.413   3.431   5.026
 9027WAT    HW145132   6.369   3.394   4.949
 9027WAT    HW245133   6.506   3.412   5.011
 9027WAT    LP145134   6.402   3.500   5.030
 9027WAT    LP245135   6.391   3.400   5.084
 9028WAT     OW45136   5.501   1.877   3.401
 9028WAT    HW145137   5.553   1.938   3.454
 9028WAT    HW245138   5.411   1.897   3.425
 9028WAT    LP145139   5.512   1.889   3.333
 9028WAT    LP245140   5.517   1.811   3.417
 9029WAT     OW45141   2.765   4.947   3.780
 9029WAT    HW145142   2.732   4.905   3.701
 9029WAT    HW245143   2.839   5.001   3.750
 9029WAT    LP145144   2.716   4.988   3.810
 9029WAT    LP245145   2.786   4.899   3.826
 9030WAT     OW45146   1.375   5.435   0.659
 9030WAT    HW145147   1.372   5.350   0.614
 9030WAT    HW245148   1.441   5.484   0.610
 9030WAT    LP145149   1.313   5.467   0.655
 9030WAT    LP245150   1.394   5.427   0.726
 9031WAT     OW45151   3.075   0.141   6.596
 9031WAT    HW145152   3.082   0.122   6.502
 9031WAT    HW245153   3.007   0.081   6.627
 9031WAT    LP145154   3.136   0.129   6.628
 9031WAT    LP245155   3.056   0.207   6.606
 9032WAT     OW45156   0.546   3.277   6.557
 9032WAT    HW145157   0.489   3.313   6.489
 9032WAT    HW245158   0.601   3.213   6.511
 9032WAT    LP145159   0.585   3.328   6.585
 9032WAT    LP245160   0.509   3.246   6.607
 9033WAT     OW45161   2.570   1.235   2.260
 9033WAT    HW145162   2.554   1.269   2.348
 9033WAT    HW245163   2.610   1.307   2.213
 9033WAT    LP145164   2.613   1.180   2.262
 9033WAT    LP245165   2.509   1.216   2.230
 9034WAT     OW45166   5.245   6.047   1.233
 9034WAT    HW145167   5.162   6.091   1.249
 9034WAT    HW245168   5.238   6.014   1.143
 9034WAT    LP145169   5.299   6.093   1.238
 9034WAT    LP245170   5.255   5.995   1.278
 9035WAT     OW45171   5.219   5.085   3.673
 9035WAT    HW145172   5.195   4.994   3.691
 9035WAT    HW245173   5.180   5.135   3.744
 9035WAT    LP145174   5.289   5.093   3.672
 9035WAT    LP245175   5.193   5.106   3.611
 9036WAT     OW45176   5.004   6.382   2.726
 9036WAT    HW145177   5.019   6.473   2.749
 9036WAT    HW245178   5.047   6.332   2.795
 9036WAT    LP145179   4.936   6.368   2.723
 9036WAT    LP245180   5.033   6.367   2.664
 9037WAT     OW45181   0.564   1.871   0.902
 9037WAT    HW145182   0.631   1.907   0.845
 9037WAT    HW245183   0.487   1.862   0.846
 9037WAT    LP145184   0.583   1.808   0.927
 9037WAT    LP245185   0.551   1.914   0.956
 9038WAT     OW45186   3.593   3.360   1.834
 9038WAT    HW145187   3.576   3.270   1.804
 9038WAT    HW245188   3.507   3.400   1.840
 9038WAT    LP145189   3.625   3.359   1.896
 9038WAT    LP245190   3.633   3.394   1.787
 9039WAT     OW45191   3.657   3.525   2.277
 9039WAT    HW145192   3.593   3.548   2.345
 9039WAT    HW245193   3.741   3.553   2.313
 9039WAT    LP145194   3.656   3.456   2.265
 9039WAT    LP245195   3.642   3.560   2.218
 9040WAT     OW45196   6.619   2.027   5.496
 9040WAT    HW145197   6.691   2.015   5.558
 9040WAT    HW245198   6.618   2.122   5.479
 9040WAT    LP145199   6.630   1.992   5.437
 9040WAT    LP245200   6.558   2.007   5.525
 9041WAT     OW45201   5.031   2.706   1.494
 9041WAT    HW145202   4.982   2.683   1.573
 9041WAT    HW245203   5.090   2.776   1.522
 9041WAT    LP145204   5.068   2.651   1.472
 9041WAT    LP245205   4.988   2.727   1.444
 9042WAT     OW45206   2.463   3.406   5.738
 9042WAT    HW145207   2.493   3.496   5.731
 9042WAT    HW245208   2.367   3.412   5.738
 9042WAT    LP145209   2.485   3.368   5.684
 9042WAT    LP245210   2.485   3.377   5.798
 9043WAT     OW45211   2.417   5.113   2.668
 9043WAT    HW145212   2.509   5.087   2.665
 9043WAT    HW245213   2.378   5.074   2.590
 9043WAT    LP145214   2.386   5.089   2.726
 9043WAT    LP245215   2.411   5.183   2.666
 9044WAT     OW45216   6.328   5.625   3.470
 9044WAT    HW145217   6.252   5.647   3.524
 9044WAT    HW245218   6.369   5.550   3.513
 9044WAT    LP145219   6.309   5.608   3.405
 9044WAT    LP245220   6.373   5.679   3.467
 9045WAT     OW45221   5.860   3.452   3.674
 9045WAT    HW145222   5.831   3.540   3.651
 9045WAT    HW245223   5.953   3.450   3.652
 9045WAT    LP145224   5.850   3.439   3.742
 9045WAT    LP245225   5.825   3.404   3.637
 9046WAT     OW45226   0.374   0.213   1.486
 9046WAT    HW145227   0.293   0.264   1.476
 9046WAT    HW245228   0.369   0.177   1.574
 9046WAT    LP145229   0.377   0.162   1.438
 9046WAT    LP245230   0.430   0.255   1.479
 9047WAT     OW45231   2.615   1.882   6.645
 9047WAT    HW145232   2.684   1.826   6.681
 9047WAT    HW245233   2.657   1.967   6.633
 9047WAT    LP145234   2.591   1.856   6.585
 9047WAT    LP245235   2.562   1.887   6.690
 9048WAT     OW45236   4.752   4.804   1.259
 9048WAT    HW145237   4.795   4.881   1.220
 9048WAT    HW245238   4.815   4.773   1.324
 9048WAT    LP145239   4.692   4.822   1.289
 9048WAT    LP245240   4.740   4.755   1.211
 9049WAT     OW45241   6.322   2.272   3.570
 9049WAT    HW145242   6.277   2.357   3.566
 9049WAT    HW245243   6.411   2.293   3.596
 9049WAT    LP145244   6.291   2.231   3.618
 9049WAT    LP245245   6.320   2.241   3.508
 9050WAT     OW45246   0.278   6.395   1.877
 9050WAT    HW145247   0.283   6.385   1.782
 9050WAT    HW245248   0.360   6.437   1.901
 9050WAT    LP145249   0.223   6.435   1.894
 9050WAT    LP245250   0.272   6.333   1.908
 9051WAT     OW45251   0.054   3.057   1.279
 9051WAT    HW145252   0.074   3.139   1.235
 9051WAT    HW245253   0.138   3.012   1.285
 9051WAT    LP145254   0.027   3.068   1.343
 9051WAT    LP245255   0.008   3.019   1.242
 9052WAT     OW45256   5.599   2.531   4.418
 9052WAT    HW145257   5.676   2.581   4.444
 9052WAT    HW245258   5.538   2.596   4.382
 9052WAT    LP145259   5.616   2.483   4.369
 9052WAT    LP245260   5.571   2.498   4.473
 9053WAT     OW45261   2.514   6.149   5.700
 9053WAT    HW145262   2.539   6.088   5.630
 9053WAT    HW245263   2.438   6.195   5.665
 9053WAT    LP145264   2.497   6.114   5.758
 9053WAT    LP245265   2.566   6.193   5.713
 9054WAT     OW45266   3.832   4.226   4.320
 9054WAT    HW145267   3.790   4.145   4.292
 9054WAT    HW245268   3.808   4.234   4.413
 9054WAT    LP145269   3.901   4.222   4.313
 9054WAT    LP245270   3.808   4.281   4.284
 9055WAT     OW45271   1.287   4.089   2.425
 9055WAT    HW145272   1.362   4.050   2.380
 9055WAT    HW245273   1.213   4.034   2.400
 9055WAT    LP145274   1.296   4.088   2.495
 9055WAT    LP245275   1.277   4.155   2.404
 9056WAT     OW45276   1.123   2.653   4.019
 9056WAT    HW145277   1.102   2.627   3.929
 9056WAT    HW245278   1.100   2.746   4.022
 9056WAT    LP145279   1.084   2.617   4.065
 9056WAT    LP245280   1.191   2.644   4.033
 9057WAT     OW45281   0.491   2.566   0.073
 9057WAT    HW145282   0.545   2.600   0.001
 9057WAT    HW245283   0.443   2.492   0.035
 9057WAT    LP145284   0.531   2.545   0.126
 9057WAT    LP245285   0.447   2.615   0.095
 9058WAT     OW45286   3.893   4.635   1.757
 9058WAT    HW145287   3.798   4.633   1.765
 9058WAT    HW245288   3.916   4.552   1.716
 9058WAT    LP145289   3.914   4.689   1.717
 9058WAT    LP245290   3.923   4.640   1.820
 9059WAT     OW45291   2.674   2.620   4.706
 9059WAT    HW145292   2.618   2.550   4.739
 9059WAT    HW245293   2.682   2.601   4.612
 9059WAT    LP145294   2.645   2.682   4.716
 9059WAT    LP245295   2.737   2.618   4.737
 9060WAT     OW45296   3.615   4.252   0.145
 9060WAT    HW145297   3.542   4.234   0.086
 9060WAT    HW245298   3.608   4.346   0.163
 9060WAT    LP145299   3.609   4.216   0.205
 9060WAT    LP245300   3.676   4.237   0.115
 9061WAT     OW45301   1.503   1.866   5.801
 9061WAT    HW145302   1.495   1.930   5.872
 9061WAT    HW245303   1.593   1.876   5.770
 9061WAT    LP145304   1.492   1.801   5.825
 9061WAT    LP245305   1.458   1.880   5.750
 9062WAT     OW45306   3.350   0.693   5.799
 9062WAT    HW145307   3.323   0.743   5.876
 9062WAT    HW245308   3.445   0.693   5.803
 9062WAT    LP145309   3.325   0.628   5.802
 9062WAT    LP245310   3.328   0.724   5.740
 9063WAT     OW45311   5.273   2.828   3.164
 9063WAT    HW145312   5.301   2.770   3.235
 9063WAT    HW245313   5.179   2.809   3.154
 9063WAT    LP145314   5.282   2.895   3.182
 9063WAT    LP245315   5.308   2.814   3.105
 9064WAT     OW45316   0.694   6.475   5.328
 9064WAT    HW145317   0.626   6.534   5.295
 9064WAT    HW245318   0.657   6.387   5.313
 9064WAT    LP145319   0.753   6.483   5.293
 9064WAT    LP245320   0.705   6.486   5.396
 9065WAT     OW45321   5.037   5.212   4.575
 9065WAT    HW145322   5.114   5.161   4.600
 9065WAT    HW245323   4.989   5.156   4.514
 9065WAT    LP145324   4.997   5.227   4.631
 9065WAT    LP245325   5.056   5.272   4.544
 9066WAT     OW45326   3.323   2.578   5.190
 9066WAT    HW145327   3.293   2.581   5.281
 9066WAT    HW245328   3.300   2.664   5.154
 9066WAT    LP145329   3.393   2.568   5.187
 9066WAT    LP245330   3.291   2.527   5.155
 9067WAT     OW45331   0.876   5.167   5.561
 9067WAT    HW145332   0.907   5.102   5.623
 9067WAT    HW245333   0.868   5.248   5.612
 9067WAT    LP145334   0.922   5.176   5.509
 9067WAT    LP245335   0.814   5.149   5.534
 9068WAT     OW45336   0.369   0.686   3.427
 9068WAT    HW145337   0.313   0.679   3.504
 9068WAT    HW245338   0.406   0.598   3.416
 9068WAT    LP145339   0.332   0.704   3.370
 9068WAT    LP245340   0.420   0.733   3.437
 9069WAT     OW45341   3.655   2.205   6.489
 9069WAT    HW145342   3.649   2.200   6.584
 9069WAT    HW245343   3.573   2.245   6.461
 9069WAT    LP145344   3.709   2.244   6.469
 9069WAT    LP245345   3.661   2.141   6.461
 9070WAT     OW45346   2.619   1.244   0.192
 9070WAT    HW145347   2.598   1.318   0.136
 9070WAT    HW245348   2.703   1.268   0.232
 9070WAT    LP145349   2.570   1.236   0.241
 9070WAT    LP245350   2.625   1.186   0.155
 9071WAT     OW45351   2.244   0.322   4.729
 9071WAT    HW145352   2.176   0.389   4.732
 9071WAT    HW245353   2.234   0.281   4.644
 9071WAT    LP145354   2.307   0.352   4.735
 9071WAT    LP245355   2.235   0.276   4.781
 9072WAT     OW45356   6.374   4.222   5.759
 9072WAT    HW145357   6.380   4.180   5.673
 9072WAT    HW245358   6.314   4.295   5.747
 9072WAT    LP145359   6.349   4.177   5.807
 9072WAT    LP245360   6.437   4.245   5.780
 9073WAT     OW45361   4.585   4.693   5.165
 9073WAT    HW145362   4.643   4.764   5.192
 9073WAT    HW245363   4.498   4.720   5.195
 9073WAT    LP145364   4.586   4.686   5.096
 9073WAT    LP245365   4.604   4.633   5.195
 9074WAT     OW45366   4.439   3.213   5.273
 9074WAT    HW145367   4.479   3.219   5.360
 9074WAT    HW245368   4.443   3.303   5.239
 9074WAT    LP145369   4.476   3.170   5.232
 9074WAT    LP245370   4.373   3.191   5.277
 9075WAT     OW45371   6.182   2.399   1.357
 9075WAT    HW145372   6.095   2.397   1.395
 9075WAT    HW245373   6.170   2.364   1.268
 9075WAT    LP145374   6.207   2.465   1.354
 9075WAT    LP245375   6.226   2.359   1.393
 9076WAT     OW45376   0.603   4.581   5.227
 9076WAT    HW145377   0.636   4.666   5.258
 9076WAT    HW245378   0.672   4.519   5.252
 9076WAT    LP145379   0.543   4.565   5.258
 9076WAT    LP245380   0.594   4.582   5.158
 9077WAT     OW45381   6.735   3.844   5.747
 9077WAT    HW145382   6.717   3.795   5.828
 9077WAT    HW245383   6.762   3.777   5.685
 9077WAT    LP145384   6.677   3.876   5.725
 9077WAT    LP245385   6.786   3.891   5.758
 9078WAT     OW45386   4.375   4.644   3.060
 9078WAT    HW145387   4.407   4.562   3.024
 9078WAT    HW245388   4.358   4.699   2.984
 9078WAT    LP145389   4.316   4.634   3.097
 9078WAT    LP245390   4.423   4.674   3.101
 9079WAT     OW45391   5.956   2.969   4.514
 9079WAT    HW145392   5.903   3.035   4.559
 9079WAT    HW245393   5.940   2.986   4.421
 9079WAT    LP145394   6.023   2.978   4.530
 9079WAT    LP245395   5.935   2.905   4.532
 9080WAT     OW45396   2.045   0.005   3.837
 9080WAT    HW145397   2.081   0.058   3.766
 9080WAT    HW245398   2.056   0.059   3.915
 9080WAT    LP145399   1.977  -0.008   3.825
 9080WAT    LP245400   2.080  -0.055   3.843
 9081WAT     OW45401   5.556   6.042   2.633
 9081WAT    HW145402   5.581   6.045   2.726
 9081WAT    HW245403   5.528   6.131   2.613
 9081WAT    LP145404   5.611   6.024   2.594
 9081WAT    LP245405   5.504   5.996   2.623
 9082WAT     OW45406   3.679   5.541   5.626
 9082WAT    HW145407   3.685   5.608   5.558
 9082WAT    HW245408   3.692   5.589   5.708
 9082WAT    LP145409   3.616   5.511   5.626
 9082WAT    LP245410   3.728   5.493   5.618
 9083WAT     OW45411   2.485   2.636   0.704
 9083WAT    HW145412   2.569   2.664   0.667
 9083WAT    HW245413   2.444   2.584   0.635
 9083WAT    LP145414   2.494   2.598   0.762
 9083WAT    LP245415   2.445   2.692   0.719
 9084WAT     OW45416   2.044   6.649   4.535
 9084WAT    HW145417   2.006   6.669   4.621
 9084WAT    HW245418   2.064   6.556   4.540
 9084WAT    LP145419   1.999   6.662   4.484
 9084WAT    LP245420   2.102   6.686   4.525
 9085WAT     OW45421   2.819   2.471   6.505
 9085WAT    HW145422   2.860   2.556   6.492
 9085WAT    HW245423   2.731   2.480   6.468
 9085WAT    LP145424   2.855   2.421   6.471
 9085WAT    LP245425   2.816   2.455   6.573
 9086WAT     OW45426   6.319   4.756   3.681
 9086WAT    HW145427   6.301   4.850   3.685
 9086WAT    HW245428   6.367   4.737   3.761
 9086WAT    LP145429   6.260   4.720   3.678
 9086WAT    LP245430   6.358   4.741   3.624
 9087WAT     OW45431   3.206   0.299   1.282
 9087WAT    HW145432   3.193   0.364   1.213
 9087WAT    HW245433   3.161   0.336   1.359
 9087WAT    LP145434   3.177   0.238   1.265
 9087WAT    LP245435   3.274   0.290   1.295
 9088WAT     OW45436   1.835   0.588   5.955
 9088WAT    HW145437   1.841   0.495   5.934
 9088WAT    HW245438   1.850   0.633   5.872
 9088WAT    LP145439   1.772   0.604   5.981
 9088WAT    LP245440   1.885   0.606   6.002
 9089WAT     OW45441   6.652   5.643   4.156
 9089WAT    HW145442   6.581   5.579   4.150
 9089WAT    HW245443   6.622   5.707   4.221
 9089WAT    LP145444   6.712   5.612   4.177
 9089WAT    LP245445   6.662   5.674   4.094
 9090WAT     OW45446   5.263   5.686   0.253
 9090WAT    HW145447   5.228   5.731   0.176
 9090WAT    HW245448   5.349   5.654   0.225
 9090WAT    LP145449   5.270   5.731   0.307
 9090WAT    LP245450   5.222   5.633   0.272
 9091WAT     OW45451   4.523   6.655   0.096
 9091WAT    HW145452   4.546   6.739   0.057
 9091WAT    HW245453   4.474   6.677   0.175
 9091WAT    LP145454   4.484   6.617   0.052
 9091WAT    LP245455   4.581   6.619   0.113
 9092WAT     OW45456   4.053   4.486   1.222
 9092WAT    HW145457   4.049   4.542   1.144
 9092WAT    HW245458   4.140   4.446   1.217
 9092WAT    LP145459   4.046   4.524   1.280
 9092WAT    LP245460   4.003   4.437   1.220
 9093WAT     OW45461   3.139   0.444   4.691
 9093WAT    HW145462   3.158   0.525   4.643
 9093WAT    HW245463   3.193   0.451   4.770
 9093WAT    LP145464   3.071   0.441   4.708
 9093WAT    LP245465   3.156   0.388   4.654
 9094WAT     OW45466   3.772   1.308   3.030
 9094WAT    HW145467   3.763   1.234   2.969
 9094WAT    HW245468   3.853   1.289   3.078
 9094WAT    LP145469   3.778   1.368   2.994
 9094WAT    LP245470   3.718   1.311   3.073
 9095WAT     OW45471   2.073   2.797   6.298
 9095WAT    HW145472   1.982   2.818   6.280
 9095WAT    HW245473   2.074   2.702   6.312
 9095WAT    LP145474   2.114   2.815   6.243
 9095WAT    LP245475   2.096   2.831   6.355
 9096WAT     OW45476   3.113   6.095   4.744
 9096WAT    HW145477   3.177   6.139   4.688
 9096WAT    HW245478   3.087   6.161   4.808
 9096WAT    LP145479   3.058   6.074   4.706
 9096WAT    LP245480   3.142   6.040   4.776
 9097WAT     OW45481   0.801   2.841   6.363
 9097WAT    HW145482   0.871   2.824   6.426
 9097WAT    HW245483   0.779   2.933   6.377
 9097WAT    LP145484   0.824   2.830   6.298
 9097WAT    LP245485   0.746   2.800   6.376
 9098WAT     OW45486   6.600   6.407   1.415
 9098WAT    HW145487   6.648   6.338   1.369
 9098WAT    HW245488   6.579   6.369   1.501
 9098WAT    LP145489   6.639   6.465   1.422
 9098WAT    LP245490   6.541   6.424   1.381
 9099WAT     OW45491   5.869   5.267   5.475
 9099WAT    HW145492   5.839   5.246   5.563
 9099WAT    HW245493   5.845   5.190   5.423
 9099WAT    LP145494   5.837   5.324   5.451
 9099WAT    LP245495   5.938   5.277   5.474
 9100WAT     OW45496   2.759   5.177   2.168
 9100WAT    HW145497   2.806   5.139   2.242
 9100WAT    HW245498   2.826   5.223   2.118
 9100WAT    LP145499   2.730   5.126   2.129
 9100WAT    LP245500   2.709   5.221   2.190
 9101WAT     OW45501   4.263   5.477   3.813
 9101WAT    HW145502   4.176   5.506   3.844
 9101WAT    HW245503   4.247   5.444   3.725
 9101WAT    LP145504   4.307   5.531   3.812
 9101WAT    LP245505   4.288   5.427   3.855
 9102WAT     OW45506   0.865   0.518   6.027
 9102WAT    HW145507   0.910   0.540   5.946
 9102WAT    HW245508   0.871   0.422   6.032
 9102WAT    LP145509   0.898   0.547   6.082
 9102WAT    LP245510   0.799   0.539   6.026
 9103WAT     OW45511   6.430   4.112   4.714
 9103WAT    HW145512   6.500   4.047   4.708
 9103WAT    HW245513   6.360   4.078   4.659
 9103WAT    LP145514   6.408   4.118   4.781
 9103WAT    LP245515   6.452   4.174   4.691
 9104WAT     OW45516   4.493   5.574   5.041
 9104WAT    HW145517   4.450   5.510   5.097
 9104WAT    HW245518   4.557   5.523   4.991
 9104WAT    LP145519   4.447   5.605   4.998
 9104WAT    LP245520   4.525   5.623   5.079
 9105WAT     OW45521   6.123   0.745   0.045
 9105WAT    HW145522   6.072   0.825   0.032
 9105WAT    HW245523   6.214   0.774   0.046
 9105WAT    LP145524   6.107   0.715   0.106
 9105WAT    LP245525   6.112   0.700  -0.007
 9106WAT     OW45526   3.014   1.080   6.019
 9106WAT    HW145527   3.011   0.984   6.016
 9106WAT    HW245528   2.926   1.105   6.048
 9106WAT    LP145529   3.062   1.102   6.064
 9106WAT    LP245530   3.027   1.106   5.955
 9107WAT     OW45531   1.133   3.238   6.173
 9107WAT    HW145532   1.100   3.227   6.084
 9107WAT    HW245533   1.204   3.174   6.181
 9107WAT    LP145534   1.157   3.303   6.183
 9107WAT    LP245535   1.083   3.224   6.220
 9108WAT     OW45536   3.478   0.603   6.437
 9108WAT    HW145537   3.449   0.517   6.468
 9108WAT    HW245538   3.503   0.650   6.517
 9108WAT    LP145539   3.533   0.597   6.395
 9108WAT    LP245540   3.426   0.636   6.404
 9109WAT     OW45541   4.909   0.832   3.642
 9109WAT    HW145542   4.982   0.799   3.695
 9109WAT    HW245543   4.946   0.907   3.596
 9109WAT    LP145544   4.887   0.783   3.597
 9109WAT    LP245545   4.856   0.852   3.683
 9110WAT     OW45546   0.440   0.500   4.913
 9110WAT    HW145547   0.531   0.473   4.901
 9110WAT    HW245548   0.445   0.584   4.959
 9110WAT    LP145549   0.408   0.508   4.851
 9110WAT    LP245550   0.405   0.453   4.951
 9111WAT     OW45551   3.686   5.171   2.303
 9111WAT    HW145552   3.682   5.245   2.242
 9111WAT    HW245553   3.681   5.094   2.247
 9111WAT    LP145554   3.746   5.172   2.339
 9111WAT    LP245555   3.632   5.173   2.348
 9112WAT     OW45556   6.151   0.443   6.021
 9112WAT    HW145557   6.201   0.523   6.036
 9112WAT    HW245558   6.133   0.443   5.928
 9112WAT    LP145559   6.189   0.387   6.039
 9112WAT    LP245560   6.092   0.443   6.058
 9113WAT     OW45561   3.280   2.071   5.707
 9113WAT    HW145562   3.329   2.094   5.786
 9113WAT    HW245563   3.346   2.066   5.638
 9113WAT    LP145564   3.248   2.009   5.715
 9113WAT    LP245565   3.232   2.119   5.692
 9114WAT     OW45566   4.218   4.815   2.016
 9114WAT    HW145567   4.195   4.894   1.967
 9114WAT    HW245568   4.272   4.764   1.956
 9114WAT    LP145569   4.254   4.832   2.074
 9114WAT    LP245570   4.160   4.780   2.034
 9115WAT     OW45571   2.396   4.425   0.448
 9115WAT    HW145572   2.361   4.368   0.516
 9115WAT    HW245573   2.392   4.372   0.368
 9115WAT    LP145574   2.357   4.483   0.441
 9115WAT    LP245575   2.462   4.444   0.462
 9116WAT     OW45576   3.371   5.094   6.647
 9116WAT    HW145577   3.332   5.020   6.600
 9116WAT    HW245578   3.297   5.151   6.667
 9116WAT    LP145579   3.403   5.072   6.705
 9116WAT    LP245580   3.418   5.127   6.606
 9117WAT     OW45581   6.026   5.695   6.236
 9117WAT    HW145582   5.942   5.700   6.191
 9117WAT    HW245583   6.021   5.762   6.304
 9117WAT    LP145584   6.035   5.631   6.265
 9117WAT    LP245585   6.079   5.707   6.192
 9118WAT     OW45586   6.586   4.753   2.090
 9118WAT    HW145587   6.654   4.697   2.126
 9118WAT    HW245588   6.624   4.788   2.009
 9118WAT    LP145589   6.528   4.716   2.076
 9118WAT    LP245590   6.570   4.805   2.134
 9119WAT     OW45591   0.951   3.348   3.771
 9119WAT    HW145592   1.021   3.411   3.756
 9119WAT    HW245593   0.879   3.379   3.715
 9119WAT    LP145594   0.970   3.284   3.752
 9119WAT    LP245595   0.931   3.347   3.838
 9120WAT     OW45596   4.873   2.848   5.623
 9120WAT    HW145597   4.831   2.799   5.694
 9120WAT    HW245598   4.840   2.808   5.543
 9120WAT    LP145599   4.854   2.916   5.625
 9120WAT    LP245600   4.942   2.843   5.626
 9121WAT     OW45601   5.578   0.177   3.642
 9121WAT    HW145602   5.605   0.101   3.694
 9121WAT    HW245603   5.524   0.229   3.701
 9121WAT    LP145604   5.633   0.213   3.620
 9121WAT    LP245605   5.540   0.156   3.586
 9122WAT     OW45606   3.556   2.065   4.077
 9122WAT    HW145607   3.568   2.014   3.997
 9122WAT    HW245608   3.535   2.000   4.144
 9122WAT    LP145609   3.615   2.100   4.093
 9122WAT    LP245610   3.503   2.111   4.069
 9123WAT     OW45611   4.916   1.396   4.650
 9123WAT    HW145612   4.958   1.317   4.685
 9123WAT    HW245613   4.984   1.436   4.596
 9123WAT    LP145614   4.860   1.380   4.612
 9123WAT    LP245615   4.898   1.439   4.702
 9124WAT     OW45616   1.710   4.969   4.930
 9124WAT    HW145617   1.801   4.982   4.903
 9124WAT    HW245618   1.684   5.054   4.966
 9124WAT    LP145619   1.670   4.952   4.876
 9124WAT    LP245620   1.705   4.920   4.979
 9125WAT     OW45621   5.890   2.739   0.544
 9125WAT    HW145622   5.845   2.788   0.476
 9125WAT    HW245623   5.825   2.679   0.579
 9125WAT    LP145624   5.945   2.704   0.517
 9125WAT    LP245625   5.913   2.782   0.595
 9126WAT     OW45626   4.359   1.138   6.402
 9126WAT    HW145627   4.300   1.196   6.450
 9126WAT    HW245628   4.349   1.163   6.311
 9126WAT    LP145629   4.425   1.148   6.423
 9126WAT    LP245630   4.342   1.071   6.412
 9127WAT     OW45631   0.695   5.463   2.006
 9127WAT    HW145632   0.746   5.540   1.982
 9127WAT    HW245633   0.661   5.482   2.093
 9127WAT    LP145634   0.643   5.453   1.960
 9127WAT    LP245635   0.736   5.406   2.007
 9128WAT     OW45636   6.577   5.186   0.726
 9128WAT    HW145637   6.661   5.194   0.682
 9128WAT    HW245638   6.515   5.168   0.655
 9128WAT    LP145639   6.577   5.134   0.773
 9128WAT    LP245640   6.560   5.246   0.758
 9129WAT     OW45641   0.567   1.194   1.679
 9129WAT    HW145642   0.651   1.195   1.633
 9129WAT    HW245643   0.561   1.281   1.718
 9129WAT    LP145644   0.514   1.183   1.635
 9129WAT    LP245645   0.566   1.145   1.729
 9130WAT     OW45646   0.618   0.021   0.609
 9130WAT    HW145647   0.613  -0.069   0.641
 9130WAT    HW245648   0.608   0.075   0.687
 9130WAT    LP145649   0.679   0.033   0.577
 9130WAT    LP245650   0.566   0.034   0.564
 9131WAT     OW45651   0.306   2.163   0.286
 9131WAT    HW145652   0.303   2.240   0.343
 9131WAT    HW245653   0.225   2.116   0.304
 9131WAT    LP145654   0.309   2.183   0.219
 9131WAT    LP245655   0.362   2.123   0.301
 9132WAT     OW45656   4.346   4.374   2.480
 9132WAT    HW145657   4.340   4.436   2.552
 9132WAT    HW245658   4.439   4.351   2.476
 9132WAT    LP145659   4.307   4.317   2.493
 9132WAT    LP245660   4.325   4.403   2.420
 9133WAT     OW45661   3.348   4.038   1.794
 9133WAT    HW145662   3.341   4.118   1.847
 9133WAT    HW245663   3.404   4.063   1.720
 9133WAT    LP145664   3.377   3.987   1.831
 9133WAT    LP245665   3.285   4.018   1.772
 9134WAT     OW45666   2.036   0.503   5.167
 9134WAT    HW145667   2.100   0.574   5.177
 9134WAT    HW245668   1.994   0.521   5.083
 9134WAT    LP145669   2.068   0.441   5.166
 9134WAT    LP245670   1.989   0.504   5.219
 9135WAT     OW45671   1.899   5.866   1.562
 9135WAT    HW145672   1.995   5.865   1.560
 9135WAT    HW245673   1.875   5.779   1.593
 9135WAT    LP145674   1.876   5.915   1.606
 9135WAT    LP245675   1.873   5.878   1.498
 9136WAT     OW45676   1.635   1.184   1.172
 9136WAT    HW145677   1.560   1.136   1.207
 9136WAT    HW245678   1.711   1.145   1.216
 9136WAT    LP145679   1.640   1.176   1.103
 9136WAT    LP245680   1.630   1.252   1.188
 9137WAT     OW45681   6.636   4.126   1.274
 9137WAT    HW145682   6.602   4.215   1.264
 9137WAT    HW245683   6.708   4.121   1.211
 9137WAT    LP145684   6.660   4.116   1.339
 9137WAT    LP245685   6.587   4.079   1.259
 9138WAT     OW45686   4.861   1.809   6.388
 9138WAT    HW145687   4.798   1.866   6.432
 9138WAT    HW245688   4.893   1.861   6.314
 9138WAT    LP145689   4.914   1.792   6.431
 9138WAT    LP245690   4.830   1.750   6.365
 9139WAT     OW45691   0.035   3.602   5.580
 9139WAT    HW145692   0.016   3.578   5.671
 9139WAT    HW245693   0.027   3.520   5.531
 9139WAT    LP145694  -0.011   3.649   5.557
 9139WAT    LP245695   0.099   3.628   5.574
 9140WAT     OW45696   6.464   4.232   3.475
 9140WAT    HW145697   6.517   4.155   3.498
 9140WAT    HW245698   6.374   4.201   3.479
 9140WAT    LP145699   6.475   4.284   3.522
 9140WAT    LP245700   6.480   4.255   3.411
 9141WAT     OW45701   0.204   4.573   3.607
 9141WAT    HW145702   0.282   4.541   3.562
 9141WAT    HW245703   0.207   4.668   3.596
 9141WAT    LP145704   0.146   4.547   3.577
 9141WAT    LP245705   0.205   4.556   3.674
 9142WAT     OW45706   0.012   2.912   5.721
 9142WAT    HW145707   0.029   2.890   5.630
 9142WAT    HW245708   0.083   2.870   5.770
 9142WAT    LP145709   0.013   2.981   5.731
 9142WAT    LP245710  -0.050   2.886   5.741
 9143WAT     OW45711   1.950   0.987   0.125
 9143WAT    HW145712   2.028   0.931   0.129
 9143WAT    HW245713   1.983   1.071   0.093
 9143WAT    LP145714   1.903   0.961   0.080
 9143WAT    LP245715   1.921   0.994   0.188
 9144WAT     OW45716   2.479   0.840   1.187
 9144WAT    HW145717   2.500   0.903   1.256
 9144WAT    HW245718   2.503   0.885   1.106
 9144WAT    LP145719   2.517   0.782   1.195
 9144WAT    LP245720   2.411   0.824   1.187
 9145WAT     OW45721   0.188   0.805   3.240
 9145WAT    HW145722   0.252   0.770   3.300
 9145WAT    HW245723   0.153   0.729   3.193
 9145WAT    LP145724   0.137   0.838   3.274
 9145WAT    LP245725   0.218   0.850   3.195
 9146WAT     OW45726   5.189   1.938   4.538
 9146WAT    HW145727   5.150   1.978   4.616
 9146WAT    HW245728   5.256   1.879   4.573
 9146WAT    LP145729   5.141   1.902   4.502
 9146WAT    LP245730   5.218   1.987   4.497
 9147WAT     OW45731   5.936   4.196   3.491
 9147WAT    HW145732   5.967   4.159   3.408
 9147WAT    HW245733   5.843   4.175   3.492
 9147WAT    LP145734   5.969   4.166   3.545
 9147WAT    LP245735   5.946   4.265   3.493
 9148WAT     OW45736   4.052   0.868   6.217
 9148WAT    HW145737   3.977   0.867   6.276
 9148WAT    HW245738   4.115   0.809   6.257
 9148WAT    LP145739   4.034   0.846   6.153
 9148WAT    LP245740   4.079   0.933   6.212
 9149WAT     OW45741   5.607   5.242   4.503
 9149WAT    HW145742   5.595   5.171   4.566
 9149WAT    HW245743   5.655   5.309   4.553
 9149WAT    LP145744   5.645   5.221   4.449
 9149WAT    LP245745   5.546   5.267   4.481
 9150WAT     OW45746   2.214   3.831   6.584
 9150WAT    HW145747   2.212   3.777   6.663
 9150WAT    HW245748   2.126   3.869   6.579
 9150WAT    LP145749   2.262   3.882   6.589
 9150WAT    LP245750   2.227   3.792   6.527
 9151WAT     OW45751   4.343   6.279   3.246
 9151WAT    HW145752   4.371   6.188   3.253
 9151WAT    HW245753   4.362   6.303   3.155
 9151WAT    LP145754   4.274   6.285   3.259
 9151WAT    LP245755   4.379   6.320   3.290
 9152WAT     OW45756   0.567   2.203   0.001
 9152WAT    HW145757   0.489   2.252  -0.024
 9152WAT    HW245758   0.640   2.257  -0.027
 9152WAT    LP145759   0.568   2.193   0.071
 9152WAT    LP245760   0.568   2.140  -0.030
 9153WAT     OW45761   2.919   2.220   1.764
 9153WAT    HW145762   2.876   2.134   1.763
 9153WAT    HW245763   2.943   2.235   1.673
 9153WAT    LP145764   2.874   2.269   1.786
 9153WAT    LP245765   2.975   2.219   1.805
 9154WAT     OW45766   5.925   1.742   0.930
 9154WAT    HW145767   5.941   1.822   0.879
 9154WAT    HW245768   5.920   1.772   1.021
 9154WAT    LP145769   5.865   1.712   0.910
 9154WAT    LP245770   5.978   1.697   0.921
 9155WAT     OW45771   2.566   4.076   4.404
 9155WAT    HW145772   2.660   4.060   4.395
 9155WAT    HW245773   2.542   4.124   4.325
 9155WAT    LP145774   2.531   4.015   4.408
 9155WAT    LP245775   2.553   4.114   4.462
 9156WAT     OW45776   1.164   6.564   5.249
 9156WAT    HW145777   1.201   6.478   5.271
 9156WAT    HW245778   1.212   6.626   5.304
 9156WAT    LP145779   1.174   6.578   5.181
 9156WAT    LP245780   1.096   6.566   5.264
 9157WAT     OW45781   5.699   2.366   5.545
 9157WAT    HW145782   5.723   2.276   5.567
 9157WAT    HW245783   5.703   2.413   5.628
 9157WAT    LP145784   5.745   2.394   5.499
 9157WAT    LP245785   5.634   2.369   5.518
 9158WAT     OW45786   3.607   0.102   5.590
 9158WAT    HW145787   3.667   0.079   5.660
 9158WAT    HW245788   3.663   0.132   5.518
 9158WAT    LP145789   3.569   0.047   5.571
 9158WAT    LP245790   3.564   0.154   5.610
 9159WAT     OW45791   3.542   5.206   1.827
 9159WAT    HW145792   3.550   5.290   1.780
 9159WAT    HW245793   3.522   5.143   1.758
 9159WAT    LP145794   3.601   5.190   1.859
 9159WAT    LP245795   3.490   5.209   1.873
 9160WAT     OW45796   2.668   4.320   5.080
 9160WAT    HW145797   2.700   4.314   4.990
 9160WAT    HW245798   2.576   4.293   5.076
 9160WAT    LP145799   2.704   4.278   5.123
 9160WAT    LP245800   2.673   4.386   5.104
 9161WAT     OW45801   2.357   5.283   5.053
 9161WAT    HW145802   2.388   5.356   5.106
 9161WAT    HW245803   2.355   5.316   4.964
 9161WAT    LP145804   2.401   5.228   5.059
 9161WAT    LP245805   2.293   5.263   5.074
 9162WAT     OW45806   3.004   0.804   0.650
 9162WAT    HW145807   3.045   0.718   0.660
 9162WAT    HW245808   2.919   0.796   0.693
 9162WAT    LP145809   3.043   0.854   0.681
 9162WAT    LP245810   2.997   0.820   0.582
 9163WAT     OW45811   4.703   2.040   4.900
 9163WAT    HW145812   4.667   1.996   4.977
 9163WAT    HW245813   4.633   2.100   4.872
 9163WAT    LP145814   4.760   2.076   4.917
 9163WAT    LP245815   4.718   1.994   4.850
 9164WAT     OW45816   4.207   5.963   0.093
 9164WAT    HW145817   4.291   5.990   0.056
 9164WAT    HW245818   4.172   6.043   0.132
 9164WAT    LP145819   4.165   5.939   0.043
 9164WAT    LP245820   4.217   5.913   0.142
 9165WAT     OW45821   5.586   4.062   2.437
 9165WAT    HW145822   5.542   3.981   2.463
 9165WAT    HW245823   5.679   4.044   2.450
 9165WAT    LP145824   5.572   4.077   2.370
 9165WAT    LP245825   5.565   4.116   2.477
 9166WAT     OW45826   3.316   3.439   1.808
 9166WAT    HW145827   3.252   3.419   1.739
 9166WAT    HW245828   3.265   3.437   1.889
 9166WAT    LP145829   3.366   3.390   1.809
 9166WAT    LP245830   3.344   3.502   1.797
 9167WAT     OW45831   0.395   6.640   3.367
 9167WAT    HW145832   0.474   6.604   3.408
 9167WAT    HW245833   0.323   6.609   3.421
 9167WAT    LP145834   0.397   6.709   3.366
 9167WAT    LP245835   0.388   6.616   3.301
 9168WAT     OW45836   4.845   2.423   0.403
 9168WAT    HW145837   4.851   2.410   0.498
 9168WAT    HW245838   4.877   2.341   0.366
 9168WAT    LP145839   4.778   2.435   0.384
 9168WAT    LP245840   4.885   2.477   0.383
 9169WAT     OW45841   2.593   2.711   3.364
 9169WAT    HW145842   2.518   2.759   3.399
 9169WAT    HW245843   2.569   2.619   3.376
 9169WAT    LP145844   2.602   2.726   3.296
 9169WAT    LP245845   2.651   2.726   3.400
 9170WAT     OW45846   3.792   1.105   5.536
 9170WAT    HW145847   3.706   1.094   5.578
 9170WAT    HW245848   3.852   1.056   5.591
 9170WAT    LP145849   3.791   1.079   5.471
 9170WAT    LP245850   3.810   1.173   5.533
 9171WAT     OW45851   3.813   4.699   5.713
 9171WAT    HW145852   3.843   4.681   5.803
 9171WAT    HW245853   3.892   4.726   5.667
 9171WAT    LP145854   3.786   4.641   5.684
 9171WAT    LP245855   3.765   4.750   5.713
 9172WAT     OW45856   6.189   6.681   3.736
 9172WAT    HW145857   6.099   6.698   3.766
 9172WAT    HW245858   6.233   6.765   3.746
 9172WAT    LP145859   6.220   6.633   3.776
 9172WAT    LP245860   6.189   6.660   3.669
 9173WAT     OW45861   1.527   2.902   2.192
 9173WAT    HW145862   1.598   2.918   2.253
 9173WAT    HW245863   1.486   2.821   2.223
 9173WAT    LP145864   1.481   2.955   2.192
 9173WAT    LP245865   1.552   2.893   2.127
 9174WAT     OW45866   5.777   3.734   1.853
 9174WAT    HW145867   5.704   3.693   1.899
 9174WAT    HW245868   5.742   3.817   1.821
 9174WAT    LP145869   5.831   3.745   1.896
 9174WAT    LP245870   5.799   3.694   1.799
 9175WAT     OW45871   5.856   5.276   4.845
 9175WAT    HW145872   5.846   5.184   4.821
 9175WAT    HW245873   5.810   5.284   4.929
 9175WAT    LP145874   5.924   5.292   4.853
 9175WAT    LP245875   5.827   5.318   4.797
 9176WAT     OW45876   0.130   4.201   0.874
 9176WAT    HW145877   0.099   4.155   0.952
 9176WAT    HW245878   0.225   4.207   0.886
 9176WAT    LP145879   0.114   4.166   0.816
 9176WAT    LP245880   0.102   4.265   0.871
 9177WAT     OW45881   4.528   5.862   1.180
 9177WAT    HW145882   4.561   5.887   1.266
 9177WAT    HW245883   4.487   5.777   1.193
 9177WAT    LP145884   4.481   5.909   1.157
 9177WAT    LP245885   4.581   5.858   1.134
 9178WAT     OW45886   6.452   5.456   4.132
 9178WAT    HW145887   6.394   5.425   4.202
 9178WAT    HW245888   6.395   5.461   4.055
 9178WAT    LP145889   6.478   5.519   4.147
 9178WAT    LP245890   6.504   5.411   4.121
 9179WAT     OW45891   3.999   2.741   4.367
 9179WAT    HW145892   3.977   2.800   4.438
 9179WAT    HW245893   3.996   2.654   4.406
 9179WAT    LP145894   3.953   2.746   4.315
 9179WAT    LP245895   4.064   2.755   4.343
 9180WAT     OW45896   2.043   3.290   4.063
 9180WAT    HW145897   2.133   3.322   4.068
 9180WAT    HW245898   1.995   3.343   4.126
 9180WAT    LP145899   2.018   3.298   3.999
 9180WAT    LP245900   2.040   3.222   4.081
 9181WAT     OW45901   0.928   5.489   1.718
 9181WAT    HW145902   0.947   5.544   1.643
 9181WAT    HW245903   0.835   5.469   1.711
 9181WAT    LP145904   0.966   5.430   1.716
 9181WAT    LP245905   0.941   5.523   1.778
 9182WAT     OW45906   1.468   5.670   5.779
 9182WAT    HW145907   1.479   5.748   5.834
 9182WAT    HW245908   1.514   5.692   5.698
 9182WAT    LP145909   1.497   5.614   5.810
 9182WAT    LP245910   1.401   5.658   5.767
 9183WAT     OW45911   1.827   2.508   5.631
 9183WAT    HW145912   1.819   2.424   5.677
 9183WAT    HW245913   1.892   2.492   5.563
 9183WAT    LP145914   1.765   2.527   5.603
 9183WAT    LP245915   1.849   2.558   5.674
 9184WAT     OW45916   5.010   0.150   0.034
 9184WAT    HW145917   4.992   0.079   0.096
 9184WAT    HW245918   5.093   0.124  -0.007
 9184WAT    LP145919   4.959   0.154  -0.014
 9184WAT    LP245920   5.016   0.211   0.066
 9185WAT     OW45921   2.132   0.895   2.505
 9185WAT    HW145922   2.217   0.926   2.534
 9185WAT    HW245923   2.148   0.853   2.421
 9185WAT    LP145924   2.105   0.849   2.551
 9185WAT    LP245925   2.087   0.948   2.498
 9186WAT     OW45926   6.776   3.312   4.734
 9186WAT    HW145927   6.855   3.356   4.705
 9186WAT    HW245928   6.708   3.342   4.673
 9186WAT    LP145929   6.783   3.242   4.730
 9186WAT    LP245930   6.760   3.330   4.799
 9187WAT     OW45931   5.015   1.582   0.879
 9187WAT    HW145932   5.034   1.524   0.805
 9187WAT    HW245933   5.041   1.669   0.848
 9187WAT    LP145934   4.947   1.581   0.895
 9187WAT    LP245935   5.053   1.564   0.935
 9188WAT     OW45936   2.781   1.052   1.497
 9188WAT    HW145937   2.852   1.114   1.483
 9188WAT    HW245938   2.754   1.066   1.588
 9188WAT    LP145939   2.728   1.064   1.454
 9188WAT    LP245940   2.804   0.986   1.488
 9189WAT     OW45941   0.075   1.314   2.119
 9189WAT    HW145942  -0.011   1.305   2.078
 9189WAT    HW245943   0.134   1.335   2.046
 9189WAT    LP145944   0.074   1.366   2.166
 9189WAT    LP245945   0.094   1.255   2.150
 9190WAT     OW45946   3.128   4.275   2.705
 9190WAT    HW145947   3.062   4.318   2.650
 9190WAT    HW245948   3.096   4.186   2.715
 9190WAT    LP145949   3.191   4.276   2.674
 9190WAT    LP245950   3.132   4.307   2.767
 9191WAT     OW45951   1.683   2.477   6.514
 9191WAT    HW145952   1.704   2.403   6.457
 9191WAT    HW245953   1.664   2.437   6.599
 9191WAT    LP145954   1.737   2.521   6.519
 9191WAT    LP245955   1.627   2.511   6.490
 9192WAT     OW45956   3.215   4.624   5.769
 9192WAT    HW145957   3.234   4.542   5.815
 9192WAT    HW245958   3.168   4.677   5.832
 9192WAT    LP145959   3.275   4.655   5.749
 9192WAT    LP245960   3.175   4.612   5.712
 9193WAT     OW45961   6.351   3.727   4.473
 9193WAT    HW145962   6.297   3.671   4.417
 9193WAT    HW245963   6.376   3.670   4.546
 9193WAT    LP145964   6.408   3.749   4.438
 9193WAT    LP245965   6.315   3.782   4.495
 9194WAT     OW45966   3.409   2.878   6.490
 9194WAT    HW145967   3.490   2.845   6.529
 9194WAT    HW245968   3.424   2.874   6.396
 9194WAT    LP145969   3.355   2.837   6.508
 9194WAT    LP245970   3.396   2.944   6.511
 9195WAT     OW45971   6.032   0.098   0.651
 9195WAT    HW145972   6.125   0.075   0.661
 9195WAT    HW245973   6.018   0.167   0.716
 9195WAT    LP145974   6.019   0.122   0.587
 9195WAT    LP245975   5.991   0.043   0.664
 9196WAT     OW45976   4.330   2.943   1.587
 9196WAT    HW145977   4.280   2.861   1.591
 9196WAT    HW245978   4.385   2.942   1.666
 9196WAT    LP145979   4.370   2.945   1.529
 9196WAT    LP245980   4.287   2.998   1.588
 9197WAT     OW45981   1.454   3.706   3.179
 9197WAT    HW145982   1.527   3.667   3.131
 9197WAT    HW245983   1.376   3.676   3.132
 9197WAT    LP145984   1.454   3.683   3.245
 9197WAT    LP245985   1.458   3.776   3.178
 9198WAT     OW45986   0.696   5.367   1.365
 9198WAT    HW145987   0.659   5.440   1.414
 9198WAT    HW245988   0.694   5.294   1.428
 9198WAT    LP145989   0.657   5.352   1.309
 9198WAT    LP245990   0.761   5.381   1.345
 9199WAT     OW45991   3.451   5.092   4.079
 9199WAT    HW145992   3.377   5.051   4.033
 9199WAT    HW245993   3.460   5.041   4.160
 9199WAT    LP145994   3.509   5.089   4.041
 9199WAT    LP245995   3.436   5.159   4.095
 9200WAT     OW45996   3.683   1.654   4.057
 9200WAT    HW145997   3.731   1.573   4.068
 9200WAT    HW245998   3.742   1.722   4.089
 9200WAT    LP145999   3.667   1.665   3.990
 9200WAT    LP246000   3.624   1.653   4.095
 9201WAT     OW46001   0.425   5.632   1.709
 9201WAT    HW146002   0.413   5.708   1.766
 9201WAT    HW246003   0.440   5.559   1.769
 9201WAT    LP146004   0.368   5.621   1.670
 9201WAT    LP246005   0.481   5.642   1.667
 9202WAT     OW46006   4.479   2.194   0.210
 9202WAT    HW146007   4.476   2.158   0.299
 9202WAT    HW246008   4.413   2.143   0.162
 9202WAT    LP146009   4.462   2.262   0.210
 9202WAT    LP246010   4.542   2.185   0.181
 9203WAT     OW46011   2.832   5.749   0.596
 9203WAT    HW146012   2.775   5.713   0.663
 9203WAT    HW246013   2.824   5.688   0.523
 9203WAT    LP146014   2.812   5.813   0.577
 9203WAT    LP246015   2.898   5.751   0.619
 9204WAT     OW46016   4.320   0.362   5.649
 9204WAT    HW146017   4.263   0.395   5.580
 9204WAT    HW246018   4.339   0.439   5.703
 9204WAT    LP146019   4.287   0.313   5.687
 9204WAT    LP246020   4.379   0.336   5.622
 9205WAT     OW46021   2.095   0.270   6.636
 9205WAT    HW146022   2.116   0.227   6.719
 9205WAT    HW246023   2.013   0.230   6.608
 9205WAT    LP146024   2.087   0.339   6.645
 9205WAT    LP246025   2.145   0.258   6.589
 9206WAT     OW46026   4.914   6.424   6.559
 9206WAT    HW146027   4.846   6.444   6.623
 9206WAT    HW246028   4.996   6.430   6.608
 9206WAT    LP146029   4.905   6.359   6.534
 9206WAT    LP246030   4.913   6.470   6.507
 9207WAT     OW46031   2.255   2.359   2.296
 9207WAT    HW146032   2.221   2.278   2.259
 9207WAT    HW246033   2.206   2.429   2.252
 9207WAT    LP146034   2.245   2.361   2.365
 9207WAT    LP246035   2.324   2.366   2.283
 9208WAT     OW46036   6.746   4.632   1.193
 9208WAT    HW146037   6.725   4.606   1.283
 9208WAT    HW246038   6.732   4.726   1.191
 9208WAT    LP146039   6.812   4.616   1.178
 9208WAT    LP246040   6.704   4.599   1.148
 9209WAT     OW46041   4.500   6.509   2.326
 9209WAT    HW146042   4.449   6.428   2.332
 9209WAT    HW246043   4.434   6.578   2.319
 9209WAT    LP146044   4.538   6.517   2.384
 9209WAT    LP246045   4.542   6.508   2.270
 9210WAT     OW46046   0.259   0.208   4.087
 9210WAT    HW146047   0.245   0.295   4.050
 9210WAT    HW246048   0.172   0.177   4.110
 9210WAT    LP146049   0.289   0.166   4.040
 9210WAT    LP246050   0.300   0.212   4.144
 9211WAT     OW46051   3.883   4.817   0.988
 9211WAT    HW146052   3.875   4.911   0.969
 9211WAT    HW246053   3.831   4.774   0.921
 9211WAT    LP146054   3.950   4.797   0.985
 9211WAT    LP246055   3.858   4.803   1.052
 9212WAT     OW46056   2.809   1.847   3.880
 9212WAT    HW146057   2.881   1.837   3.817
 9212WAT    HW246058   2.754   1.771   3.866
 9212WAT    LP146059   2.834   1.849   3.945
 9212WAT    LP246060   2.774   1.906   3.867
 9213WAT     OW46061   5.410   3.803   0.120
 9213WAT    HW146062   5.407   3.828   0.027
 9213WAT    HW246063   5.456   3.875   0.162
 9213WAT    LP146064   5.345   3.796   0.146
 9213WAT    LP246065   5.445   3.743   0.128
 9214WAT     OW46066   6.080   6.653   6.110
 9214WAT    HW146067   6.063   6.647   6.204
 9214WAT    HW246068   6.135   6.730   6.101
 9214WAT    LP146069   6.113   6.596   6.087
 9214WAT    LP246070   6.020   6.661   6.075
 9215WAT     OW46071   1.962   0.769   5.382
 9215WAT    HW146072   1.977   0.784   5.288
 9215WAT    HW246073   1.879   0.813   5.400
 9215WAT    LP146074   1.958   0.701   5.396
 9215WAT    LP246075   2.014   0.798   5.419
 9216WAT     OW46076   1.938   2.932   5.818
 9216WAT    HW146077   1.883   2.943   5.896
 9216WAT    HW246078   1.945   2.837   5.807
 9216WAT    LP146079   1.907   2.961   5.762
 9216WAT    LP246080   2.000   2.961   5.828
 9217WAT     OW46081   2.995   0.855   4.515
 9217WAT    HW146082   3.022   0.931   4.463
 9217WAT    HW246083   2.937   0.806   4.457
 9217WAT    LP146084   3.050   0.817   4.533
 9217WAT    LP246085   2.960   0.876   4.572
 9218WAT     OW46086   4.086   2.659   6.016
 9218WAT    HW146087   4.169   2.697   6.045
 9218WAT    HW246088   4.113   2.587   5.958
 9218WAT    LP146089   4.049   2.635   6.070
 9218WAT    LP246090   4.048   2.706   5.980
 9219WAT     OW46091   4.580   4.770   2.386
 9219WAT    HW146092   4.493   4.759   2.349
 9219WAT    HW246093   4.573   4.850   2.439
 9219WAT    LP146094   4.597   4.715   2.426
 9219WAT    LP246095   4.628   4.779   2.336
 9220WAT     OW46096   5.769   3.387   5.717
 9220WAT    HW146097   5.738   3.376   5.627
 9220WAT    HW246098   5.787   3.481   5.724
 9220WAT    LP146099   5.719   3.368   5.763
 9220WAT    LP246100   5.827   3.350   5.728
 9221WAT     OW46101   3.108   0.037   3.357
 9221WAT    HW146102   3.109   0.091   3.436
 9221WAT    HW246103   3.199   0.011   3.344
 9221WAT    LP146104   3.068  -0.019   3.367
 9221WAT    LP246105   3.085   0.073   3.302
 9222WAT     OW46106   3.958   0.434   2.563
 9222WAT    HW146107   4.014   0.504   2.530
 9222WAT    HW246108   4.014   0.381   2.618
 9222WAT    LP146109   3.904   0.460   2.599
 9222WAT    LP246110   3.933   0.396   2.509
 9223WAT     OW46111   0.621   4.220   1.319
 9223WAT    HW146112   0.688   4.227   1.387
 9223WAT    HW246113   0.553   4.283   1.346
 9223WAT    LP146114   0.647   4.238   1.257
 9223WAT    LP246115   0.595   4.155   1.317
 9224WAT     OW46116   4.443   2.495   6.018
 9224WAT    HW146117   4.428   2.587   6.040
 9224WAT    HW246118   4.433   2.448   6.100
 9224WAT    LP146119   4.396   2.473   5.971
 9224WAT    LP246120   4.508   2.486   5.992
 9225WAT     OW46121   1.025   2.309   1.862
 9225WAT    HW146122   0.954   2.274   1.809
 9225WAT    HW246123   1.099   2.250   1.845
 9225WAT    LP146124   1.041   2.374   1.843
 9225WAT    LP246125   1.009   2.308   1.930
 9226WAT     OW46126   3.468   1.582   0.794
 9226WAT    HW146127   3.378   1.608   0.813
 9226WAT    HW246128   3.505   1.657   0.748
 9226WAT    LP146129   3.503   1.569   0.853
 9226WAT    LP246130   3.469   1.525   0.754
 9227WAT     OW46131   1.278   1.036   5.803
 9227WAT    HW146132   1.374   1.041   5.808
 9227WAT    HW246133   1.248   1.056   5.892
 9227WAT    LP146134   1.253   1.083   5.757
 9227WAT    LP246135   1.258   0.972   5.784
 9228WAT     OW46136   1.249   5.151   3.810
 9228WAT    HW146137   1.220   5.076   3.757
 9228WAT    HW246138   1.251   5.117   3.900
 9228WAT    LP146139   1.312   5.172   3.790
 9228WAT    LP246140   1.203   5.203   3.804
 9229WAT     OW46141   0.913   1.356   0.918
 9229WAT    HW146142   0.829   1.317   0.941
 9229WAT    HW246143   0.900   1.393   0.831
 9229WAT    LP146144   0.930   1.407   0.964
 9229WAT    LP246145   0.964   1.308   0.918
 9230WAT     OW46146   5.578   3.114   6.084
 9230WAT    HW146147   5.527   3.143   6.160
 9230WAT    HW246148   5.602   3.195   6.039
 9230WAT    LP146149   5.635   3.079   6.104
 9230WAT    LP246150   5.539   3.074   6.042
 9231WAT     OW46151   4.338   6.166   1.757
 9231WAT    HW146152   4.277   6.240   1.770
 9231WAT    HW246153   4.418   6.207   1.725
 9231WAT    LP146154   4.349   6.132   1.817
 9231WAT    LP246155   4.312   6.122   1.709
 9232WAT     OW46156   3.972   1.253   0.789
 9232WAT    HW146157   3.992   1.195   0.716
 9232WAT    HW246158   3.956   1.194   0.863
 9232WAT    LP146159   4.026   1.296   0.802
 9232WAT    LP246160   3.915   1.292   0.776
 9233WAT     OW46161   3.002   4.227   6.560
 9233WAT    HW146162   3.002   4.294   6.629
 9233WAT    HW246163   2.909   4.216   6.538
 9233WAT    LP146164   3.038   4.250   6.504
 9233WAT    LP246165   3.030   4.167   6.583
 9234WAT     OW46166   5.666   5.766   5.391
 9234WAT    HW146167   5.671   5.795   5.482
 9234WAT    HW246168   5.719   5.686   5.389
 9234WAT    LP146169   5.600   5.752   5.373
 9234WAT    LP246170   5.693   5.814   5.348
 9235WAT     OW46171   2.022   1.500   0.623
 9235WAT    HW146172   1.941   1.453   0.642
 9235WAT    HW246173   2.032   1.561   0.697
 9235WAT    LP146174   2.076   1.456   0.620
 9235WAT    LP246175   2.017   1.535   0.563
 9236WAT     OW46176   2.039   1.195   2.826
 9236WAT    HW146177   2.114   1.152   2.868
 9236WAT    HW246178   1.963   1.162   2.873
 9236WAT    LP146179   2.044   1.265   2.832
 9236WAT    LP246180   2.036   1.178   2.758
 9237WAT     OW46181   2.108   5.292   1.257
 9237WAT    HW146182   2.155   5.371   1.284
 9237WAT    HW246183   2.027   5.326   1.218
 9237WAT    LP146184   2.145   5.257   1.209
 9237WAT    LP246185   2.094   5.251   1.311
 9238WAT     OW46186   4.919   3.135   0.936
 9238WAT    HW146187   4.941   3.099   1.022
 9238WAT    HW246188   4.830   3.169   0.946
 9238WAT    LP146189   4.964   3.186   0.919
 9238WAT    LP246190   4.922   3.085   0.887
 9239WAT     OW46191   1.875   3.560   6.433
 9239WAT    HW146192   1.845   3.563   6.524
 9239WAT    HW246193   1.863   3.649   6.401
 9239WAT    LP146194   1.942   3.541   6.430
 9239WAT    LP246195   1.836   3.515   6.396
 9240WAT     OW46196   1.570   3.534   0.856
 9240WAT    HW146197   1.655   3.523   0.814
 9240WAT    HW246198   1.518   3.459   0.827
 9240WAT    LP146199   1.577   3.534   0.926
 9240WAT    LP246200   1.541   3.594   0.836
 9241WAT     OW46201   5.780   5.497   3.471
 9241WAT    HW146202   5.869   5.489   3.506
 9241WAT    HW246203   5.791   5.494   3.376
 9241WAT    LP146204   5.740   5.444   3.492
 9241WAT    LP246205   5.751   5.558   3.490
 9242WAT     OW46206   3.623   2.014   2.307
 9242WAT    HW146207   3.646   2.026   2.214
 9242WAT    HW246208   3.629   2.101   2.344
 9242WAT    LP146209   3.558   1.988   2.313
 9242WAT    LP246210   3.668   1.970   2.338
 9243WAT     OW46211   0.511   6.520   1.934
 9243WAT    HW146212   0.571   6.478   1.873
 9243WAT    HW246213   0.531   6.614   1.926
 9243WAT    LP146214   0.445   6.508   1.916
 9243WAT    LP246215   0.522   6.498   1.999
 9244WAT     OW46216   2.992   5.528   4.852
 9244WAT    HW146217   2.912   5.574   4.879
 9244WAT    HW246218   2.985   5.443   4.895
 9244WAT    LP146219   2.994   5.521   4.783
 9244WAT    LP246220   3.048   5.563   4.874
 9245WAT     OW46221   1.206   2.714   6.173
 9245WAT    HW146222   1.114   2.737   6.160
 9245WAT    HW246223   1.218   2.633   6.123
 9245WAT    LP146224   1.248   2.765   6.149
 9245WAT    LP246225   1.219   2.703   6.241
 9246WAT     OW46226   0.104   2.721   1.570
 9246WAT    HW146227   0.182   2.776   1.563
 9246WAT    HW246228   0.040   2.777   1.614
 9246WAT    LP146229   0.081   2.702   1.506
 9246WAT    LP246230   0.117   2.664   1.608
 9247WAT     OW46231   5.647   3.248   1.084
 9247WAT    HW146232   5.710   3.314   1.114
 9247WAT    HW246233   5.686   3.164   1.108
 9247WAT    LP146234   5.585   3.257   1.116
 9247WAT    LP246235   5.638   3.253   1.015
 9248WAT     OW46236   6.451   0.283   0.287
 9248WAT    HW146237   6.502   0.208   0.317
 9248WAT    HW246238   6.501   0.359   0.316
 9248WAT    LP146239   6.445   0.283   0.217
 9248WAT    LP246240   6.387   0.283   0.316
 9249WAT     OW46241   4.610   1.880   2.723
 9249WAT    HW146242   4.571   1.821   2.659
 9249WAT    HW246243   4.547   1.951   2.732
 9249WAT    LP146244   4.620   1.848   2.784
 9249WAT    LP246245   4.672   1.905   2.699
 9250WAT     OW46246   3.369   5.153   2.033
 9250WAT    HW146247   3.287   5.146   1.984
 9250WAT    HW246248   3.434   5.178   1.967
 9250WAT    LP146249   3.364   5.202   2.082
 9250WAT    LP246250   3.386   5.092   2.062
 9251WAT     OW46251   4.334   5.287   3.995
 9251WAT    HW146252   4.283   5.213   3.961
 9251WAT    HW246253   4.320   5.357   3.932
 9251WAT    LP146254   4.310   5.305   4.059
 9251WAT    LP246255   4.402   5.270   4.000
 9252WAT     OW46256   6.634   4.441   6.296
 9252WAT    HW146257   6.648   4.351   6.325
 9252WAT    HW246258   6.701   4.492   6.343
 9252WAT    LP146259   6.643   4.446   6.227
 9252WAT    LP246260   6.570   4.462   6.313
 9253WAT     OW46261   0.158   4.539   0.060
 9253WAT    HW146262   0.187   4.624   0.094
 9253WAT    HW246263   0.085   4.515   0.117
 9253WAT    LP146264   0.138   4.545  -0.006
 9253WAT    LP246265   0.210   4.493   0.065
 9254WAT     OW46266   1.071   1.328   2.388
 9254WAT    HW146267   1.137   1.260   2.372
 9254WAT    HW246268   1.110   1.383   2.456
 9254WAT    LP146269   1.060   1.365   2.329
 9254WAT    LP246270   1.011   1.300   2.410
 9255WAT     OW46271   0.172   3.441   6.022
 9255WAT    HW146272   0.252   3.399   5.992
 9255WAT    HW246273   0.127   3.374   6.072
 9255WAT    LP146274   0.187   3.496   6.063
 9255WAT    LP246275   0.133   3.463   5.968
 9256WAT     OW46276   6.687   1.357   4.493
 9256WAT    HW146277   6.639   1.434   4.460
 9256WAT    HW246278   6.776   1.389   4.507
 9256WAT    LP146279   6.659   1.334   4.553
 9256WAT    LP246280   6.686   1.306   4.446
 9257WAT     OW46281   0.428   0.019   3.944
 9257WAT    HW146282   0.370  -0.056   3.947
 9257WAT    HW246283   0.381   0.088   3.990
 9257WAT    LP146284   0.489   0.005   3.975
 9257WAT    LP246285   0.441   0.038   3.877
 9258WAT     OW46286   3.610   0.174   6.480
 9258WAT    HW146287   3.522   0.151   6.510
 9258WAT    HW246288   3.667   0.113   6.527
 9258WAT    LP146289   3.615   0.165   6.411
 9258WAT    LP246290   3.625   0.240   6.497
 9259WAT     OW46291   3.269   6.136   6.020
 9259WAT    HW146292   3.351   6.168   6.057
 9259WAT    HW246293   3.201   6.188   6.064
 9259WAT    LP146294   3.267   6.146   5.951
 9259WAT    LP246295   3.260   6.068   6.034
 9260WAT     OW46296   4.863   5.345   5.887
 9260WAT    HW146297   4.835   5.423   5.935
 9260WAT    HW246298   4.788   5.286   5.890
 9260WAT    LP146299   4.880   5.361   5.821
 9260WAT    LP246300   4.919   5.316   5.919
 9261WAT     OW46301   5.496   1.458   3.596
 9261WAT    HW146302   5.429   1.398   3.564
 9261WAT    HW246303   5.571   1.403   3.616
 9261WAT    LP146304   5.512   1.505   3.547
 9261WAT    LP246305   5.474   1.491   3.654
 9262WAT     OW46306   6.028   1.763   1.672
 9262WAT    HW146307   5.980   1.743   1.753
 9262WAT    HW246308   6.046   1.857   1.678
 9262WAT    LP146309   6.087   1.726   1.669
 9262WAT    LP246310   5.988   1.749   1.616
 9263WAT     OW46311   3.936   4.751   3.600
 9263WAT    HW146312   3.969   4.760   3.689
 9263WAT    HW246313   3.987   4.680   3.562
 9263WAT    LP146314   3.868   4.735   3.601
 9263WAT    LP246315   3.946   4.810   3.564
 9264WAT     OW46316   1.707   4.923   6.173
 9264WAT    HW146317   1.729   4.852   6.113
 9264WAT    HW246318   1.768   4.913   6.246
 9264WAT    LP146319   1.716   4.985   6.142
 9264WAT    LP246320   1.641   4.917   6.196
 9265WAT     OW46321   0.199   3.179   3.543
 9265WAT    HW146322   0.272   3.160   3.484
 9265WAT    HW246323   0.157   3.093   3.557
 9265WAT    LP146324   0.222   3.205   3.604
 9265WAT    LP246325   0.154   3.223   3.514
 9266WAT     OW46326   4.833   6.367   0.478
 9266WAT    HW146327   4.837   6.460   0.500
 9266WAT    HW246328   4.922   6.346   0.449
 9266WAT    LP146329   4.817   6.329   0.534
 9266WAT    LP246330   4.787   6.355   0.427
 9267WAT     OW46331   4.784   3.000   5.952
 9267WAT    HW146332   4.783   2.910   5.984
 9267WAT    HW246333   4.722   3.047   6.008
 9267WAT    LP146334   4.848   3.028   5.957
 9267WAT    LP246335   4.763   3.003   5.885
 9268WAT     OW46336   1.504   3.133   4.942
 9268WAT    HW146337   1.519   3.044   4.974
 9268WAT    HW246338   1.529   3.131   4.849
 9268WAT    LP146339   1.436   3.151   4.949
 9268WAT    LP246340   1.543   3.179   4.977
 9269WAT     OW46341   4.309   3.277   0.748
 9269WAT    HW146342   4.234   3.229   0.782
 9269WAT    HW246343   4.318   3.352   0.806
 9269WAT    LP146344   4.367   3.237   0.750
 9269WAT    LP246345   4.298   3.298   0.682
 9270WAT     OW46346   4.538   4.579   0.781
 9270WAT    HW146347   4.544   4.629   0.862
 9270WAT    HW246348   4.630   4.562   0.756
 9270WAT    LP146349   4.504   4.518   0.791
 9270WAT    LP246350   4.506   4.615   0.731
 9271WAT     OW46351   2.257   4.348   0.892
 9271WAT    HW146352   2.269   4.431   0.938
 9271WAT    HW246353   2.162   4.339   0.883
 9271WAT    LP146354   2.288   4.350   0.829
 9271WAT    LP246355   2.283   4.295   0.930
 9272WAT     OW46356   1.965   6.481   5.667
 9272WAT    HW146357   2.005   6.501   5.752
 9272WAT    HW246358   1.906   6.408   5.686
 9272WAT    LP146359   1.929   6.536   5.643
 9272WAT    LP246360   2.013   6.462   5.621
 9273WAT     OW46361   3.334   4.252   1.970
 9273WAT    HW146362   3.283   4.234   2.049
 9273WAT    HW246363   3.421   4.276   2.003
 9273WAT    LP146364   3.337   4.196   1.929
 9273WAT    LP246365   3.306   4.306   1.935
 9274WAT     OW46366   1.972   5.454   5.072
 9274WAT    HW146367   1.995   5.362   5.060
 9274WAT    HW246368   2.012   5.479   5.155
 9274WAT    LP146369   1.997   5.493   5.019
 9274WAT    LP246370   1.902   5.462   5.075
 9275WAT     OW46371   5.730   4.208   0.137
 9275WAT    HW146372   5.654   4.237   0.086
 9275WAT    HW246373   5.742   4.276   0.203
 9275WAT    LP146374   5.717   4.146   0.167
 9275WAT    LP246375   5.787   4.203   0.096
 9276WAT     OW46376   6.634   0.858   3.738
 9276WAT    HW146377   6.542   0.830   3.731
 9276WAT    HW246378   6.685   0.779   3.721
 9276WAT    LP146379   6.647   0.907   3.690
 9276WAT    LP246380   6.647   0.884   3.801
 9277WAT     OW46381   5.513   3.405   1.846
 9277WAT    HW146382   5.534   3.480   1.902
 9277WAT    HW246383   5.439   3.434   1.793
 9277WAT    LP146384   5.567   3.388   1.805
 9277WAT    LP246385   5.495   3.349   1.885
 9278WAT     OW46386   3.510   0.745   0.027
 9278WAT    HW146387   3.523   0.815   0.090
 9278WAT    HW246388   3.458   0.680   0.075
 9278WAT    LP146389   3.475   0.768  -0.029
 9278WAT    LP246390   3.571   0.717   0.008
 9279WAT     OW46391   6.680   2.279   0.369
 9279WAT    HW146392   6.611   2.284   0.435
 9279WAT    HW246393   6.720   2.366   0.368
 9279WAT    LP146394   6.728   2.231   0.386
 9279WAT    LP246395   6.653   2.264   0.306
 9280WAT     OW46396   1.533   4.593   4.193
 9280WAT    HW146397   1.523   4.672   4.141
 9280WAT    HW246398   1.567   4.624   4.278
 9280WAT    LP146399   1.472   4.561   4.202
 9280WAT    LP246400   1.579   4.549   4.163
 9281WAT     OW46401   2.878   3.301   2.034
 9281WAT    HW146402   2.808   3.350   1.991
 9281WAT    HW246403   2.847   3.288   2.124
 9281WAT    LP146404   2.888   3.239   2.003
 9281WAT    LP246405   2.938   3.338   2.034
 9282WAT     OW46406   1.233   5.133   3.030
 9282WAT    HW146407   1.168   5.203   3.034
 9282WAT    HW246408   1.221   5.093   2.944
 9282WAT    LP146409   1.298   5.160   3.036
 9282WAT    LP246410   1.222   5.086   3.081
 9283WAT     OW46411   3.822   6.366   1.758
 9283WAT    HW146412   3.877   6.307   1.810
 9283WAT    HW246413   3.793   6.433   1.820
 9283WAT    LP146414   3.859   6.395   1.706
 9283WAT    LP246415   3.767   6.331   1.732
 9284WAT     OW46416   2.449   0.454   2.015
 9284WAT    HW146417   2.370   0.487   2.058
 9284WAT    HW246418   2.417   0.383   1.959
 9284WAT    LP146419   2.478   0.504   1.976
 9284WAT    LP246420   2.495   0.430   2.062
 9285WAT     OW46421   1.696   6.575   4.599
 9285WAT    HW146422   1.709   6.533   4.683
 9285WAT    HW246423   1.633   6.645   4.617
 9285WAT    LP146424   1.756   6.602   4.575
 9285WAT    LP246425   1.670   6.530   4.552
 9286WAT     OW46426   4.973   1.233   3.832
 9286WAT    HW146427   4.922   1.256   3.754
 9286WAT    HW246428   4.907   1.198   3.893
 9286WAT    LP146429   5.021   1.184   3.817
 9286WAT    LP246430   5.004   1.289   3.858
 9287WAT     OW46431   1.272   2.514   3.384
 9287WAT    HW146432   1.321   2.467   3.452
 9287WAT    HW246433   1.336   2.574   3.346
 9287WAT    LP146434   1.248   2.469   3.336
 9287WAT    LP246435   1.218   2.549   3.412
 9288WAT     OW46436   1.214   2.632   6.442
 9288WAT    HW146437   1.224   2.539   6.422
 9288WAT    HW246438   1.215   2.675   6.357
 9288WAT    LP146439   1.153   2.643   6.475
 9288WAT    LP246440   1.266   2.654   6.482
 9289WAT     OW46441   1.231   3.821   5.737
 9289WAT    HW146442   1.306   3.832   5.678
 9289WAT    HW246443   1.156   3.812   5.678
 9289WAT    LP146444   1.239   3.763   5.776
 9289WAT    LP246445   1.224   3.876   5.779
 9290WAT     OW46446   2.830   3.259   4.865
 9290WAT    HW146447   2.796   3.262   4.776
 9290WAT    HW246448   2.755   3.277   4.921
 9290WAT    LP146449   2.857   3.196   4.880
 9290WAT    LP246450   2.880   3.308   4.874
 9291WAT     OW46451   4.480   1.414   5.984
 9291WAT    HW146452   4.565   1.423   6.027
 9291WAT    HW246453   4.501   1.380   5.897
 9291WAT    LP146454   4.438   1.370   6.019
 9291WAT    LP246455   4.449   1.477   5.978
 9292WAT     OW46456   4.823   0.758   2.802
 9292WAT    HW146457   4.755   0.750   2.735
 9292WAT    HW246458   4.899   0.793   2.755
 9292WAT    LP146459   4.803   0.802   2.853
 9292WAT    LP246460   4.838   0.695   2.830
 9293WAT     OW46461   0.890   4.319   4.256
 9293WAT    HW146462   0.867   4.405   4.292
 9293WAT    HW246463   0.886   4.260   4.331
 9293WAT    LP146464   0.844   4.300   4.207
 9293WAT    LP246465   0.954   4.320   4.229
 9294WAT     OW46466   3.815   5.306   5.663
 9294WAT    HW146467   3.779   5.392   5.641
 9294WAT    HW246468   3.778   5.286   5.749
 9294WAT    LP146469   3.796   5.258   5.616
 9294WAT    LP246470   3.885   5.309   5.667
 9295WAT     OW46471   1.501   3.424   4.671
 9295WAT    HW146472   1.512   3.485   4.598
 9295WAT    HW246473   1.407   3.412   4.678
 9295WAT    LP146474   1.533   3.364   4.657
 9295WAT    LP246475   1.527   3.451   4.730
 9296WAT     OW46476   3.240   5.003   3.924
 9296WAT    HW146477   3.199   4.922   3.893
 9296WAT    HW246478   3.168   5.065   3.932
 9296WAT    LP146479   3.271   4.993   3.986
 9296WAT    LP246480   3.288   5.026   3.878
 9297WAT     OW46481   2.505   2.463   2.194
 9297WAT    HW146482   2.580   2.477   2.251
 9297WAT    HW246483   2.444   2.410   2.245
 9297WAT    LP146484   2.476   2.524   2.176
 9297WAT    LP246485   2.525   2.429   2.136
 9298WAT     OW46486   1.345   0.765   1.374
 9298WAT    HW146487   1.284   0.823   1.419
 9298WAT    HW246488   1.315   0.677   1.397
 9298WAT    LP146489   1.342   0.776   1.305
 9298WAT    LP246490   1.410   0.776   1.397
 9299WAT     OW46491   2.317   0.522   1.364
 9299WAT    HW146492   2.320   0.430   1.338
 9299WAT    HW246493   2.268   0.522   1.446
 9299WAT    LP146494   2.382   0.547   1.373
 9299WAT    LP246495   2.284   0.560   1.315
 9300WAT     OW46496   3.617   4.293   4.867
 9300WAT    HW146497   3.632   4.213   4.816
 9300WAT    HW246498   3.610   4.362   4.801
 9300WAT    LP146499   3.559   4.288   4.904
 9300WAT    LP246500   3.672   4.305   4.909
 9301WAT     OW46501   4.327   4.796   4.105
 9301WAT    HW146502   4.406   4.819   4.155
 9301WAT    HW246503   4.262   4.860   4.133
 9301WAT    LP146504   4.339   4.801   4.036
 9301WAT    LP246505   4.306   4.731   4.121
 9302WAT     OW46506   5.941   5.789   5.105
 9302WAT    HW146507   5.867   5.844   5.130
 9302WAT    HW246508   6.017   5.836   5.140
 9302WAT    LP146509   5.936   5.726   5.133
 9302WAT    LP246510   5.945   5.784   5.035
 9303WAT     OW46511   6.446   4.474   2.290
 9303WAT    HW146512   6.397   4.515   2.218
 9303WAT    HW246513   6.379   4.433   2.345
 9303WAT    LP146514   6.491   4.426   2.266
 9303WAT    LP246515   6.481   4.523   2.327
 9304WAT     OW46516   0.052   2.562   5.176
 9304WAT    HW146517   0.137   2.526   5.151
 9304WAT    HW246518  -0.007   2.533   5.106
 9304WAT    LP146519   0.031   2.536   5.238
 9304WAT    LP246520   0.054   2.632   5.179
 9305WAT     OW46521   6.198   5.042   2.450
 9305WAT    HW146522   6.158   5.065   2.534
 9305WAT    HW246523   6.189   4.947   2.444
 9305WAT    LP146524   6.164   5.073   2.397
 9305WAT    LP246525   6.265   5.061   2.449
 9306WAT     OW46526   3.964   2.483   0.725
 9306WAT    HW146527   4.047   2.462   0.682
 9306WAT    HW246528   3.982   2.478   0.819
 9306WAT    LP146529   3.943   2.548   0.708
 9306WAT    LP246530   3.914   2.437   0.707
 9307WAT     OW46531   3.338   5.298   3.705
 9307WAT    HW146532   3.295   5.352   3.639
 9307WAT    HW246533   3.330   5.209   3.672
 9307WAT    LP146534   3.405   5.316   3.712
 9307WAT    LP246535   3.305   5.305   3.767
 9308WAT     OW46536   6.143   2.194   6.100
 9308WAT    HW146537   6.182   2.200   6.188
 9308WAT    HW246538   6.203   2.137   6.052
 9308WAT    LP146539   6.079   2.166   6.104
 9308WAT    LP246540   6.139   2.257   6.071
 9309WAT     OW46541   2.128   1.877   3.132
 9309WAT    HW146542   2.122   1.895   3.226
 9309WAT    HW246543   2.205   1.820   3.123
 9309WAT    LP146544   2.070   1.844   3.109
 9309WAT    LP246545   2.137   1.936   3.096
 9310WAT     OW46546   6.461   1.357   3.901
 9310WAT    HW146547   6.439   1.294   3.832
 9310WAT    HW246548   6.444   1.442   3.861
 9310WAT    LP146549   6.420   1.347   3.957
 9310WAT    LP246550   6.528   1.351   3.919
 9311WAT     OW46551   4.033   3.704   5.267
 9311WAT    HW146552   4.104   3.718   5.330
 9311WAT    HW246553   4.070   3.731   5.183
 9311WAT    LP146554   4.014   3.637   5.266
 9311WAT    LP246555   3.978   3.744   5.283
 9312WAT     OW46556   5.752   3.777   0.000
 9312WAT    HW146557   5.724   3.831  -0.073
 9312WAT    HW246558   5.796   3.838   0.059
 9312WAT    LP146559   5.697   3.748   0.032
 9312WAT    LP246560   5.796   3.727  -0.021
 9313WAT     OW46561   5.966   1.381   5.228
 9313WAT    HW146562   5.979   1.447   5.161
 9313WAT    HW246563   5.974   1.429   5.311
 9313WAT    LP146564   5.902   1.353   5.223
 9313WAT    LP246565   6.014   1.330   5.224
 9314WAT     OW46566   0.777   3.810   2.529
 9314WAT    HW146567   0.851   3.785   2.584
 9314WAT    HW246568   0.787   3.757   2.450
 9314WAT    LP146569   0.716   3.796   2.561
 9314WAT    LP246570   0.780   3.878   2.513
 9315WAT     OW46571   4.880   1.237   4.278
 9315WAT    HW146572   4.975   1.236   4.293
 9315WAT    HW246573   4.868   1.291   4.201
 9315WAT    LP146574   4.856   1.172   4.267
 9315WAT    LP246575   4.846   1.264   4.333
 9316WAT     OW46576   1.533   5.932   5.862
 9316WAT    HW146577   1.626   5.936   5.840
 9316WAT    HW246578   1.492   5.995   5.803
 9316WAT    LP146579   1.508   5.867   5.851
 9316WAT    LP246580   1.523   5.950   5.929
 9317WAT     OW46581   0.590   5.327   5.137
 9317WAT    HW146582   0.592   5.366   5.225
 9317WAT    HW246583   0.557   5.238   5.151
 9317WAT    LP146584   0.547   5.363   5.095
 9317WAT    LP246585   0.654   5.325   5.110
 9318WAT     OW46586   1.347   6.685   2.949
 9318WAT    HW146587   1.269   6.656   2.996
 9318WAT    HW246588   1.394   6.740   3.011
 9318WAT    LP146589   1.387   6.630   2.931
 9318WAT    LP246590   1.330   6.720   2.891
 9319WAT     OW46591   0.079   0.969   2.718
 9319WAT    HW146592   0.166   1.010   2.722
 9319WAT    HW246593   0.045   0.974   2.807
 9319WAT    LP146594   0.037   1.005   2.674
 9319WAT    LP246595   0.084   0.903   2.697
 9320WAT     OW46596   2.908   2.880   6.251
 9320WAT    HW146597   2.978   2.937   6.220
 9320WAT    HW246598   2.844   2.938   6.292
 9320WAT    LP146599   2.879   2.845   6.197
 9320WAT    LP246600   2.932   2.834   6.298
 9321WAT     OW46601   2.101   0.540   0.024
 9321WAT    HW146602   2.126   0.448   0.011
 9321WAT    HW246603   2.013   0.537   0.061
 9321WAT    LP146604   2.146   0.572   0.068
 9321WAT    LP246605   2.102   0.574  -0.037
 9322WAT     OW46606   2.779   4.281   5.512
 9322WAT    HW146607   2.767   4.237   5.428
 9322WAT    HW246608   2.808   4.369   5.490
 9322WAT    LP146609   2.719   4.283   5.548
 9322WAT    LP246610   2.828   4.248   5.550
 9323WAT     OW46611   2.015   6.498   1.823
 9323WAT    HW146612   2.002   6.431   1.756
 9323WAT    HW246613   1.930   6.542   1.830
 9323WAT    LP146614   2.032   6.468   1.884
 9323WAT    LP246615   2.065   6.543   1.804
 9324WAT     OW46616   2.619   2.401   5.035
 9324WAT    HW146617   2.594   2.399   4.943
 9324WAT    HW246618   2.672   2.322   5.048
 9324WAT    LP146619   2.657   2.458   5.049
 9324WAT    LP246620   2.563   2.400   5.076
 9325WAT     OW46621   6.338   5.557   1.796
 9325WAT    HW146622   6.344   5.556   1.700
 9325WAT    HW246623   6.340   5.464   1.820
 9325WAT    LP146624   6.392   5.591   1.824
 9325WAT    LP246625   6.278   5.586   1.816
 9326WAT     OW46626   3.295   0.712   6.271
 9326WAT    HW146627   3.231   0.759   6.324
 9326WAT    HW246628   3.363   0.686   6.334
 9326WAT    LP146629   3.266   0.655   6.242
 9326WAT    LP246630   3.322   0.754   6.222
 9327WAT     OW46631   5.329   4.962   3.249
 9327WAT    HW146632   5.305   4.869   3.242
 9327WAT    HW246633   5.320   4.996   3.160
 9327WAT    LP146634   5.286   4.995   3.293
 9327WAT    LP246635   5.395   4.968   3.272
 9328WAT     OW46636   4.507   2.456   0.115
 9328WAT    HW146637   4.484   2.375   0.161
 9328WAT    HW246638   4.437   2.517   0.137
 9328WAT    LP146639   4.569   2.480   0.138
 9328WAT    LP246640   4.511   2.445   0.046
 9329WAT     OW46641   3.558   1.004   3.909
 9329WAT    HW146642   3.619   1.038   3.844
 9329WAT    HW246643   3.605   1.011   3.992
 9329WAT    LP146644   3.499   1.042   3.910
 9329WAT    LP246645   3.542   0.937   3.895
 9330WAT     OW46646   6.540   6.485   6.341
 9330WAT    HW146647   6.461   6.446   6.376
 9330WAT    HW246648   6.569   6.546   6.409
 9330WAT    LP146649   6.589   6.436   6.329
 9330WAT    LP246650   6.527   6.520   6.281
 9331WAT     OW46651   6.686   6.266   3.610
 9331WAT    HW146652   6.763   6.294   3.661
 9331WAT    HW246653   6.626   6.341   3.616
 9331WAT    LP146654   6.703   6.254   3.544
 9331WAT    LP246655   6.658   6.209   3.638
 9332WAT     OW46656   1.766   4.392   0.755
 9332WAT    HW146657   1.685   4.376   0.805
 9332WAT    HW246658   1.757   4.336   0.677
 9332WAT    LP146659   1.770   4.459   0.737
 9332WAT    LP246660   1.822   4.374   0.792
 9333WAT     OW46661   5.966   5.923   6.396
 9333WAT    HW146662   5.994   5.979   6.468
 9333WAT    HW246663   5.902   5.863   6.435
 9333WAT    LP146664   5.937   5.961   6.345
 9333WAT    LP246665   6.020   5.887   6.370
 9334WAT     OW46666   5.114   2.235   3.173
 9334WAT    HW146667   5.104   2.266   3.083
 9334WAT    HW246668   5.137   2.143   3.165
 9334WAT    LP146669   5.165   2.270   3.206
 9334WAT    LP246670   5.054   2.242   3.209
 9335WAT     OW46671   4.753   4.785   5.788
 9335WAT    HW146672   4.727   4.716   5.727
 9335WAT    HW246673   4.774   4.737   5.869
 9335WAT    LP146674   4.810   4.818   5.764
 9335WAT    LP246675   4.701   4.830   5.799
 9336WAT     OW46676   1.634   6.536   0.305
 9336WAT    HW146677   1.624   6.454   0.354
 9336WAT    HW246678   1.670   6.598   0.368
 9336WAT    LP146679   1.677   6.527   0.251
 9336WAT    LP246680   1.572   6.558   0.281
 9337WAT     OW46681   2.901   0.815   2.666
 9337WAT    HW146682   2.872   0.744   2.723
 9337WAT    HW246683   2.857   0.893   2.701
 9337WAT    LP146684   2.971   0.822   2.670
 9337WAT    LP246685   2.882   0.804   2.600
 9338WAT     OW46686   4.985   6.271   2.075
 9338WAT    HW146687   5.076   6.281   2.049
 9338WAT    HW246688   4.967   6.346   2.131
 9338WAT    LP146689   4.943   6.271   2.019
 9338WAT    LP246690   4.975   6.211   2.110
 9339WAT     OW46691   0.872   0.550   4.538
 9339WAT    HW146692   0.866   0.482   4.605
 9339WAT    HW246693   0.937   0.517   4.476
 9339WAT    LP146694   0.810   0.559   4.506
 9339WAT    LP246695   0.893   0.610   4.566
 9340WAT     OW46696   0.570   1.638   6.227
 9340WAT    HW146697   0.485   1.597   6.245
 9340WAT    HW246698   0.549   1.713   6.172
 9340WAT    LP146699   0.601   1.658   6.286
 9340WAT    LP246700   0.612   1.593   6.193
 9341WAT     OW46701   2.721   4.974   1.099
 9341WAT    HW146702   2.745   4.883   1.117
 9341WAT    HW246703   2.626   4.973   1.090
 9341WAT    LP146704   2.741   5.016   1.152
 9341WAT    LP246705   2.752   4.996   1.039
 9342WAT     OW46706   4.871   4.181   3.206
 9342WAT    HW146707   4.958   4.190   3.167
 9342WAT    HW246708   4.813   4.163   3.132
 9342WAT    LP146709   4.870   4.127   3.251
 9342WAT    LP246710   4.853   4.240   3.239
 9343WAT     OW46711   2.496   4.858   5.488
 9343WAT    HW146712   2.526   4.925   5.427
 9343WAT    HW246713   2.432   4.807   5.438
 9343WAT    LP146714   2.549   4.818   5.509
 9343WAT    LP246715   2.465   4.888   5.544
 9344WAT     OW46716   3.124   3.434   2.502
 9344WAT    HW146717   3.156   3.499   2.565
 9344WAT    HW246718   3.175   3.451   2.423
 9344WAT    LP146719   3.136   3.369   2.526
 9344WAT    LP246720   3.056   3.443   2.490
 9345WAT     OW46721   0.296   5.215   5.950
 9345WAT    HW146722   0.244   5.268   5.890
 9345WAT    HW246723   0.359   5.277   5.989
 9345WAT    LP146724   0.256   5.187   6.000
 9345WAT    LP246725   0.329   5.164   5.916
 9346WAT     OW46726   1.146   0.478   4.116
 9346WAT    HW146727   1.088   0.537   4.067
 9346WAT    HW246728   1.233   0.516   4.106
 9346WAT    LP146729   1.128   0.475   4.183
 9346WAT    LP246730   1.144   0.413   4.088
 9347WAT     OW46731   2.194   6.137   5.360
 9347WAT    HW146732   2.127   6.143   5.292
 9347WAT    HW246733   2.181   6.050   5.399
 9347WAT    LP146734   2.258   6.141   5.331
 9347WAT    LP246735   2.186   6.187   5.407
 9348WAT     OW46736   2.714   1.470   3.330
 9348WAT    HW146737   2.763   1.433   3.256
 9348WAT    HW246738   2.768   1.542   3.362
 9348WAT    LP146739   2.651   1.493   3.308
 9348WAT    LP246740   2.705   1.421   3.380
 9349WAT     OW46741   5.747   2.652   2.188
 9349WAT    HW146742   5.761   2.708   2.112
 9349WAT    HW246743   5.750   2.711   2.263
 9349WAT    LP146744   5.684   2.620   2.184
 9349WAT    LP246745   5.797   2.603   2.193
 9350WAT     OW46746   3.147   0.292   3.862
 9350WAT    HW146747   3.071   0.349   3.873
 9350WAT    HW246748   3.222   0.349   3.884
 9350WAT    LP146749   3.144   0.238   3.907
 9350WAT    LP246750   3.152   0.269   3.797
 9351WAT     OW46751   5.115   2.337   6.529
 9351WAT    HW146752   5.201   2.298   6.540
 9351WAT    HW246753   5.061   2.298   6.597
 9351WAT    LP146754   5.118   2.407   6.537
 9351WAT    LP246755   5.089   2.323   6.465
 9352WAT     OW46756   3.232   3.370   4.317
 9352WAT    HW146757   3.231   3.278   4.345
 9352WAT    HW246758   3.303   3.409   4.369
 9352WAT    LP146759   3.247   3.374   4.249
 9352WAT    LP246760   3.171   3.401   4.330
 9353WAT     OW46761   2.153   0.058   0.964
 9353WAT    HW146762   2.215   0.128   0.987
 9353WAT    HW246763   2.084   0.103   0.915
 9353WAT    LP146764   2.184   0.010   0.924
 9353WAT    LP246765   2.127   0.028   1.021
 9354WAT     OW46766   3.812   5.068   2.726
 9354WAT    HW146767   3.862   5.113   2.794
 9354WAT    HW246768   3.855   5.091   2.644
 9354WAT    LP146769   3.813   4.998   2.736
 9354WAT    LP246770   3.745   5.090   2.726
 9355WAT     OW46771   4.668   6.555   4.391
 9355WAT    HW146772   4.728   6.492   4.433
 9355WAT    HW246773   4.649   6.516   4.306
 9355WAT    LP146774   4.610   6.563   4.429
 9355WAT    LP246775   4.700   6.617   4.383
 9356WAT     OW46776   4.438   6.229   6.468
 9356WAT    HW146777   4.516   6.235   6.412
 9356WAT    HW246778   4.427   6.317   6.503
 9356WAT    LP146779   4.382   6.209   6.431
 9356WAT    LP246780   4.449   6.183   6.520
 9357WAT     OW46781   6.638   5.571   5.491
 9357WAT    HW146782   6.626   5.640   5.556
 9357WAT    HW246783   6.556   5.521   5.494
 9357WAT    LP146784   6.648   5.597   5.427
 9357WAT    LP246785   6.692   5.530   5.508
 9358WAT     OW46786   3.809   6.487   3.080
 9358WAT    HW146787   3.896   6.449   3.063
 9358WAT    HW246788   3.786   6.455   3.168
 9358WAT    LP146789   3.813   6.557   3.080
 9358WAT    LP246790   3.763   6.465   3.033
 9359WAT     OW46791   5.966   3.194   5.748
 9359WAT    HW146792   5.900   3.263   5.753
 9359WAT    HW246793   5.923   3.125   5.697
 9359WAT    LP146794   6.023   3.216   5.716
 9359WAT    LP246795   5.982   3.170   5.812
 9360WAT     OW46796   4.745   6.220   2.372
 9360WAT    HW146797   4.710   6.229   2.283
 9360WAT    HW246798   4.744   6.309   2.407
 9360WAT    LP146799   4.705   6.177   2.410
 9360WAT    LP246800   4.810   6.195   2.370
 9361WAT     OW46801   2.538   0.697   2.468
 9361WAT    HW146802   2.623   0.654   2.452
 9361WAT    HW246803   2.554   0.756   2.541
 9361WAT    LP146804   2.518   0.732   2.411
 9361WAT    LP246805   2.489   0.649   2.484
 9362WAT     OW46806   3.858   1.530   5.893
 9362WAT    HW146807   3.839   1.438   5.909
 9362WAT    HW246808   3.948   1.531   5.860
 9362WAT    LP146809   3.814   1.557   5.846
 9362WAT    LP246810   3.854   1.567   5.952
 9363WAT     OW46811   3.785   2.795   3.998
 9363WAT    HW146812   3.759   2.881   4.031
 9363WAT    HW246813   3.869   2.811   3.955
 9363WAT    LP146814   3.793   2.750   4.051
 9363WAT    LP246815   3.738   2.771   3.953
 9364WAT     OW46816   4.519   1.271   4.097
 9364WAT    HW146817   4.494   1.315   4.178
 9364WAT    HW246818   4.452   1.204   4.084
 9364WAT    LP146819   4.519   1.316   4.043
 9364WAT    LP246820   4.583   1.242   4.103
 9365WAT     OW46821   4.652   0.108   6.050
 9365WAT    HW146822   4.695   0.105   5.965
 9365WAT    HW246823   4.634   0.200   6.065
 9365WAT    LP146824   4.593   0.071   6.049
 9365WAT    LP246825   4.695   0.082   6.100
 9366WAT     OW46826   4.146   4.453   0.810
 9366WAT    HW146827   4.131   4.521   0.876
 9366WAT    HW246828   4.075   4.391   0.823
 9366WAT    LP146829   4.143   4.481   0.745
 9366WAT    LP246830   4.208   4.423   0.819
 9367WAT     OW46831   2.434   5.972   5.908
 9367WAT    HW146832   2.343   5.947   5.889
 9367WAT    HW246833   2.460   6.024   5.832
 9367WAT    LP146834   2.437   6.010   5.966
 9367WAT    LP246835   2.475   5.916   5.914
 9368WAT     OW46836   1.509   6.065   3.680
 9368WAT    HW146837   1.442   6.053   3.747
 9368WAT    HW246838   1.474   6.133   3.623
 9368WAT    LP146839   1.570   6.085   3.709
 9368WAT    LP246840   1.519   6.006   3.644
 9369WAT     OW46841   0.285   5.839   2.239
 9369WAT    HW146842   0.310   5.746   2.244
 9369WAT    HW246843   0.236   5.846   2.158
 9369WAT    LP146844   0.245   5.856   2.294
 9369WAT    LP246845   0.342   5.879   2.238
 9370WAT     OW46846   2.899   4.072   0.848
 9370WAT    HW146847   2.816   4.090   0.804
 9370WAT    HW246848   2.961   4.132   0.806
 9370WAT    LP146849   2.894   4.086   0.916
 9370WAT    LP246850   2.918   4.006   0.838
 9371WAT     OW46851   5.069   5.634   6.275
 9371WAT    HW146852   4.984   5.630   6.319
 9371WAT    HW246853   5.119   5.562   6.313
 9371WAT    LP146854   5.061   5.625   6.206
 9371WAT    LP246855   5.101   5.695   6.287
 9372WAT     OW46856   5.274   2.328   5.745
 9372WAT    HW146857   5.362   2.357   5.766
 9372WAT    HW246858   5.220   2.406   5.756
 9372WAT    LP146859   5.270   2.304   5.679
 9372WAT    LP246860   5.253   2.277   5.789
 9373WAT     OW46861   4.609   5.041   2.222
 9373WAT    HW146862   4.634   4.952   2.197
 9373WAT    HW246863   4.591   5.035   2.316
 9373WAT    LP146864   4.661   5.086   2.209
 9373WAT    LP246865   4.552   5.061   2.187
 9374WAT     OW46866   0.454   5.031   2.287
 9374WAT    HW146867   0.479   5.075   2.368
 9374WAT    HW246868   0.370   5.069   2.263
 9374WAT    LP146869   0.502   5.043   2.237
 9374WAT    LP246870   0.449   4.962   2.297
 9375WAT     OW46871   1.093   0.720   0.154
 9375WAT    HW146872   1.019   0.724   0.093
 9375WAT    HW246873   1.087   0.802   0.204
 9375WAT    LP146874   1.087   0.665   0.197
 9375WAT    LP246875   1.154   0.717   0.120
 9376WAT     OW46876   4.720   4.912   0.609
 9376WAT    HW146877   4.739   5.005   0.619
 9376WAT    HW246878   4.716   4.878   0.698
 9376WAT    LP146879   4.658   4.904   0.576
 9376WAT    LP246880   4.770   4.881   0.572
 9377WAT     OW46881   6.584   0.634   5.250
 9377WAT    HW146882   6.677   0.627   5.227
 9377WAT    HW246883   6.576   0.721   5.291
 9377WAT    LP146884   6.544   0.630   5.193
 9377WAT    LP246885   6.566   0.584   5.295
 9378WAT     OW46886   1.942   1.628   3.286
 9378WAT    HW146887   1.866   1.660   3.334
 9378WAT    HW246888   2.012   1.625   3.352
 9378WAT    LP146889   1.930   1.565   3.259
 9378WAT    LP246890   1.959   1.672   3.234
 9379WAT     OW46891   0.483   5.375   0.602
 9379WAT    HW146892   0.544   5.306   0.577
 9379WAT    HW246893   0.538   5.443   0.641
 9379WAT    LP146894   0.449   5.400   0.546
 9379WAT    LP246895   0.436   5.352   0.648
 9380WAT     OW46896   3.932   2.856   0.720
 9380WAT    HW146897   3.847   2.822   0.748
 9380WAT    HW246898   3.983   2.862   0.801
 9380WAT    LP146899   3.963   2.812   0.675
 9380WAT    LP246900   3.925   2.919   0.691
 9381WAT     OW46901   4.130   4.576   0.561
 9381WAT    HW146902   4.133   4.524   0.641
 9381WAT    HW246903   4.042   4.614   0.560
 9381WAT    LP146904   4.178   4.627   0.562
 9381WAT    LP246905   4.140   4.536   0.504
 9382WAT     OW46906   1.381   5.478   1.787
 9382WAT    HW146907   1.331   5.501   1.709
 9382WAT    HW246908   1.464   5.444   1.753
 9382WAT    LP146909   1.392   5.535   1.827
 9382WAT    LP246910   1.348   5.429   1.825
 9383WAT     OW46911   0.860   0.443   2.995
 9383WAT    HW146912   0.885   0.418   3.085
 9383WAT    HW246913   0.781   0.495   3.006
 9383WAT    LP146914   0.911   0.480   2.965
 9383WAT    LP246915   0.847   0.386   2.957
 9384WAT     OW46916   1.626   4.959   1.078
 9384WAT    HW146917   1.670   4.920   1.002
 9384WAT    HW246918   1.545   4.995   1.043
 9384WAT    LP146919   1.612   4.910   1.126
 9384WAT    LP246920   1.666   5.009   1.107
 9385WAT     OW46921   1.221   5.040   0.734
 9385WAT    HW146922   1.272   5.090   0.670
 9385WAT    HW246923   1.157   5.102   0.769
 9385WAT    LP146924   1.189   4.986   0.703
 9385WAT    LP246925   1.262   5.016   0.785
 9386WAT     OW46926   3.575   0.752   2.679
 9386WAT    HW146927   3.656   0.802   2.669
 9386WAT    HW246928   3.577   0.724   2.771
 9386WAT    LP146929   3.520   0.792   2.667
 9386WAT    LP246930   3.575   0.697   2.637
 9387WAT     OW46931   1.821   6.207   0.294
 9387WAT    HW146932   1.914   6.226   0.293
 9387WAT    HW246933   1.786   6.259   0.366
 9387WAT    LP146934   1.791   6.226   0.233
 9387WAT    LP246935   1.810   6.138   0.304
 9388WAT     OW46936   5.776   3.256   4.326
 9388WAT    HW146937   5.822   3.177   4.299
 9388WAT    HW246938   5.839   3.303   4.380
 9388WAT    LP146939   5.757   3.294   4.271
 9388WAT    LP246940   5.719   3.239   4.364
 9389WAT     OW46941   0.572   2.090   0.254
 9389WAT    HW146942   0.580   2.120   0.163
 9389WAT    HW246943   0.483   2.115   0.279
 9389WAT    LP146944   0.580   2.021   0.258
 9389WAT    LP246945   0.619   2.122   0.295
 9390WAT     OW46946   0.096   5.052   3.752
 9390WAT    HW146947   0.095   5.126   3.691
 9390WAT    HW246948   0.148   5.083   3.826
 9390WAT    LP146949   0.031   5.036   3.772
 9390WAT    LP246950   0.126   4.996   3.722
 9391WAT     OW46951   2.166   5.914   5.859
 9391WAT    HW146952   2.138   5.991   5.810
 9391WAT    HW246953   2.103   5.907   5.931
 9391WAT    LP146954   2.163   5.857   5.819
 9391WAT    LP246955   2.231   5.923   5.884
 9392WAT     OW46956   5.458   1.913   3.132
 9392WAT    HW146957   5.493   1.902   3.221
 9392WAT    HW246958   5.515   1.978   3.091
 9392WAT    LP146959   5.460   1.852   3.097
 9392WAT    LP246960   5.392   1.936   3.135
 9393WAT     OW46961   6.156   0.825   6.269
 9393WAT    HW146962   6.152   0.761   6.341
 9393WAT    HW246963   6.211   0.896   6.303
 9393WAT    LP146964   6.185   0.796   6.212
 9393WAT    LP246965   6.092   0.848   6.254
 9394WAT     OW46966   0.207   5.493   1.310
 9394WAT    HW146967   0.206   5.508   1.405
 9394WAT    HW246968   0.288   5.535   1.281
 9394WAT    LP146969   0.208   5.425   1.296
 9394WAT    LP246970   0.152   5.523   1.280
 9395WAT     OW46971   1.765   3.057   4.498
 9395WAT    HW146972   1.764   2.962   4.514
 9395WAT    HW246973   1.858   3.080   4.496
 9395WAT    LP146974   1.735   3.072   4.437
 9395WAT    LP246975   1.733   3.091   4.550
 9396WAT     OW46976   2.323   5.223   3.932
 9396WAT    HW146977   2.402   5.180   3.899
 9396WAT    HW246978   2.352   5.312   3.954
 9396WAT    LP146979   2.273   5.224   3.884
 9396WAT    LP246980   2.299   5.191   3.990
 9397WAT     OW46981   2.194   3.407   0.035
 9397WAT    HW146982   2.166   3.409  -0.057
 9397WAT    HW246983   2.285   3.378   0.031
 9397WAT    LP146984   2.189   3.470   0.064
 9397WAT    LP246985   2.155   3.361   0.071
 9398WAT     OW46986   1.981   5.863   0.732
 9398WAT    HW146987   1.915   5.914   0.778
 9398WAT    HW246988   2.057   5.863   0.790
 9398WAT    LP146989   1.958   5.798   0.720
 9398WAT    LP246990   1.997   5.893   0.671
 9399WAT     OW46991   6.752   3.148   1.510
 9399WAT    HW146992   6.679   3.205   1.485
 9399WAT    HW246993   6.777   3.104   1.429
 9399WAT    LP146994   6.805   3.186   1.535
 9399WAT    LP246995   6.731   3.102   1.558
 9400WAT     OW46996   0.248   6.286   5.293
 9400WAT    HW146997   0.199   6.218   5.338
 9400WAT    HW246998   0.202   6.298   5.210
 9400WAT    LP146999   0.248   6.345   5.331
 9400WAT    LP247000   0.314   6.266   5.282
 9401WAT     OW47001   2.451   2.342   2.626
 9401WAT    HW147002   2.473   2.315   2.537
 9401WAT    HW247003   2.355   2.344   2.627
 9401WAT    LP147004   2.475   2.296   2.673
 9401WAT    LP247005   2.477   2.406   2.640
 9402WAT     OW47006   5.570   3.321   3.263
 9402WAT    HW147007   5.490   3.272   3.280
 9402WAT    HW247008   5.616   3.322   3.347
 9402WAT    LP147009   5.609   3.289   3.214
 9402WAT    LP247010   5.555   3.387   3.242
 9403WAT     OW47011   2.227   6.243   2.709
 9403WAT    HW147012   2.224   6.308   2.779
 9403WAT    HW247013   2.298   6.184   2.734
 9403WAT    LP147014   2.166   6.208   2.704
 9403WAT    LP247015   2.241   6.274   2.647
 9404WAT     OW47016   2.697   5.784   1.273
 9404WAT    HW147017   2.624   5.798   1.213
 9404WAT    HW247018   2.669   5.823   1.355
 9404WAT    LP147019   2.710   5.715   1.281
 9404WAT    LP247020   2.755   5.815   1.249
 9405WAT     OW47021   1.131   4.482   3.532
 9405WAT    HW147022   1.066   4.421   3.565
 9405WAT    HW247023   1.083   4.540   3.473
 9405WAT    LP147024   1.159   4.519   3.585
 9405WAT    LP247025   1.182   4.449   3.498
 9406WAT     OW47026   4.480   5.342   5.695
 9406WAT    HW147027   4.489   5.290   5.615
 9406WAT    HW247028   4.477   5.433   5.663
 9406WAT    LP147029   4.421   5.326   5.729
 9406WAT    LP247030   4.535   5.332   5.737
 9407WAT     OW47031   4.519   3.420   3.968
 9407WAT    HW147032   4.504   3.326   3.956
 9407WAT    HW247033   4.572   3.426   4.047
 9407WAT    LP147034   4.554   3.446   3.913
 9407WAT    LP247035   4.459   3.454   3.976
 9408WAT     OW47036   2.801   3.242   2.291
 9408WAT    HW147037   2.811   3.304   2.363
 9408WAT    HW247038   2.710   3.213   2.297
 9408WAT    LP147039   2.813   3.273   2.229
 9408WAT    LP247040   2.845   3.188   2.298
 9409WAT     OW47041   5.185   5.225   2.138
 9409WAT    HW147042   5.120   5.192   2.200
 9409WAT    HW247043   5.133   5.253   2.062
 9409WAT    LP147044   5.220   5.279   2.165
 9409WAT    LP247045   5.230   5.174   2.120
 9410WAT     OW47046   5.358   3.004   1.388
 9410WAT    HW147047   5.432   2.954   1.354
 9410WAT    HW247048   5.310   3.031   1.310
 9410WAT    LP147049   5.318   2.965   1.430
 9410WAT    LP247050   5.381   3.060   1.424
 9411WAT     OW47051   5.659   0.063   1.553
 9411WAT    HW147052   5.712   0.008   1.495
 9411WAT    HW247053   5.684   0.153   1.531
 9411WAT    LP147054   5.591   0.053   1.540
 9411WAT    LP247055   5.672   0.049   1.620
 9412WAT     OW47056   5.659   0.700   0.305
 9412WAT    HW147057   5.745   0.672   0.337
 9412WAT    HW247058   5.651   0.662   0.218
 9412WAT    LP147059   5.608   0.677   0.347
 9412WAT    LP247060   5.656   0.770   0.302
 9413WAT     OW47061   6.647   5.672   6.026
 9413WAT    HW147062   6.565   5.661   5.977
 9413WAT    HW247063   6.696   5.738   5.977
 9413WAT    LP147064   6.634   5.694   6.091
 9413WAT    LP247065   6.682   5.611   6.029
 9414WAT     OW47066   0.401   0.524   0.576
 9414WAT    HW147067   0.474   0.585   0.587
 9414WAT    HW247068   0.422   0.476   0.496
 9414WAT    LP147069   0.396   0.481   0.631
 9414WAT    LP247070   0.341   0.560   0.569
 9415WAT     OW47071   2.987   3.793   3.088
 9415WAT    HW147072   2.955   3.882   3.100
 9415WAT    HW247073   3.082   3.801   3.095
 9415WAT    LP147074   2.962   3.751   3.138
 9415WAT    LP247075   2.969   3.769   3.025
 9416WAT     OW47076   6.403   0.325   3.398
 9416WAT    HW147077   6.322   0.276   3.413
 9416WAT    HW247078   6.407   0.337   3.304
 9416WAT    LP147079   6.401   0.387   3.431
 9416WAT    LP247080   6.459   0.289   3.421
 9417WAT     OW47081   2.071   5.516   5.318
 9417WAT    HW147082   2.100   5.434   5.358
 9417WAT    HW247083   2.009   5.553   5.381
 9417WAT    LP147084   2.125   5.559   5.308
 9417WAT    LP247085   2.039   5.504   5.257
 9418WAT     OW47086   1.211   6.401   6.459
 9418WAT    HW147087   1.219   6.441   6.546
 9418WAT    HW247088   1.204   6.476   6.400
 9418WAT    LP147089   1.268   6.363   6.444
 9418WAT    LP247090   1.154   6.361   6.455
 9419WAT     OW47091   3.316   3.117   0.642
 9419WAT    HW147092   3.341   3.053   0.575
 9419WAT    HW247093   3.398   3.157   0.670
 9419WAT    LP147094   3.273   3.165   0.615
 9419WAT    LP247095   3.284   3.085   0.696
 9420WAT     OW47096   0.970   1.707   0.734
 9420WAT    HW147097   0.940   1.620   0.707
 9420WAT    HW247098   1.045   1.725   0.677
 9420WAT    LP147099   0.919   1.755   0.724
 9420WAT    LP247100   0.989   1.707   0.801
 9421WAT     OW47101   4.748   2.965   4.068
 9421WAT    HW147102   4.659   2.980   4.100
 9421WAT    HW247103   4.782   2.895   4.124
 9421WAT    LP147104   4.747   2.944   4.001
 9421WAT    LP247105   4.787   3.023   4.073
 9422WAT     OW47106   1.134   4.642   4.682
 9422WAT    HW147107   1.172   4.696   4.751
 9422WAT    HW247108   1.076   4.702   4.634
 9422WAT    LP147109   1.184   4.618   4.639
 9422WAT    LP247110   1.097   4.589   4.708
 9423WAT     OW47111   4.196   6.406   1.978
 9423WAT    HW147112   4.146   6.487   1.987
 9423WAT    HW247113   4.277   6.433   1.935
 9423WAT    LP147114   4.210   6.378   2.041
 9423WAT    LP247115   4.162   6.359   1.939
 9424WAT     OW47116   4.674   4.574   5.609
 9424WAT    HW147117   4.608   4.549   5.545
 9424WAT    HW247118   4.678   4.501   5.670
 9424WAT    LP147119   4.736   4.585   5.578
 9424WAT    LP247120   4.654   4.633   5.642
 9425WAT     OW47121   1.727   6.409   2.376
 9425WAT    HW147122   1.654   6.464   2.407
 9425WAT    HW247123   1.743   6.439   2.287
 9425WAT    LP147124   1.783   6.418   2.416
 9425WAT    LP247125   1.708   6.342   2.377
 9426WAT     OW47126   0.430   6.237   6.405
 9426WAT    HW147127   0.446   6.268   6.494
 9426WAT    HW247128   0.487   6.292   6.350
 9426WAT    LP147129   0.447   6.170   6.398
 9426WAT    LP247130   0.363   6.246   6.387
 9427WAT     OW47131   1.014   1.937   1.656
 9427WAT    HW147132   0.993   1.873   1.724
 9427WAT    HW247133   1.052   1.885   1.585
 9427WAT    LP147134   0.956   1.969   1.634
 9427WAT    LP247135   1.060   1.984   1.679
 9428WAT     OW47136   1.058   5.341   0.216
 9428WAT    HW147137   0.981   5.398   0.220
 9428WAT    HW247138   1.072   5.314   0.307
 9428WAT    LP147139   1.045   5.285   0.175
 9428WAT    LP247140   1.113   5.375   0.191
 9429WAT     OW47141   3.986   3.441   5.145
 9429WAT    HW147142   3.994   3.517   5.203
 9429WAT    HW247143   4.050   3.379   5.178
 9429WAT    LP147144   3.921   3.414   5.149
 9429WAT    LP247145   4.000   3.459   5.079
 9430WAT     OW47146   4.787   4.901   4.615
 9430WAT    HW147147   4.820   4.951   4.540
 9430WAT    HW247148   4.853   4.834   4.631
 9430WAT    LP147149   4.780   4.943   4.671
 9430WAT    LP247150   4.725   4.872   4.600
 9431WAT     OW47151   0.102   3.118   4.969
 9431WAT    HW147152   0.076   3.190   4.911
 9431WAT    HW247153   0.158   3.159   5.034
 9431WAT    LP147154   0.046   3.089   5.000
 9431WAT    LP247155   0.137   3.069   4.933
 9432WAT     OW47156   6.667   0.785   4.175
 9432WAT    HW147157   6.572   0.793   4.180
 9432WAT    HW247158   6.692   0.852   4.110
 9432WAT    LP147159   6.697   0.799   4.236
 9432WAT    LP247160   6.686   0.722   4.153
 9433WAT     OW47161   6.157   5.890   4.804
 9433WAT    HW147162   6.063   5.904   4.820
 9433WAT    HW247163   6.201   5.933   4.878
 9433WAT    LP147164   6.171   5.821   4.803
 9433WAT    LP247165   6.176   5.918   4.743
 9434WAT     OW47166   3.792   1.744   0.337
 9434WAT    HW147167   3.823   1.655   0.354
 9434WAT    HW247168   3.767   1.778   0.423
 9434WAT    LP147169   3.843   1.783   0.310
 9434WAT    LP247170   3.737   1.744   0.294
 9435WAT     OW47171   0.062   0.526   3.390
 9435WAT    HW147172   0.049   0.556   3.300
 9435WAT    HW247173  -0.026   0.525   3.428
 9435WAT    LP147174   0.090   0.462   3.391
 9435WAT    LP247175   0.103   0.570   3.425
 9436WAT     OW47176   4.758   0.306   4.842
 9436WAT    HW147177   4.710   0.305   4.759
 9436WAT    HW247178   4.850   0.305   4.815
 9436WAT    LP147179   4.744   0.363   4.878
 9436WAT    LP247180   4.743   0.249   4.880
 9437WAT     OW47181   5.236   6.350   2.000
 9437WAT    HW147182   5.275   6.403   2.070
 9437WAT    HW247183   5.221   6.413   1.929
 9437WAT    LP147184   5.281   6.300   1.979
 9437WAT    LP247185   5.176   6.321   2.021
 9438WAT     OW47186   5.316   5.342   0.786
 9438WAT    HW147187   5.357   5.260   0.815
 9438WAT    HW247188   5.298   5.327   0.693
 9438WAT    LP147189   5.257   5.354   0.821
 9438WAT    LP247190   5.360   5.395   0.794
 9439WAT     OW47191   3.154   0.129   2.883
 9439WAT    HW147192   3.218   0.067   2.918
 9439WAT    HW247193   3.102   0.156   2.958
 9439WAT    LP147194   3.186   0.184   2.854
 9439WAT    LP247195   3.114   0.098   2.835
 9440WAT     OW47196   4.530   0.140   5.217
 9440WAT    HW147197   4.601   0.147   5.280
 9440WAT    HW247198   4.572   0.116   5.134
 9440WAT    LP147199   4.484   0.091   5.237
 9440WAT    LP247200   4.497   0.202   5.211
 9441WAT     OW47201   1.721   3.045   3.333
 9441WAT    HW147202   1.813   3.030   3.355
 9441WAT    HW247203   1.674   3.023   3.414
 9441WAT    LP147204   1.710   3.112   3.316
 9441WAT    LP247205   1.701   3.004   3.280
 9442WAT     OW47206   2.866   2.851   1.575
 9442WAT    HW147207   2.797   2.907   1.613
 9442WAT    HW247208   2.880   2.783   1.642
 9442WAT    LP147209   2.844   2.822   1.515
 9442WAT    LP247210   2.924   2.888   1.564
 9443WAT     OW47211   0.434   4.308   1.694
 9443WAT    HW147212   0.514   4.319   1.746
 9443WAT    HW247213   0.363   4.326   1.755
 9443WAT    LP147214   0.433   4.353   1.641
 9443WAT    LP247215   0.429   4.243   1.669
 9444WAT     OW47216   1.060   3.414   3.067
 9444WAT    HW147217   0.967   3.437   3.070
 9444WAT    HW247218   1.068   3.362   2.987
 9444WAT    LP147219   1.100   3.471   3.063
 9444WAT    LP247220   1.078   3.376   3.123
 9445WAT     OW47221   5.838   1.696   2.373
 9445WAT    HW147222   5.755   1.739   2.353
 9445WAT    HW247223   5.905   1.761   2.352
 9445WAT    LP147224   5.841   1.678   2.441
 9445WAT    LP247225   5.846   1.638   2.334
 9446WAT     OW47226   0.517   1.390   2.635
 9446WAT    HW147227   0.487   1.324   2.573
 9446WAT    HW247228   0.444   1.401   2.695
 9446WAT    LP147229   0.574   1.367   2.669
 9446WAT    LP247230   0.532   1.450   2.603
 9447WAT     OW47231   1.288   4.841   0.265
 9447WAT    HW147232   1.222   4.862   0.199
 9447WAT    HW247233   1.239   4.833   0.346
 9447WAT    LP147234   1.320   4.781   0.249
 9447WAT    LP247235   1.336   4.892   0.269
 9448WAT     OW47236   1.647   2.233   1.962
 9448WAT    HW147237   1.554   2.238   1.985
 9448WAT    HW247238   1.688   2.306   2.008
 9448WAT    LP147239   1.674   2.172   1.983
 9448WAT    LP247240   1.656   2.239   1.893
 9449WAT     OW47241   3.856   2.776   5.894
 9449WAT    HW147242   3.930   2.732   5.937
 9449WAT    HW247243   3.862   2.866   5.924
 9449WAT    LP147244   3.863   2.772   5.825
 9449WAT    LP247245   3.796   2.747   5.914
 9450WAT     OW47246   0.557   3.002   3.182
 9450WAT    HW147247   0.631   2.963   3.228
 9450WAT    HW247248   0.507   2.927   3.149
 9450WAT    LP147249   0.518   3.040   3.226
 9450WAT    LP247250   0.578   3.042   3.129
 9451WAT     OW47251   5.767   6.092   5.609
 9451WAT    HW147252   5.739   6.003   5.629
 9451WAT    HW247253   5.686   6.140   5.592
 9451WAT    LP147254   5.802   6.120   5.663
 9451WAT    LP247255   5.808   6.093   5.552
 9452WAT     OW47256   3.448   4.167   3.628
 9452WAT    HW147257   3.395   4.245   3.611
 9452WAT    HW247258   3.539   4.199   3.626
 9452WAT    LP147259   3.433   4.140   3.690
 9452WAT    LP247260   3.438   4.119   3.578
 9453WAT     OW47261   4.788   4.338   3.408
 9453WAT    HW147262   4.812   4.289   3.329
 9453WAT    HW247263   4.847   4.305   3.475
 9453WAT    LP147264   4.797   4.406   3.398
 9453WAT    LP247265   4.721   4.325   3.425
 9454WAT     OW47266   1.943   4.819   2.109
 9454WAT    HW147267   1.989   4.785   2.032
 9454WAT    HW247268   1.851   4.819   2.084
 9454WAT    LP147269   1.954   4.777   2.164
 9454WAT    LP247270   1.965   4.883   2.124
 9455WAT     OW47271   1.429   4.945   3.530
 9455WAT    HW147272   1.455   4.862   3.492
 9455WAT    HW247273   1.489   4.958   3.603
 9455WAT    LP147274   1.435   4.997   3.483
 9455WAT    LP247275   1.362   4.942   3.553
 9456WAT     OW47276   1.185   0.572   5.321
 9456WAT    HW147277   1.199   0.477   5.318
 9456WAT    HW247278   1.170   0.597   5.230
 9456WAT    LP147279   1.129   0.587   5.360
 9456WAT    LP247280   1.241   0.604   5.347
 9457WAT     OW47281   4.951   2.586   3.805
 9457WAT    HW147282   4.963   2.553   3.716
 9457WAT    HW247283   5.001   2.667   3.807
 9457WAT    LP147284   4.883   2.598   3.818
 9457WAT    LP247285   4.976   2.540   3.852
 9458WAT     OW47286   5.813   3.136   4.671
 9458WAT    HW147287   5.753   3.209   4.657
 9458WAT    HW247288   5.766   3.077   4.729
 9458WAT    LP147289   5.829   3.105   4.611
 9458WAT    LP247290   5.872   3.158   4.702
 9459WAT     OW47291   4.565   4.895   1.436
 9459WAT    HW147292   4.629   4.863   1.374
 9459WAT    HW247293   4.601   4.979   1.467
 9459WAT    LP147294   4.503   4.905   1.406
 9459WAT    LP247295   4.558   4.851   1.490
 9460WAT     OW47296   2.166   0.032   3.367
 9460WAT    HW147297   2.110  -0.045   3.355
 9460WAT    HW247298   2.250  -0.003   3.394
 9460WAT    LP147299   2.172   0.068   3.307
 9460WAT    LP247300   2.139   0.074   3.417
 9461WAT     OW47301   3.632   2.304   3.798
 9461WAT    HW147302   3.671   2.256   3.725
 9461WAT    HW247303   3.541   2.276   3.799
 9461WAT    LP147304   3.664   2.286   3.858
 9461WAT    LP247305   3.638   2.373   3.788
 9462WAT     OW47306   1.612   6.461   6.327
 9462WAT    HW147307   1.683   6.420   6.278
 9462WAT    HW247308   1.557   6.388   6.356
 9462WAT    LP147309   1.637   6.496   6.382
 9462WAT    LP247310   1.576   6.505   6.286
 9463WAT     OW47311   5.921   6.630   1.889
 9463WAT    HW147312   5.964   6.601   1.970
 9463WAT    HW247313   5.988   6.679   1.843
 9463WAT    LP147314   5.900   6.574   1.851
 9463WAT    LP247315   5.865   6.670   1.904
 9464WAT     OW47316   5.566   5.370   2.885
 9464WAT    HW147317   5.643   5.421   2.859
 9464WAT    HW247318   5.583   5.345   2.976
 9464WAT    LP147319   5.508   5.409   2.881
 9464WAT    LP247320   5.559   5.314   2.845
 9465WAT     OW47321   2.820   5.638   4.408
 9465WAT    HW147322   2.837   5.576   4.337
 9465WAT    HW247323   2.889   5.620   4.472
 9465WAT    LP147324   2.823   5.704   4.385
 9465WAT    LP247325   2.757   5.626   4.437
 9466WAT     OW47326   3.982   0.322   6.643
 9466WAT    HW147327   3.891   0.351   6.636
 9466WAT    HW247328   3.981   0.257   6.712
 9466WAT    LP147329   4.003   0.294   6.583
 9466WAT    LP247330   4.024   0.376   6.659
 9467WAT     OW47331   1.352   0.249   4.599
 9467WAT    HW147332   1.283   0.209   4.546
 9467WAT    HW247333   1.406   0.297   4.536
 9467WAT    LP147334   1.324   0.293   4.646
 9467WAT    LP247335   1.390   0.200   4.632
 9468WAT     OW47336   0.582   5.173   4.105
 9468WAT    HW147337   0.527   5.243   4.140
 9468WAT    HW247338   0.606   5.204   4.018
 9468WAT    LP147339   0.639   5.164   4.144
 9468WAT    LP247340   0.547   5.113   4.101
 9469WAT     OW47341   4.422   4.183   2.068
 9469WAT    HW147342   4.498   4.227   2.030
 9469WAT    HW247343   4.382   4.250   2.124
 9469WAT    LP147344   4.377   4.163   2.018
 9469WAT    LP247345   4.441   4.127   2.105
 9470WAT     OW47346   0.186   6.148   6.500
 9470WAT    HW147347   0.260   6.178   6.447
 9470WAT    HW247348   0.225   6.085   6.560
 9470WAT    LP147349   0.157   6.201   6.534
 9470WAT    LP247350   0.138   6.117   6.459
 9471WAT     OW47351   0.427   4.020   5.952
 9471WAT    HW147352   0.355   4.054   6.006
 9471WAT    HW247353   0.403   4.044   5.863
 9471WAT    LP147354   0.488   4.048   5.970
 9471WAT    LP247355   0.431   3.950   5.958
 9472WAT     OW47356   2.977   1.763   3.664
 9472WAT    HW147357   3.022   1.839   3.627
 9472WAT    HW247358   3.046   1.699   3.679
 9472WAT    LP147359   2.944   1.779   3.723
 9472WAT    LP247360   2.930   1.738   3.618
 9473WAT     OW47361   5.781   4.496   2.796
 9473WAT    HW147362   5.858   4.471   2.847
 9473WAT    HW247363   5.726   4.544   2.859
 9473WAT    LP147364   5.799   4.538   2.743
 9473WAT    LP247365   5.747   4.440   2.772
 9474WAT     OW47366   6.707   5.887   0.599
 9474WAT    HW147367   6.742   5.912   0.514
 9474WAT    HW247368   6.620   5.926   0.603
 9474WAT    LP147369   6.703   5.817   0.605
 9474WAT    LP247370   6.748   5.912   0.651
 9475WAT     OW47371   1.920   4.817   4.628
 9475WAT    HW147372   1.892   4.740   4.678
 9475WAT    HW247373   1.937   4.883   4.694
 9475WAT    LP147374   1.978   4.802   4.592
 9475WAT    LP247375   1.870   4.837   4.584
 9476WAT     OW47376   2.363   4.538   2.978
 9476WAT    HW147377   2.278   4.531   2.934
 9476WAT    HW247378   2.413   4.599   2.924
 9476WAT    LP147379   2.355   4.563   3.043
 9476WAT    LP247380   2.394   4.476   2.980
 9477WAT     OW47381   1.133   2.586   1.517
 9477WAT    HW147382   1.130   2.567   1.610
 9477WAT    HW247383   1.193   2.660   1.509
 9477WAT    LP147384   1.157   2.531   1.481
 9477WAT    LP247385   1.069   2.603   1.493
 9478WAT     OW47386   5.681   4.078   3.500
 9478WAT    HW147387   5.678   4.009   3.566
 9478WAT    HW247388   5.600   4.128   3.512
 9478WAT    LP147389   5.736   4.120   3.509
 9478WAT    LP247390   5.683   4.051   3.435
 9479WAT     OW47391   5.253   0.346   5.515
 9479WAT    HW147392   5.268   0.277   5.579
 9479WAT    HW247393   5.337   0.392   5.508
 9479WAT    LP147394   5.235   0.319   5.453
 9479WAT    LP247395   5.202   0.390   5.536
 9480WAT     OW47396   2.731   3.449   6.360
 9480WAT    HW147397   2.684   3.374   6.323
 9480WAT    HW247398   2.816   3.447   6.317
 9480WAT    LP147399   2.697   3.509   6.346
 9480WAT    LP247400   2.738   3.442   6.429
 9481WAT     OW47401   3.870   6.274   1.032
 9481WAT    HW147402   3.952   6.294   0.988
 9481WAT    HW247403   3.803   6.292   0.966
 9481WAT    LP147404   3.868   6.206   1.051
 9481WAT    LP247405   3.861   6.314   1.088
 9482WAT     OW47406   2.462   1.284   2.961
 9482WAT    HW147407   2.542   1.330   2.985
 9482WAT    HW247408   2.438   1.234   3.039
 9482WAT    LP147409   2.411   1.330   2.944
 9482WAT    LP247410   2.473   1.241   2.906
 9483WAT     OW47411   5.649   0.360   6.472
 9483WAT    HW147412   5.693   0.317   6.399
 9483WAT    HW247413   5.712   0.354   6.544
 9483WAT    LP147414   5.635   0.427   6.458
 9483WAT    LP247415   5.590   0.327   6.488
 9484WAT     OW47416   4.082   5.097   5.283
 9484WAT    HW147417   4.009   5.116   5.342
 9484WAT    HW247418   4.156   5.080   5.342
 9484WAT    LP147419   4.068   5.041   5.244
 9484WAT    LP247420   4.096   5.152   5.242
 9485WAT     OW47421   4.630   3.399   0.512
 9485WAT    HW147422   4.671   3.315   0.534
 9485WAT    HW247423   4.702   3.452   0.477
 9485WAT    LP147424   4.580   3.391   0.464
 9485WAT    LP247425   4.603   3.429   0.569
 9486WAT     OW47426   0.424   0.868   2.618
 9486WAT    HW147427   0.502   0.842   2.667
 9486WAT    HW247428   0.389   0.943   2.666
 9486WAT    LP147429   0.440   0.885   2.552
 9486WAT    LP247430   0.377   0.815   2.617
 9487WAT     OW47431   5.269   3.431   6.351
 9487WAT    HW147432   5.333   3.490   6.392
 9487WAT    HW247433   5.188   3.446   6.399
 9487WAT    LP147434   5.261   3.447   6.283
 9487WAT    LP247435   5.289   3.365   6.357
 9488WAT     OW47436   0.823   1.547   5.843
 9488WAT    HW147437   0.785   1.543   5.755
 9488WAT    HW247438   0.758   1.504   5.898
 9488WAT    LP147439   0.884   1.513   5.846
 9488WAT    LP247440   0.832   1.614   5.863
 9489WAT     OW47441   4.545   5.226   5.431
 9489WAT    HW147442   4.562   5.184   5.346
 9489WAT    HW247443   4.571   5.317   5.418
 9489WAT    LP147444   4.477   5.222   5.447
 9489WAT    LP247445   4.582   5.196   5.481
 9490WAT     OW47446   4.363   4.854   5.642
 9490WAT    HW147447   4.337   4.791   5.574
 9490WAT    HW247448   4.349   4.807   5.725
 9490WAT    LP147449   4.430   4.871   5.635
 9490WAT    LP247450   4.324   4.911   5.640
 9491WAT     OW47451   5.162   5.649   4.090
 9491WAT    HW147452   5.078   5.660   4.046
 9491WAT    HW247453   5.143   5.665   4.183
 9491WAT    LP147454   5.186   5.584   4.081
 9491WAT    LP247455   5.208   5.696   4.067
 9492WAT     OW47456   5.581   5.275   6.340
 9492WAT    HW147457   5.541   5.198   6.381
 9492WAT    HW247458   5.568   5.345   6.404
 9492WAT    LP147459   5.650   5.264   6.329
 9492WAT    LP247460   5.550   5.290   6.280
 9493WAT     OW47461   0.110   4.063   4.129
 9493WAT    HW147462   0.182   4.064   4.066
 9493WAT    HW247463   0.075   4.152   4.128
 9493WAT    LP147464   0.060   4.017   4.110
 9493WAT    LP247465   0.133   4.047   4.193
 9494WAT     OW47466   5.833   1.908   3.330
 9494WAT    HW147467   5.906   1.971   3.335
 9494WAT    HW247468   5.825   1.873   3.418
 9494WAT    LP147469   5.774   1.941   3.311
 9494WAT    LP247470   5.847   1.858   3.284
 9495WAT     OW47471   3.431   2.515   6.226
 9495WAT    HW147472   3.515   2.562   6.233
 9495WAT    HW247473   3.432   2.477   6.138
 9495WAT    LP147474   3.427   2.465   6.275
 9495WAT    LP247475   3.378   2.559   6.234
 9496WAT     OW47476   4.141   2.827   2.782
 9496WAT    HW147477   4.191   2.817   2.863
 9496WAT    HW247478   4.058   2.782   2.799
 9496WAT    LP147479   4.130   2.895   2.769
 9496WAT    LP247480   4.175   2.798   2.729
 9497WAT     OW47481   3.546   4.483   3.779
 9497WAT    HW147482   3.616   4.501   3.716
 9497WAT    HW247483   3.574   4.403   3.824
 9497WAT    LP147484   3.539   4.535   3.824
 9497WAT    LP247485   3.485   4.472   3.746
 9498WAT     OW47486   5.569   1.030   3.033
 9498WAT    HW147487   5.561   1.083   3.112
 9498WAT    HW247488   5.582   1.093   2.963
 9498WAT    LP147489   5.624   0.987   3.039
 9498WAT    LP247490   5.511   0.992   3.023
 9499WAT     OW47491   4.445   6.613   6.090
 9499WAT    HW147492   4.511   6.681   6.072
 9499WAT    HW247493   4.463   6.545   6.025
 9499WAT    LP147494   4.452   6.588   6.155
 9499WAT    LP247495   4.380   6.638   6.082
 9500WAT     OW47496   5.383   3.255   5.738
 9500WAT    HW147497   5.402   3.319   5.806
 9500WAT    HW247498   5.347   3.307   5.666
 9500WAT    LP147499   5.441   3.222   5.718
 9500WAT    LP247500   5.336   3.208   5.761
 9501WAT     OW47501   1.162   5.439   5.067
 9501WAT    HW147502   1.219   5.494   5.120
 9501WAT    HW247503   1.103   5.500   5.023
 9501WAT    LP147504   1.199   5.403   5.020
 9501WAT    LP247505   1.126   5.395   5.107
 9502WAT     OW47506   4.617   2.267   2.918
 9502WAT    HW147507   4.687   2.255   2.854
 9502WAT    HW247508   4.553   2.199   2.897
 9502WAT    LP147509   4.642   2.259   2.983
 9502WAT    LP247510   4.589   2.331   2.911
 9503WAT     OW47511   2.188   5.890   5.081
 9503WAT    HW147512   2.124   5.954   5.112
 9503WAT    HW247513   2.167   5.876   4.989
 9503WAT    LP147514   2.253   5.915   5.088
 9503WAT    LP247515   2.183   5.830   5.117
 9504WAT     OW47516   2.022   6.484   3.330
 9504WAT    HW147517   2.055   6.448   3.412
 9504WAT    HW247518   2.052   6.423   3.263
 9504WAT    LP147519   1.953   6.488   3.331
 9504WAT    LP247520   2.049   6.548   3.319
 9505WAT     OW47521   4.049   3.420   1.980
 9505WAT    HW147522   4.044   3.496   1.921
 9505WAT    HW247523   3.958   3.398   2.000
 9505WAT    LP147524   4.081   3.366   1.948
 9505WAT    LP247525   4.084   3.437   2.038
 9506WAT     OW47526   4.040   4.043   0.866
 9506WAT    HW147527   4.084   4.059   0.949
 9506WAT    HW247528   4.004   4.128   0.840
 9506WAT    LP147529   4.085   4.020   0.818
 9506WAT    LP247530   3.988   3.996   0.873
 9507WAT     OW47531   6.405   4.565   1.616
 9507WAT    HW147532   6.353   4.602   1.687
 9507WAT    HW247533   6.478   4.627   1.605
 9507WAT    LP147534   6.429   4.501   1.632
 9507WAT    LP247535   6.367   4.561   1.557
 9508WAT     OW47536   4.670   0.575   4.534
 9508WAT    HW147537   4.645   0.631   4.608
 9508WAT    HW247538   4.623   0.612   4.460
 9508WAT    LP147539   4.739   0.578   4.524
 9508WAT    LP247540   4.650   0.509   4.546
 9509WAT     OW47541   4.484   1.282   4.880
 9509WAT    HW147542   4.545   1.242   4.943
 9509WAT    HW247543   4.504   1.240   4.797
 9509WAT    LP147544   4.417   1.269   4.899
 9509WAT    LP247545   4.493   1.351   4.876
 9510WAT     OW47546   0.095   6.318   4.350
 9510WAT    HW147547   0.105   6.414   4.345
 9510WAT    HW247548   0.073   6.292   4.260
 9510WAT    LP147549   0.155   6.289   4.370
 9510WAT    LP247550   0.044   6.301   4.394
 9511WAT     OW47551   5.342   1.326   1.579
 9511WAT    HW147552   5.407   1.345   1.512
 9511WAT    HW247553   5.278   1.269   1.536
 9511WAT    LP147554   5.371   1.293   1.634
 9511WAT    LP247555   5.311   1.385   1.601
 9512WAT     OW47556   0.884   3.691   3.716
 9512WAT    HW147557   0.972   3.652   3.717
 9512WAT    HW247558   0.826   3.620   3.689
 9512WAT    LP147559   0.867   3.714   3.780
 9512WAT    LP247560   0.882   3.745   3.671
 9513WAT     OW47561   4.923   5.604   1.293
 9513WAT    HW147562   4.835   5.572   1.309
 9513WAT    HW247563   4.976   5.525   1.282
 9513WAT    LP147564   4.925   5.643   1.235
 9513WAT    LP247565   4.946   5.642   1.347
 9514WAT     OW47566   6.557   3.521   2.122
 9514WAT    HW147567   6.628   3.570   2.081
 9514WAT    HW247568   6.496   3.588   2.153
 9514WAT    LP147569   6.526   3.479   2.076
 9514WAT    LP247570   6.581   3.483   2.176
 9515WAT     OW47571   2.387   0.587   4.430
 9515WAT    HW147572   2.436   0.511   4.401
 9515WAT    HW247573   2.306   0.584   4.379
 9515WAT    LP147574   2.373   0.583   4.499
 9515WAT    LP247575   2.422   0.646   4.417
 9516WAT     OW47576   2.593   6.554   3.703
 9516WAT    HW147577   2.606   6.470   3.748
 9516WAT    HW247578   2.633   6.618   3.762
 9516WAT    LP147579   2.626   6.554   3.641
 9516WAT    LP247580   2.525   6.567   3.694
 9517WAT     OW47581   5.297   4.437   4.624
 9517WAT    HW147582   5.308   4.505   4.691
 9517WAT    HW247583   5.374   4.380   4.635
 9517WAT    LP147584   5.238   4.401   4.634
 9517WAT    LP247585   5.297   4.465   4.560
 9518WAT     OW47586   0.793   2.178   0.399
 9518WAT    HW147587   0.712   2.150   0.356
 9518WAT    HW247588   0.808   2.267   0.368
 9518WAT    LP147589   0.785   2.177   0.469
 9518WAT    LP247590   0.846   2.136   0.381
 9519WAT     OW47591   6.477   0.372   2.049
 9519WAT    HW147592   6.528   0.453   2.057
 9519WAT    HW247593   6.404   0.395   1.992
 9519WAT    LP147594   6.516   0.321   2.021
 9519WAT    LP247595   6.454   0.352   2.112
 9520WAT     OW47596   4.984   1.209   2.331
 9520WAT    HW147597   4.923   1.184   2.400
 9520WAT    HW247598   4.955   1.296   2.304
 9520WAT    LP147599   5.050   1.212   2.356
 9520WAT    LP247600   4.982   1.165   2.277
 9521WAT     OW47601   1.647   1.279   0.132
 9521WAT    HW147602   1.716   1.296   0.068
 9521WAT    HW247603   1.569   1.260   0.080
 9521WAT    LP147604   1.664   1.223   0.172
 9521WAT    LP247605   1.637   1.334   0.173
 9522WAT     OW47606   5.467   2.470   5.425
 9522WAT    HW147607   5.405   2.503   5.491
 9522WAT    HW247608   5.540   2.436   5.476
 9522WAT    LP147609   5.438   2.419   5.387
 9522WAT    LP247610   5.488   2.522   5.383
 9523WAT     OW47611   2.559   1.294   3.490
 9523WAT    HW147612   2.610   1.273   3.569
 9523WAT    HW247613   2.618   1.348   3.438
 9523WAT    LP147614   2.541   1.236   3.456
 9523WAT    LP247615   2.501   1.330   3.508
 9524WAT     OW47616   1.561   4.158   4.521
 9524WAT    HW147617   1.629   4.204   4.472
 9524WAT    HW247618   1.591   4.157   4.611
 9524WAT    LP147619   1.500   4.192   4.515
 9524WAT    LP247620   1.553   4.092   4.497
 9525WAT     OW47621   3.336   5.013   0.803
 9525WAT    HW147622   3.325   4.951   0.730
 9525WAT    HW247623   3.407   4.975   0.855
 9525WAT    LP147624   3.354   5.076   0.779
 9525WAT    LP247625   3.277   5.017   0.840
 9526WAT     OW47626   4.023   1.189   0.318
 9526WAT    HW147627   4.113   1.219   0.308
 9526WAT    HW247628   3.971   1.252   0.269
 9526WAT    LP147629   4.015   1.124   0.291
 9526WAT    LP247630   4.004   1.188   0.385
 9527WAT     OW47631   3.296   1.117   4.529
 9527WAT    HW147632   3.213   1.106   4.481
 9527WAT    HW247633   3.284   1.066   4.610
 9527WAT    LP147634   3.349   1.092   4.492
 9527WAT    LP247635   3.307   1.184   4.544
 9528WAT     OW47636   5.098   4.547   1.027
 9528WAT    HW147637   5.041   4.476   0.998
 9528WAT    HW247638   5.060   4.626   0.989
 9528WAT    LP147639   5.099   4.551   1.097
 9528WAT    LP247640   5.164   4.537   1.004
 9529WAT     OW47641   1.570   5.861   3.085
 9529WAT    HW147642   1.554   5.800   3.158
 9529WAT    HW247643   1.665   5.871   3.083
 9529WAT    LP147644   1.547   5.833   3.025
 9529WAT    LP247645   1.539   5.922   3.097
 9530WAT     OW47646   5.633   3.466   2.933
 9530WAT    HW147647   5.642   3.375   2.961
 9530WAT    HW247648   5.557   3.465   2.874
 9530WAT    LP147649   5.621   3.507   2.987
 9530WAT    LP247650   5.690   3.487   2.898
 9531WAT     OW47651   2.326   2.161   6.627
 9531WAT    HW147652   2.354   2.200   6.544
 9531WAT    HW247653   2.315   2.068   6.607
 9531WAT    LP147654   2.375   2.170   6.676
 9531WAT    LP247655   2.266   2.189   6.648
 9532WAT     OW47656   0.276   3.738   2.894
 9532WAT    HW147657   0.320   3.668   2.845
 9532WAT    HW247658   0.227   3.787   2.827
 9532WAT    LP147659   0.233   3.712   2.942
 9532WAT    LP247660   0.323   3.779   2.925
 9533WAT     OW47661   3.833   1.872   4.796
 9533WAT    HW147662   3.843   1.903   4.886
 9533WAT    HW247663   3.829   1.952   4.743
 9533WAT    LP147664   3.888   1.833   4.777
 9533WAT    LP247665   3.774   1.835   4.789
 9534WAT     OW47666   0.717   5.479   6.448
 9534WAT    HW147667   0.749   5.524   6.526
 9534WAT    HW247668   0.624   5.467   6.463
 9534WAT    LP147669   0.728   5.517   6.390
 9534WAT    LP247670   0.749   5.417   6.441
 9535WAT     OW47671   6.358   0.363   4.592
 9535WAT    HW147672   6.329   0.273   4.603
 9535WAT    HW247673   6.286   0.406   4.545
 9535WAT    LP147674   6.368   0.394   4.654
 9535WAT    LP247675   6.417   0.366   4.554
 9536WAT     OW47676   2.149   4.945   5.035
 9536WAT    HW147677   2.194   4.949   4.951
 9536WAT    HW247678   2.080   4.879   5.022
 9536WAT    LP147679   2.193   4.925   5.086
 9536WAT    LP247680   2.121   5.007   5.051
 9537WAT     OW47681   6.228   2.930   4.538
 9537WAT    HW147682   6.275   2.975   4.468
 9537WAT    HW247683   6.136   2.956   4.525
 9537WAT    LP147684   6.235   2.861   4.532
 9537WAT    LP247685   6.250   2.951   4.601
 9538WAT     OW47686   2.522   3.534   2.945
 9538WAT    HW147687   2.449   3.593   2.931
 9538WAT    HW247688   2.555   3.516   2.857
 9538WAT    LP147689   2.572   3.564   2.984
 9538WAT    LP247690   2.501   3.475   2.976
 9539WAT     OW47691   2.622   5.333   6.171
 9539WAT    HW147692   2.643   5.254   6.221
 9539WAT    HW247693   2.699   5.389   6.181
 9539WAT    LP147694   2.612   5.317   6.103
 9539WAT    LP247695   2.565   5.364   6.196
 9540WAT     OW47696   3.322   1.249   5.053
 9540WAT    HW147697   3.286   1.291   5.132
 9540WAT    HW247698   3.308   1.313   4.983
 9540WAT    LP147699   3.390   1.236   5.061
 9540WAT    LP247700   3.288   1.190   5.039
 9541WAT     OW47701   4.135   0.782   0.332
 9541WAT    HW147702   4.110   0.737   0.412
 9541WAT    HW247703   4.169   0.712   0.275
 9541WAT    LP147704   4.080   0.813   0.302
 9541WAT    LP247705   4.185   0.829   0.345
 9542WAT     OW47706   0.707   5.932   3.207
 9542WAT    HW147707   0.689   5.979   3.126
 9542WAT    HW247708   0.756   5.854   3.179
 9542WAT    LP147709   0.745   5.971   3.251
 9542WAT    LP247710   0.647   5.913   3.239
 9543WAT     OW47711   0.644   3.691   6.148
 9543WAT    HW147712   0.619   3.660   6.235
 9543WAT    HW247713   0.563   3.686   6.097
 9543WAT    LP147714   0.667   3.758   6.151
 9543WAT    LP247715   0.694   3.651   6.120
 9544WAT     OW47716   6.425   2.329   2.420
 9544WAT    HW147717   6.435   2.254   2.478
 9544WAT    HW247718   6.508   2.336   2.374
 9544WAT    LP147719   6.372   2.319   2.375
 9544WAT    LP247720   6.413   2.388   2.457
 9545WAT     OW47721   3.313   0.303   2.056
 9545WAT    HW147722   3.323   0.209   2.071
 9545WAT    HW247723   3.256   0.333   2.127
 9545WAT    LP147724   3.375   0.336   2.059
 9545WAT    LP247725   3.283   0.315   1.994
 9546WAT     OW47726   1.955   2.248   2.632
 9546WAT    HW147727   1.975   2.157   2.655
 9546WAT    HW247728   2.040   2.286   2.610
 9546WAT    LP147729   1.912   2.250   2.577
 9546WAT    LP247730   1.926   2.282   2.686
 9547WAT     OW47731   5.809   0.389   4.935
 9547WAT    HW147732   5.757   0.328   4.883
 9547WAT    HW247733   5.770   0.475   4.918
 9547WAT    LP147734   5.805   0.373   5.003
 9547WAT    LP247735   5.876   0.388   4.914
 9548WAT     OW47736   6.253   5.036   3.689
 9548WAT    HW147737   6.160   5.056   3.682
 9548WAT    HW247738   6.293   5.083   3.615
 9548WAT    LP147739   6.279   5.059   3.750
 9548WAT    LP247740   6.264   4.967   3.683
 9549WAT     OW47741   5.457   2.013   5.640
 9549WAT    HW147742   5.485   2.060   5.719
 9549WAT    HW247743   5.532   1.957   5.618
 9549WAT    LP147744   5.400   1.975   5.652
 9549WAT    LP247745   5.444   2.058   5.588
 9550WAT     OW47746   0.275   3.312   0.278
 9550WAT    HW147747   0.220   3.250   0.326
 9550WAT    HW247748   0.301   3.377   0.343
 9550WAT    LP147749   0.331   3.279   0.252
 9550WAT    LP247750   0.239   3.342   0.226
 9551WAT     OW47751   2.604   2.707   0.952
 9551WAT    HW147752   2.560   2.673   0.875
 9551WAT    HW247753   2.657   2.634   0.983
 9551WAT    LP147754   2.645   2.762   0.936
 9551WAT    LP247755   2.558   2.726   1.001
 9552WAT     OW47756   6.031   2.121   5.765
 9552WAT    HW147757   6.121   2.113   5.733
 9552WAT    HW247758   6.022   2.213   5.789
 9552WAT    LP147759   5.985   2.105   5.714
 9552WAT    LP247760   6.020   2.080   5.820
 9553WAT     OW47761   5.027   4.259   3.527
 9553WAT    HW147762   5.064   4.343   3.555
 9553WAT    HW247763   5.091   4.225   3.465
 9553WAT    LP147764   5.019   4.216   3.581
 9553WAT    LP247765   4.965   4.269   3.495
 9554WAT     OW47766   0.514   4.134   3.162
 9554WAT    HW147767   0.567   4.095   3.231
 9554WAT    HW247768   0.463   4.061   3.126
 9554WAT    LP147769   0.471   4.184   3.188
 9554WAT    LP247770   0.555   4.163   3.113
 9555WAT     OW47771   0.781   3.918   0.008
 9555WAT    HW147772   0.806   4.002  -0.030
 9555WAT    HW247773   0.857   3.862  -0.005
 9555WAT    LP147774   0.767   3.926   0.076
 9555WAT    LP247775   0.725   3.892  -0.024
 9556WAT     OW47776   4.265   0.827   4.028
 9556WAT    HW147777   4.225   0.765   4.087
 9556WAT    HW247778   4.353   0.793   4.013
 9556WAT    LP147779   4.230   0.831   3.968
 9556WAT    LP247780   4.268   0.891   4.057
 9557WAT     OW47781   2.019   1.272   3.375
 9557WAT    HW147782   2.046   1.186   3.407
 9557WAT    HW247783   1.958   1.252   3.304
 9557WAT    LP147784   1.988   1.309   3.426
 9557WAT    LP247785   2.075   1.307   3.351
 9558WAT     OW47786   5.147   1.683   4.808
 9558WAT    HW147787   5.120   1.709   4.896
 9558WAT    HW247788   5.069   1.698   4.754
 9558WAT    LP147789   5.200   1.722   4.786
 9558WAT    LP247790   5.165   1.616   4.806
 9559WAT     OW47791   0.782   5.194   4.309
 9559WAT    HW147792   0.690   5.191   4.282
 9559WAT    HW247793   0.826   5.137   4.246
 9559WAT    LP147794   0.807   5.259   4.304
 9559WAT    LP247795   0.790   5.171   4.374
 9560WAT     OW47796   0.758   1.933   1.157
 9560WAT    HW147797   0.816   1.886   1.098
 9560WAT    HW247798   0.753   2.022   1.120
 9560WAT    LP147799   0.695   1.904   1.159
 9560WAT    LP247800   0.785   1.935   1.222
 9561WAT     OW47801   4.164   4.946   1.472
 9561WAT    HW147802   4.097   4.911   1.532
 9561WAT    HW247803   4.115   5.004   1.414
 9561WAT    LP147804   4.212   4.981   1.508
 9561WAT    LP247805   4.194   4.894   1.436
 9562WAT     OW47806   0.522   2.189   4.820
 9562WAT    HW147807   0.593   2.194   4.883
 9562WAT    HW247808   0.565   2.188   4.734
 9562WAT    LP147809   0.484   2.131   4.829
 9562WAT    LP247810   0.480   2.245   4.825
 9563WAT     OW47811   6.161   6.214   5.626
 9563WAT    HW147812   6.100   6.248   5.691
 9563WAT    HW247813   6.216   6.152   5.674
 9563WAT    LP147814   6.126   6.181   5.575
 9563WAT    LP247815   6.199   6.265   5.598
 9564WAT     OW47816   4.639   0.207   0.288
 9564WAT    HW147817   4.635   0.226   0.194
 9564WAT    HW247818   4.556   0.165   0.308
 9564WAT    LP147819   4.692   0.163   0.301
 9564WAT    LP247820   4.648   0.266   0.324
 9565WAT     OW47821   5.060   0.920   6.013
 9565WAT    HW147822   4.965   0.919   6.001
 9565WAT    HW247823   5.081   1.011   6.031
 9565WAT    LP147824   5.078   0.879   6.068
 9565WAT    LP247825   5.092   0.898   5.956
 9566WAT     OW47826   6.437   3.080   1.589
 9566WAT    HW147827   6.449   2.989   1.617
 9566WAT    HW247828   6.413   3.073   1.497
 9566WAT    LP147829   6.386   3.110   1.626
 9566WAT    LP247830   6.496   3.116   1.597
 9567WAT     OW47831   3.716   4.227   3.574
 9567WAT    HW147832   3.726   4.133   3.559
 9567WAT    HW247833   3.804   4.257   3.598
 9567WAT    LP147834   3.694   4.260   3.516
 9567WAT    LP247835   3.671   4.239   3.627
 9568WAT     OW47836   2.926   4.117   5.675
 9568WAT    HW147837   2.868   4.177   5.628
 9568WAT    HW247838   2.983   4.081   5.607
 9568WAT    LP147839   2.963   4.151   5.723
 9568WAT    LP247840   2.889   4.066   5.706
 9569WAT     OW47841   2.838   4.023   4.387
 9569WAT    HW147842   2.830   3.941   4.435
 9569WAT    HW247843   2.911   4.069   4.430
 9569WAT    LP147844   2.853   4.012   4.320
 9569WAT    LP247845   2.779   4.061   4.392
 9570WAT     OW47846   5.414   3.473   5.913
 9570WAT    HW147847   5.339   3.476   5.972
 9570WAT    HW247848   5.434   3.565   5.894
 9570WAT    LP147849   5.469   3.442   5.944
 9570WAT    LP247850   5.398   3.439   5.854
 9571WAT     OW47851   0.062   3.147   0.034
 9571WAT    HW147852   0.122   3.089   0.080
 9571WAT    HW247853   0.033   3.210   0.100
 9571WAT    LP147854   0.095   3.180  -0.018
 9571WAT    LP247855   0.008   3.112   0.008
 9572WAT     OW47856   1.108   4.833   5.263
 9572WAT    HW147857   1.050   4.814   5.337
 9572WAT    HW247858   1.179   4.884   5.302
 9572WAT    LP147859   1.133   4.774   5.235
 9572WAT    LP247860   1.075   4.870   5.214
 9573WAT     OW47861   2.570   6.060   1.071
 9573WAT    HW147862   2.550   5.967   1.061
 9573WAT    HW247863   2.504   6.092   1.133
 9573WAT    LP147864   2.634   6.069   1.097
 9573WAT    LP247865   2.564   6.094   1.010
 9574WAT     OW47866   0.083   0.886   6.559
 9574WAT    HW147867   0.068   0.818   6.493
 9574WAT    HW247868   0.153   0.940   6.522
 9574WAT    LP147869   0.025   0.924   6.568
 9574WAT    LP247870   0.102   0.857   6.620
 9575WAT     OW47871   4.976   4.109   6.025
 9575WAT    HW147872   5.070   4.096   6.010
 9575WAT    HW247873   4.948   4.165   5.953
 9575WAT    LP147874   4.942   4.048   6.024
 9575WAT    LP247875   4.965   4.140   6.087
 9576WAT     OW47876   5.392   3.840   6.495
 9576WAT    HW147877   5.300   3.834   6.468
 9576WAT    HW247878   5.431   3.759   6.463
 9576WAT    LP147879   5.423   3.895   6.466
 9576WAT    LP247880   5.397   3.844   6.565
 9577WAT     OW47881   2.266   5.159   1.080
 9577WAT    HW147882   2.219   5.172   0.998
 9577WAT    HW247883   2.205   5.190   1.147
 9577WAT    LP147884   2.281   5.091   1.090
 9577WAT    LP247885   2.325   5.196   1.081
 9578WAT     OW47886   3.985   4.531   4.019
 9578WAT    HW147887   3.906   4.512   4.070
 9578WAT    HW247888   4.054   4.541   4.085
 9578WAT    LP147889   4.000   4.479   3.975
 9578WAT    LP247890   3.977   4.591   3.983
 9579WAT     OW47891   3.419   6.506   2.497
 9579WAT    HW147892   3.335   6.551   2.489
 9579WAT    HW247893   3.443   6.515   2.589
 9579WAT    LP147894   3.414   6.439   2.480
 9579WAT    LP247895   3.467   6.537   2.456
 9580WAT     OW47896   4.010   5.981   1.812
 9580WAT    HW147897   4.019   5.905   1.869
 9580WAT    HW247898   3.917   5.985   1.791
 9580WAT    LP147899   4.030   6.039   1.845
 9580WAT    LP247900   4.048   5.973   1.753
 9581WAT     OW47901   1.083   3.131   3.465
 9581WAT    HW147902   1.113   3.208   3.417
 9581WAT    HW247903   0.989   3.145   3.475
 9581WAT    LP147904   1.096   3.073   3.429
 9581WAT    LP247905   1.114   3.127   3.528
 9582WAT     OW47906   0.334   6.128   2.670
 9582WAT    HW147907   0.378   6.048   2.640
 9582WAT    HW247908   0.265   6.097   2.729
 9582WAT    LP147909   0.379   6.170   2.703
 9582WAT    LP247910   0.306   6.163   2.615
 9583WAT     OW47911   2.577   2.030   2.209
 9583WAT    HW147912   2.576   1.981   2.292
 9583WAT    HW247913   2.542   1.968   2.145
 9583WAT    LP147914   2.537   2.087   2.214
 9583WAT    LP247915   2.642   2.048   2.192
 9584WAT     OW47916   1.073   0.049   1.646
 9584WAT    HW147917   1.165   0.058   1.672
 9584WAT    HW247918   1.024   0.069   1.726
 9584WAT    LP147919   1.057   0.093   1.595
 9584WAT    LP247920   1.061  -0.017   1.625
 9585WAT     OW47921   3.513   6.601   0.081
 9585WAT    HW147922   3.506   6.506   0.081
 9585WAT    HW247923   3.605   6.618   0.059
 9585WAT    LP147924   3.471   6.629   0.033
 9585WAT    LP247925   3.498   6.628   0.144
 9586WAT     OW47926   6.009   5.858   5.942
 9586WAT    HW147927   6.011   5.953   5.956
 9586WAT    HW247928   5.925   5.830   5.979
 9586WAT    LP147929   6.011   5.843   5.874
 9586WAT    LP247930   6.062   5.827   5.975
 9587WAT     OW47931   6.284   0.619   1.633
 9587WAT    HW147932   6.262   0.706   1.601
 9587WAT    HW247933   6.204   0.568   1.623
 9587WAT    LP147934   6.337   0.591   1.596
 9587WAT    LP247935   6.303   0.622   1.701
 9588WAT     OW47936   2.764   5.528   1.204
 9588WAT    HW147937   2.691   5.472   1.230
 9588WAT    HW247938   2.741   5.615   1.237
 9588WAT    LP147939   2.824   5.506   1.232
 9588WAT    LP247940   2.770   5.529   1.134
 9589WAT     OW47941   6.223   2.299   0.804
 9589WAT    HW147942   6.149   2.297   0.743
 9589WAT    HW247943   6.270   2.379   0.782
 9589WAT    LP147944   6.201   2.300   0.870
 9589WAT    LP247945   6.264   2.243   0.794
 9590WAT     OW47946   2.996   5.503   3.409
 9590WAT    HW147947   3.082   5.461   3.413
 9590WAT    HW247948   2.939   5.437   3.369
 9590WAT    LP147949   2.973   5.518   3.474
 9590WAT    LP247950   2.998   5.561   3.371
 9591WAT     OW47951   3.630   4.531   0.453
 9591WAT    HW147952   3.562   4.468   0.476
 9591WAT    HW247953   3.631   4.531   0.357
 9591WAT    LP147954   3.614   4.594   0.478
 9591WAT    LP247955   3.692   4.511   0.478
 9592WAT     OW47956   3.719   4.245   1.582
 9592WAT    HW147957   3.641   4.202   1.618
 9592WAT    HW247958   3.739   4.194   1.503
 9592WAT    LP147959   3.705   4.311   1.565
 9592WAT    LP247960   3.772   4.243   1.627
 9593WAT     OW47961   6.699   3.063   2.270
 9593WAT    HW147962   6.681   3.157   2.269
 9593WAT    HW247963   6.625   3.024   2.223
 9593WAT    LP147964   6.759   3.050   2.238
 9593WAT    LP247965   6.702   3.039   2.336
 9594WAT     OW47966   2.286   1.764   1.298
 9594WAT    HW147967   2.373   1.802   1.314
 9594WAT    HW247968   2.228   1.810   1.359
 9594WAT    LP147969   2.266   1.775   1.232
 9594WAT    LP247970   2.287   1.695   1.311
 9595WAT     OW47971   2.932   2.205   1.487
 9595WAT    HW147972   3.018   2.190   1.447
 9595WAT    HW247973   2.882   2.126   1.468
 9595WAT    LP147974   2.938   2.215   1.556
 9595WAT    LP247975   2.901   2.261   1.458
 9596WAT     OW47976   4.653   0.629   0.623
 9596WAT    HW147977   4.625   0.593   0.539
 9596WAT    HW247978   4.693   0.713   0.600
 9596WAT    LP147979   4.598   0.639   0.665
 9596WAT    LP247980   4.699   0.587   0.654
 9597WAT     OW47981   2.839   1.096   3.020
 9597WAT    HW147982   2.832   1.184   3.056
 9597WAT    HW247983   2.786   1.042   3.079
 9597WAT    LP147984   2.813   1.094   2.955
 9597WAT    LP247985   2.905   1.074   3.020
 9598WAT     OW47986   1.271   6.314   5.278
 9598WAT    HW147987   1.206   6.243   5.277
 9598WAT    HW247988   1.342   6.280   5.332
 9598WAT    LP147989   1.294   6.327   5.213
 9598WAT    LP247990   1.244   6.372   5.305
 9599WAT     OW47991   0.452   0.488   1.196
 9599WAT    HW147992   0.437   0.549   1.268
 9599WAT    HW247993   0.547   0.485   1.187
 9599WAT    LP147994   0.427   0.424   1.212
 9599WAT    LP247995   0.422   0.510   1.137
 9600WAT     OW47996   0.899   0.376   0.049
 9600WAT    HW147997   0.896   0.435  -0.026
 9600WAT    HW247998   0.817   0.326   0.043
 9600WAT    LP147999   0.954   0.333   0.045
 9600WAT    LP248000   0.902   0.412   0.109
 9601WAT     OW48001   0.158   0.274   3.390
 9601WAT    HW148002   0.141   0.367   3.404
 9601WAT    HW248003   0.086   0.244   3.335
 9601WAT    LP148004   0.220   0.265   3.358
 9601WAT    LP248005   0.159   0.240   3.451
 9602WAT     OW48006   2.528   6.485   0.535
 9602WAT    HW148007   2.567   6.416   0.482
 9602WAT    HW248008   2.526   6.449   0.623
 9602WAT    LP148009   2.567   6.544   0.532
 9602WAT    LP248010   2.463   6.500   0.513
 9603WAT     OW48011   6.284   4.099   2.365
 9603WAT    HW148012   6.284   4.037   2.438
 9603WAT    HW248013   6.356   4.070   2.309
 9603WAT    LP148014   6.223   4.098   2.331
 9603WAT    LP248015   6.296   4.164   2.389
 9604WAT     OW48016   6.385   1.194   2.758
 9604WAT    HW148017   6.295   1.222   2.773
 9604WAT    HW248018   6.425   1.267   2.711
 9604WAT    LP148019   6.418   1.181   2.818
 9604WAT    LP248020   6.386   1.136   2.718
 9605WAT     OW48021   6.293   4.725   4.144
 9605WAT    HW148022   6.337   4.685   4.069
 9605WAT    HW248023   6.365   4.750   4.202
 9605WAT    LP148024   6.257   4.782   4.124
 9605WAT    LP248025   6.250   4.680   4.175
 9606WAT     OW48026   6.609   4.316   2.938
 9606WAT    HW148027   6.538   4.378   2.958
 9606WAT    HW248028   6.601   4.299   2.844
 9606WAT    LP148029   6.671   4.345   2.953
 9606WAT    LP248030   6.601   4.257   2.975
 9607WAT     OW48031   4.147   1.614   1.010
 9607WAT    HW148032   4.172   1.555   1.081
 9607WAT    HW248033   4.053   1.628   1.021
 9607WAT    LP148034   4.182   1.675   1.015
 9607WAT    LP248035   4.161   1.585   0.947
 9608WAT     OW48036   1.071   6.491   0.971
 9608WAT    HW148037   1.153   6.536   0.994
 9608WAT    HW248038   1.033   6.546   0.902
 9608WAT    LP148039   1.084   6.427   0.947
 9608WAT    LP248040   1.028   6.488   1.026
 9609WAT     OW48041   3.238   1.770   2.900
 9609WAT    HW148042   3.313   1.822   2.930
 9609WAT    HW248043   3.258   1.680   2.927
 9609WAT    LP148044   3.179   1.792   2.930
 9609WAT    LP248045   3.232   1.774   2.830
 9610WAT     OW48046   2.374   2.478   3.032
 9610WAT    HW148047   2.335   2.393   3.052
 9610WAT    HW248048   2.457   2.457   2.989
 9610WAT    LP148049   2.333   2.516   2.990
 9610WAT    LP248050   2.386   2.515   3.091
 9611WAT     OW48051   5.363   3.725   3.445
 9611WAT    HW148052   5.342   3.788   3.515
 9611WAT    HW248053   5.278   3.688   3.421
 9611WAT    LP148054   5.392   3.757   3.391
 9611WAT    LP248055   5.406   3.675   3.469
 9612WAT     OW48056   3.502   2.781   5.569
 9612WAT    HW148057   3.510   2.786   5.664
 9612WAT    HW248058   3.453   2.700   5.553
 9612WAT    LP148059   3.467   2.837   5.545
 9612WAT    LP248060   3.565   2.778   5.539
 9613WAT     OW48061   3.166   6.294   1.393
 9613WAT    HW148062   3.232   6.329   1.453
 9613WAT    HW248063   3.147   6.207   1.427
 9613WAT    LP148064   3.108   6.334   1.395
 9613WAT    LP248065   3.190   6.291   1.328
 9614WAT     OW48066   1.122   0.246   3.970
 9614WAT    HW148067   1.029   0.222   3.976
 9614WAT    HW248068   1.131   0.322   4.028
 9614WAT    LP148069   1.162   0.193   3.992
 9614WAT    LP248070   1.139   0.263   3.904
 9615WAT     OW48071   0.287   1.978   0.064
 9615WAT    HW148072   0.312   2.045   0.127
 9615WAT    HW248073   0.211   2.015   0.019
 9615WAT    LP148074   0.339   1.965   0.019
 9615WAT    LP248075   0.269   1.918   0.096
 9616WAT     OW48076   1.461   4.119   5.662
 9616WAT    HW148077   1.553   4.141   5.653
 9616WAT    HW248078   1.455   4.027   5.637
 9616WAT    LP148079   1.439   4.129   5.728
 9616WAT    LP248080   1.422   4.159   5.619
 9617WAT     OW48081   4.509   6.023   4.946
 9617WAT    HW148082   4.482   5.939   4.910
 9617WAT    HW248083   4.491   6.016   5.040
 9617WAT    LP148084   4.577   6.035   4.934
 9617WAT    LP248085   4.471   6.075   4.917
 9618WAT     OW48086   4.110   4.258   2.577
 9618WAT    HW148087   4.138   4.221   2.661
 9618WAT    HW248088   4.191   4.286   2.535
 9618WAT    LP148089   4.077   4.209   2.539
 9618WAT    LP248090   4.067   4.312   2.587
 9619WAT     OW48091   6.595   5.699   4.978
 9619WAT    HW148092   6.501   5.712   4.995
 9619WAT    HW248093   6.627   5.652   5.054
 9619WAT    LP148094   6.604   5.661   4.920
 9619WAT    LP248095   6.628   5.761   4.971
 9620WAT     OW48096   5.556   3.228   2.239
 9620WAT    HW148097   5.487   3.216   2.305
 9620WAT    HW248098   5.511   3.216   2.155
 9620WAT    LP148099   5.583   3.292   2.243
 9620WAT    LP248100   5.606   3.180   2.247
 9621WAT     OW48101   6.314   3.887   5.246
 9621WAT    HW148102   6.268   3.839   5.316
 9621WAT    HW248103   6.331   3.821   5.179
 9621WAT    LP148104   6.274   3.938   5.221
 9621WAT    LP248105   6.374   3.914   5.270
 9622WAT     OW48106   2.577   3.076   2.577
 9622WAT    HW148107   2.536   2.991   2.561
 9622WAT    HW248108   2.581   3.117   2.490
 9622WAT    LP148109   2.539   3.114   2.621
 9622WAT    LP248110   2.642   3.067   2.603
 9623WAT     OW48111   4.093   3.336   0.254
 9623WAT    HW148112   4.162   3.297   0.307
 9623WAT    HW248113   4.013   3.290   0.280
 9623WAT    LP148114   4.087   3.405   0.267
 9623WAT    LP248115   4.106   3.327   0.186
 9624WAT     OW48116   1.896   2.963   4.211
 9624WAT    HW148117   1.962   2.980   4.145
 9624WAT    HW248118   1.926   3.010   4.289
 9624WAT    LP148119   1.833   2.987   4.190
 9624WAT    LP248120   1.891   2.894   4.223
 9625WAT     OW48121   2.748   0.386   6.552
 9625WAT    HW148122   2.705   0.338   6.623
 9625WAT    HW248123   2.696   0.465   6.541
 9625WAT    LP148124   2.814   0.402   6.570
 9625WAT    LP248125   2.748   0.348   6.493
 9626WAT     OW48126   0.431   4.479   3.491
 9626WAT    HW148127   0.433   4.457   3.398
 9626WAT    HW248128   0.482   4.409   3.533
 9626WAT    LP148129   0.461   4.541   3.502
 9626WAT    LP248130   0.366   4.480   3.515
 9627WAT     OW48131   5.104   6.126   0.603
 9627WAT    HW148132   5.195   6.096   0.606
 9627WAT    HW248133   5.100   6.181   0.525
 9627WAT    LP148134   5.061   6.071   0.597
 9627WAT    LP248135   5.088   6.162   0.660
 9628WAT     OW48136   3.280   2.394   1.463
 9628WAT    HW148137   3.232   2.433   1.389
 9628WAT    HW248138   3.244   2.438   1.540
 9628WAT    LP148139   3.268   2.325   1.466
 9628WAT    LP248140   3.348   2.406   1.457
 9629WAT     OW48141   1.107   2.937   1.735
 9629WAT    HW148142   1.032   2.961   1.681
 9629WAT    HW248143   1.070   2.877   1.800
 9629WAT    LP148144   1.156   2.905   1.697
 9629WAT    LP248145   1.134   2.993   1.766
 9630WAT     OW48146   6.150   1.489   5.490
 9630WAT    HW148147   6.072   1.543   5.486
 9630WAT    HW248148   6.220   1.549   5.517
 9630WAT    LP148149   6.142   1.438   5.537
 9630WAT    LP248150   6.165   1.461   5.428
 9631WAT     OW48151   5.024   5.853   2.291
 9631WAT    HW148152   4.993   5.797   2.362
 9631WAT    HW248153   5.070   5.794   2.232
 9631WAT    LP148154   4.970   5.884   2.259
 9631WAT    LP248155   5.068   5.902   2.316
 9632WAT     OW48156   5.925   3.733   5.513
 9632WAT    HW148157   5.891   3.726   5.603
 9632WAT    HW248158   5.897   3.819   5.484
 9632WAT    LP148159   5.994   3.727   5.513
 9632WAT    LP248160   5.897   3.683   5.473
 9633WAT     OW48161   6.152   1.636   6.111
 9633WAT    HW148162   6.161   1.728   6.138
 9633WAT    HW248163   6.172   1.637   6.017
 9633WAT    LP148164   6.197   1.595   6.146
 9633WAT    LP248165   6.086   1.613   6.122
 9634WAT     OW48166   5.051   1.406   5.039
 9634WAT    HW148167   5.001   1.477   4.998
 9634WAT    HW248168   5.071   1.438   5.126
 9634WAT    LP148169   5.012   1.347   5.042
 9634WAT    LP248170   5.109   1.393   5.002
 9635WAT     OW48171   2.734   4.711   1.641
 9635WAT    HW148172   2.750   4.622   1.671
 9635WAT    HW248173   2.687   4.700   1.558
 9635WAT    LP148174   2.694   4.746   1.687
 9635WAT    LP248175   2.794   4.745   1.631
 9636WAT     OW48176   4.291   5.136   2.505
 9636WAT    HW148177   4.268   5.229   2.496
 9636WAT    HW248178   4.253   5.095   2.427
 9636WAT    LP148179   4.360   5.127   2.506
 9636WAT    LP248180   4.263   5.110   2.563
 9637WAT     OW48181   2.411   3.370   3.836
 9637WAT    HW148182   2.462   3.310   3.781
 9637WAT    HW248183   2.336   3.393   3.782
 9637WAT    LP148184   2.391   3.338   3.894
 9637WAT    LP248185   2.449   3.427   3.852
 9638WAT     OW48186   4.530   1.911   4.130
 9638WAT    HW148187   4.488   1.996   4.117
 9638WAT    HW248188   4.613   1.918   4.084
 9638WAT    LP148189   4.540   1.899   4.198
 9638WAT    LP248190   4.490   1.860   4.103
 9639WAT     OW48191   1.709   6.005   0.008
 9639WAT    HW148192   1.680   6.096   0.006
 9639WAT    HW248193   1.727   5.988   0.100
 9639WAT    LP148194   1.659   5.963  -0.016
 9639WAT    LP248195   1.767   5.997  -0.030
 9640WAT     OW48196   0.713   1.237   6.385
 9640WAT    HW148197   0.649   1.300   6.418
 9640WAT    HW248198   0.703   1.161   6.442
 9640WAT    LP148199   0.699   1.220   6.319
 9640WAT    LP248200   0.778   1.263   6.390
 9641WAT     OW48201   4.975   2.373   1.602
 9641WAT    HW148202   4.928   2.428   1.540
 9641WAT    HW248203   4.935   2.393   1.687
 9641WAT    LP148204   4.966   2.305   1.586
 9641WAT    LP248205   5.043   2.388   1.603
 9642WAT     OW48206   4.139   6.333   5.214
 9642WAT    HW148207   4.179   6.290   5.289
 9642WAT    HW248208   4.212   6.369   5.164
 9642WAT    LP148209   4.103   6.287   5.175
 9642WAT    LP248210   4.096   6.384   5.235
 9643WAT     OW48211   1.464   2.456   6.169
 9643WAT    HW148212   1.413   2.409   6.235
 9643WAT    HW248213   1.400   2.483   6.103
 9643WAT    LP148214   1.495   2.512   6.197
 9643WAT    LP248215   1.512   2.414   6.141
 9644WAT     OW48216   0.434   4.618   1.285
 9644WAT    HW148217   0.348   4.650   1.311
 9644WAT    HW248218   0.442   4.532   1.328
 9644WAT    LP148219   0.439   4.611   1.216
 9644WAT    LP248220   0.484   4.661   1.308
 9645WAT     OW48221   4.553   0.445   6.377
 9645WAT    HW148222   4.555   0.531   6.420
 9645WAT    HW248223   4.630   0.400   6.411
 9645WAT    LP148224   4.495   0.411   6.394
 9645WAT    LP248225   4.557   0.453   6.308
 9646WAT     OW48226   0.237   2.948   3.849
 9646WAT    HW148227   0.192   3.002   3.914
 9646WAT    HW248228   0.249   2.864   3.894
 9646WAT    LP148229   0.197   2.940   3.792
 9646WAT    LP248230   0.298   2.976   3.832
 9647WAT     OW48231   5.697   3.350   5.453
 9647WAT    HW148232   5.621   3.400   5.422
 9647WAT    HW248233   5.680   3.260   5.426
 9647WAT    LP148234   5.756   3.374   5.423
 9647WAT    LP248235   5.703   3.354   5.523
 9648WAT     OW48236   3.807   5.736   3.164
 9648WAT    HW148237   3.871   5.678   3.123
 9648WAT    HW248238   3.860   5.809   3.197
 9648WAT    LP148239   3.760   5.758   3.118
 9648WAT    LP248240   3.775   5.703   3.217
 9649WAT     OW48241   3.617   0.573   3.192
 9649WAT    HW148242   3.619   0.636   3.263
 9649WAT    HW248243   3.684   0.509   3.215
 9649WAT    LP148244   3.554   0.542   3.187
 9649WAT    LP248245   3.632   0.604   3.131
 9650WAT     OW48246   4.629   0.706   4.784
 9650WAT    HW148247   4.629   0.637   4.850
 9650WAT    HW248248   4.552   0.759   4.803
 9650WAT    LP148249   4.687   0.745   4.789
 9650WAT    LP248250   4.625   0.679   4.719
 9651WAT     OW48251   3.976   3.460   4.121
 9651WAT    HW148252   3.911   3.522   4.154
 9651WAT    HW248253   3.925   3.393   4.075
 9651WAT    LP148254   4.021   3.492   4.077
 9651WAT    LP248255   4.012   3.431   4.174
 9652WAT     OW48256   1.003   1.611   6.506
 9652WAT    HW148257   0.945   1.587   6.433
 9652WAT    HW248258   0.963   1.690   6.543
 9652WAT    LP148259   1.005   1.559   6.554
 9652WAT    LP248260   1.067   1.624   6.483
 9653WAT     OW48261   0.657   2.830   0.879
 9653WAT    HW148262   0.632   2.767   0.945
 9653WAT    HW248263   0.677   2.910   0.928
 9653WAT    LP148264   0.713   2.808   0.843
 9653WAT    LP248265   0.604   2.841   0.834
 9654WAT     OW48266   2.302   3.952   0.877
 9654WAT    HW148267   2.366   3.961   0.947
 9654WAT    HW248268   2.345   3.986   0.799
 9654WAT    LP148269   2.284   3.885   0.868
 9654WAT    LP248270   2.244   3.989   0.891
 9655WAT     OW48271   4.751   3.429   1.375
 9655WAT    HW148272   4.667   3.402   1.411
 9655WAT    HW248273   4.765   3.517   1.410
 9655WAT    LP148274   4.802   3.386   1.395
 9655WAT    LP248275   4.748   3.431   1.305
 9656WAT     OW48276   4.411   0.601   2.654
 9656WAT    HW148277   4.325   0.641   2.641
 9656WAT    HW248278   4.415   0.584   2.748
 9656WAT    LP148279   4.416   0.541   2.618
 9656WAT    LP248280   4.462   0.644   2.634
 9657WAT     OW48281   2.187   0.402   5.474
 9657WAT    HW148282   2.199   0.370   5.384
 9657WAT    HW248283   2.118   0.347   5.511
 9657WAT    LP148284   2.247   0.395   5.510
 9657WAT    LP248285   2.168   0.469   5.474
 9658WAT     OW48286   2.207   3.313   2.685
 9658WAT    HW148287   2.202   3.384   2.621
 9658WAT    HW248288   2.300   3.293   2.691
 9658WAT    LP148289   2.183   3.335   2.747
 9658WAT    LP248290   2.171   3.258   2.664
 9659WAT     OW48291   3.497   5.334   5.560
 9659WAT    HW148292   3.492   5.358   5.468
 9659WAT    HW248293   3.563   5.393   5.596
 9659WAT    LP148294   3.435   5.345   5.592
 9659WAT    LP248295   3.516   5.267   5.568
 9660WAT     OW48296   2.080   1.192   1.867
 9660WAT    HW148297   2.163   1.154   1.839
 9660WAT    HW248298   2.076   1.276   1.822
 9660WAT    LP148299   2.027   1.151   1.848
 9660WAT    LP248300   2.079   1.201   1.936
 9661WAT     OW48301   3.157   2.009   5.145
 9661WAT    HW148302   3.135   1.929   5.192
 9661WAT    HW248303   3.152   2.078   5.211
 9661WAT    LP148304   3.221   2.005   5.118
 9661WAT    LP248305   3.110   2.021   5.094
 9662WAT     OW48306   3.658   3.087   6.175
 9662WAT    HW148307   3.604   3.012   6.201
 9662WAT    HW248308   3.689   3.124   6.258
 9662WAT    LP148309   3.712   3.067   6.135
 9662WAT    LP248310   3.620   3.134   6.140
 9663WAT     OW48311   1.507   6.381   4.286
 9663WAT    HW148312   1.558   6.461   4.272
 9663WAT    HW248313   1.565   6.310   4.258
 9663WAT    LP148314   1.490   6.374   4.353
 9663WAT    LP248315   1.449   6.382   4.247
 9664WAT     OW48316   6.786   5.082   0.315
 9664WAT    HW148317   6.702   5.127   0.309
 9664WAT    HW248318   6.790   5.027   0.237
 9664WAT    LP148319   6.839   5.129   0.314
 9664WAT    LP248320   6.790   5.044   0.373
 9665WAT     OW48321   6.039   2.097   3.340
 9665WAT    HW148322   6.030   2.141   3.255
 9665WAT    HW248323   6.132   2.079   3.349
 9665WAT    LP148324   6.017   2.138   3.392
 9665WAT    LP248325   6.002   2.037   3.340
 9666WAT     OW48326   4.272   5.423   0.715
 9666WAT    HW148327   4.247   5.394   0.803
 9666WAT    HW248328   4.261   5.345   0.660
 9666WAT    LP148329   4.230   5.475   0.693
 9666WAT    LP248330   4.339   5.445   0.714
 9667WAT     OW48331   3.038   5.809   1.424
 9667WAT    HW148332   3.071   5.893   1.455
 9667WAT    HW248333   3.012   5.825   1.333
 9667WAT    LP148334   3.088   5.760   1.427
 9667WAT    LP248335   2.983   5.788   1.462
 9668WAT     OW48336   4.586   5.000   3.672
 9668WAT    HW148337   4.623   4.987   3.760
 9668WAT    HW248338   4.644   4.950   3.615
 9668WAT    LP148339   4.521   4.974   3.669
 9668WAT    LP248340   4.585   5.067   3.655
 9669WAT     OW48341   1.555   3.032   5.867
 9669WAT    HW148342   1.625   3.024   5.932
 9669WAT    HW248343   1.493   2.963   5.890
 9669WAT    LP148344   1.525   3.095   5.870
 9669WAT    LP248345   1.581   3.021   5.802
 9670WAT     OW48346   5.348   4.211   0.958
 9670WAT    HW148347   5.412   4.183   1.023
 9670WAT    HW248348   5.274   4.151   0.969
 9670WAT    LP148349   5.328   4.277   0.969
 9670WAT    LP248350   5.374   4.205   0.893
 9671WAT     OW48351   3.113   5.799   4.326
 9671WAT    HW148352   3.152   5.875   4.283
 9671WAT    HW248353   3.114   5.821   4.419
 9671WAT    LP148354   3.047   5.790   4.304
 9671WAT    LP248355   3.150   5.741   4.313
 9672WAT     OW48356   6.599   0.516   3.492
 9672WAT    HW148357   6.535   0.447   3.476
 9672WAT    HW248358   6.568   0.591   3.441
 9672WAT    LP148359   6.602   0.532   3.560
 9672WAT    LP248360   6.663   0.496   3.470
 9673WAT     OW48361   5.286   4.151   3.783
 9673WAT    HW148362   5.241   4.232   3.807
 9673WAT    HW248363   5.306   4.110   3.867
 9673WAT    LP148364   5.245   4.110   3.744
 9673WAT    LP248365   5.345   4.165   3.748
 9674WAT     OW48366   0.211   4.615   0.903
 9674WAT    HW148367   0.142   4.681   0.905
 9674WAT    HW248368   0.217   4.589   0.811
 9674WAT    LP148369   0.272   4.643   0.925
 9674WAT    LP248370   0.195   4.560   0.944
 9675WAT     OW48371   6.308   2.190   5.687
 9675WAT    HW148372   6.385   2.231   5.726
 9675WAT    HW248373   6.264   2.260   5.641
 9675WAT    LP148374   6.327   2.139   5.643
 9675WAT    LP248375   6.267   2.163   5.737
 9676WAT     OW48376   1.780   1.921   0.112
 9676WAT    HW148377   1.824   1.953   0.033
 9676WAT    HW248378   1.850   1.912   0.177
 9676WAT    LP148379   1.732   1.967   0.134
 9676WAT    LP248380   1.750   1.859   0.100
 9677WAT     OW48381   1.598   3.519   0.403
 9677WAT    HW148382   1.508   3.519   0.369
 9677WAT    HW248383   1.626   3.611   0.398
 9677WAT    LP148384   1.599   3.497   0.470
 9677WAT    LP248385   1.639   3.479   0.364
 9678WAT     OW48386   3.482   6.312   2.296
 9678WAT    HW148387   3.571   6.283   2.316
 9678WAT    HW248388   3.465   6.381   2.360
 9678WAT    LP148389   3.478   6.338   2.231
 9678WAT    LP248390   3.437   6.260   2.303
 9679WAT     OW48391   2.999   2.415   3.011
 9679WAT    HW148392   3.007   2.454   3.099
 9679WAT    HW248393   2.923   2.459   2.972
 9679WAT    LP148394   3.057   2.427   2.974
 9679WAT    LP248395   2.988   2.347   3.016
 9680WAT     OW48396   1.062   5.404   4.614
 9680WAT    HW148397   1.020   5.332   4.569
 9680WAT    HW248398   0.993   5.445   4.665
 9680WAT    LP148399   1.113   5.381   4.656
 9680WAT    LP248400   1.089   5.450   4.568
 9681WAT     OW48401   3.131   6.309   3.045
 9681WAT    HW148402   3.148   6.215   3.038
 9681WAT    HW248403   3.213   6.346   3.076
 9681WAT    LP148404   3.114   6.335   2.982
 9681WAT    LP248405   3.079   6.322   3.090
 9682WAT     OW48406   1.935   4.951   6.338
 9682WAT    HW148407   1.981   4.920   6.259
 9682WAT    HW248408   1.983   5.030   6.364
 9682WAT    LP148409   1.869   4.966   6.323
 9682WAT    LP248410   1.938   4.903   6.388
 9683WAT     OW48411   0.173   1.867   0.513
 9683WAT    HW148412   0.138   1.942   0.465
 9683WAT    HW248413   0.229   1.822   0.450
 9683WAT    LP148414   0.210   1.887   0.569
 9683WAT    LP248415   0.121   1.825   0.534
 9684WAT     OW48416   0.351   1.393   5.391
 9684WAT    HW148417   0.287   1.425   5.454
 9684WAT    HW248418   0.414   1.465   5.382
 9684WAT    LP148419   0.382   1.335   5.414
 9684WAT    LP248420   0.320   1.380   5.329
 9685WAT     OW48421   4.491   2.900   1.813
 9685WAT    HW148422   4.565   2.950   1.847
 9685WAT    HW248423   4.520   2.809   1.817
 9685WAT    LP148424   4.434   2.910   1.852
 9685WAT    LP248425   4.477   2.918   1.747
 9686WAT     OW48426   3.625   5.722   3.385
 9686WAT    HW148427   3.684   5.721   3.309
 9686WAT    HW248428   3.656   5.651   3.441
 9686WAT    LP148429   3.630   5.783   3.419
 9686WAT    LP248430   3.559   5.712   3.366
 9687WAT     OW48431   1.776   2.993   6.030
 9687WAT    HW148432   1.777   2.929   6.101
 9687WAT    HW248433   1.816   3.071   6.067
 9687WAT    LP148434   1.812   2.969   5.975
 9687WAT    LP248435   1.710   3.006   6.010
 9688WAT     OW48436   3.379   5.434   6.296
 9688WAT    HW148437   3.287   5.448   6.316
 9688WAT    HW248438   3.425   5.501   6.345
 9688WAT    LP148439   3.399   5.370   6.316
 9688WAT    LP248440   3.391   5.441   6.227
 9689WAT     OW48441   3.052   4.228   5.885
 9689WAT    HW148442   3.013   4.201   5.801
 9689WAT    HW248443   2.979   4.267   5.933
 9689WAT    LP148444   3.078   4.174   5.919
 9689WAT    LP248445   3.102   4.276   5.874
 9690WAT     OW48446   1.396   1.801   1.901
 9690WAT    HW148447   1.482   1.787   1.941
 9690WAT    HW248448   1.346   1.722   1.925
 9690WAT    LP148449   1.365   1.858   1.927
 9690WAT    LP248450   1.401   1.806   1.832
 9691WAT     OW48451   0.762   3.676   4.185
 9691WAT    HW148452   0.836   3.615   4.190
 9691WAT    HW248453   0.782   3.730   4.108
 9691WAT    LP148454   0.702   3.641   4.176
 9691WAT    LP248455   0.758   3.715   4.242
 9692WAT     OW48456   1.042   5.027   1.939
 9692WAT    HW148457   1.042   4.999   2.031
 9692WAT    HW248458   0.977   5.098   1.936
 9692WAT    LP148459   1.105   5.050   1.921
 9692WAT    LP248460   1.023   4.974   1.897
 9693WAT     OW48461   5.744   1.604   5.735
 9693WAT    HW148462   5.826   1.632   5.775
 9693WAT    HW248463   5.765   1.519   5.695
 9693WAT    LP148464   5.695   1.596   5.784
 9693WAT    LP248465   5.723   1.649   5.687
 9694WAT     OW48466   1.850   6.114   3.325
 9694WAT    HW148467   1.829   6.178   3.257
 9694WAT    HW248468   1.939   6.136   3.352
 9694WAT    LP148469   1.806   6.119   3.379
 9694WAT    LP248470   1.847   6.049   3.299
 9695WAT     OW48471   6.031   1.913   4.498
 9695WAT    HW148472   5.937   1.911   4.480
 9695WAT    HW248473   6.060   1.996   4.462
 9695WAT    LP148474   6.043   1.910   4.566
 9695WAT    LP248475   6.063   1.859   4.466
 9696WAT     OW48476   3.757   4.664   2.123
 9696WAT    HW148477   3.846   4.672   2.089
 9696WAT    HW248478   3.721   4.588   2.078
 9696WAT    LP148479   3.758   4.654   2.192
 9696WAT    LP248480   3.720   4.722   2.108
 9697WAT     OW48481   4.636   4.511   4.686
 9697WAT    HW148482   4.721   4.471   4.707
 9697WAT    HW248483   4.627   4.582   4.749
 9697WAT    LP148484   4.635   4.535   4.621
 9697WAT    LP248485   4.585   4.464   4.694
 9698WAT     OW48486   2.678   3.453   2.708
 9698WAT    HW148487   2.732   3.428   2.632
 9698WAT    HW248488   2.674   3.549   2.703
 9698WAT    LP148489   2.614   3.425   2.703
 9698WAT    LP248490   2.708   3.433   2.767
 9699WAT     OW48491   4.327   2.663   0.185
 9699WAT    HW148492   4.259   2.711   0.138
 9699WAT    HW248493   4.371   2.729   0.239
 9699WAT    LP148494   4.298   2.613   0.225
 9699WAT    LP248495   4.372   2.633   0.140
 9700WAT     OW48496   6.690   6.203   4.488
 9700WAT    HW148497   6.763   6.243   4.441
 9700WAT    HW248498   6.698   6.235   4.577
 9700WAT    LP148499   6.629   6.224   4.460
 9700WAT    LP248500   6.694   6.134   4.485
 9701WAT     OW48501   6.771   2.444   3.654
 9701WAT    HW148502   6.715   2.516   3.623
 9701WAT    HW248503   6.807   2.476   3.737
 9701WAT    LP148504   6.733   2.387   3.665
 9701WAT    LP248505   6.822   2.431   3.608
 9702WAT     OW48506   0.433   3.883   3.073
 9702WAT    HW148507   0.398   3.857   3.158
 9702WAT    HW248508   0.376   3.840   3.009
 9702WAT    LP148509   0.431   3.953   3.065
 9702WAT    LP248510   0.499   3.861   3.065
 9703WAT     OW48511   0.414   2.080   3.223
 9703WAT    HW148512   0.485   2.023   3.195
 9703WAT    HW248513   0.439   2.108   3.312
 9703WAT    LP148514   0.409   2.136   3.181
 9703WAT    LP248515   0.353   2.046   3.225
 9704WAT     OW48516   1.486   2.723   4.563
 9704WAT    HW148517   1.465   2.653   4.625
 9704WAT    HW248518   1.432   2.797   4.591
 9704WAT    LP148519   1.554   2.739   4.567
 9704WAT    LP248520   1.471   2.704   4.498
 9705WAT     OW48521   2.827   1.734   0.098
 9705WAT    HW148522   2.796   1.668   0.160
 9705WAT    HW248523   2.881   1.686   0.036
 9705WAT    LP148524   2.773   1.764   0.065
 9705WAT    LP248525   2.864   1.783   0.130
 9706WAT     OW48526   1.880   0.561   4.945
 9706WAT    HW148527   1.824   0.638   4.955
 9706WAT    HW248528   1.820   0.487   4.946
 9706WAT    LP148529   1.915   0.564   4.884
 9706WAT    LP248530   1.926   0.557   4.998
 9707WAT     OW48531   1.732   6.220   6.004
 9707WAT    HW148532   1.719   6.139   6.054
 9707WAT    HW248533   1.772   6.281   6.066
 9707WAT    LP148534   1.774   6.208   5.950
 9707WAT    LP248535   1.671   6.245   5.981
 9708WAT     OW48536   0.559   3.170   4.429
 9708WAT    HW148537   0.499   3.115   4.378
 9708WAT    HW248538   0.623   3.201   4.365
 9708WAT    LP148539   0.525   3.224   4.458
 9708WAT    LP248540   0.590   3.132   4.479
 9709WAT     OW48541   2.834   3.718   6.261
 9709WAT    HW148542   2.839   3.710   6.166
 9709WAT    HW248543   2.920   3.689   6.292
 9709WAT    LP148544   2.822   3.784   6.280
 9709WAT    LP248545   2.783   3.677   6.286
 9710WAT     OW48546   3.124   6.479   4.615
 9710WAT    HW148547   3.183   6.403   4.611
 9710WAT    HW248548   3.037   6.441   4.614
 9710WAT    LP148549   3.135   6.514   4.675
 9710WAT    LP248550   3.134   6.521   4.561
 9711WAT     OW48551   1.923   5.683   1.951
 9711WAT    HW148552   1.999   5.679   2.009
 9711WAT    HW248553   1.887   5.770   1.965
 9711WAT    LP148554   1.942   5.674   1.884
 9711WAT    LP248555   1.876   5.634   1.969
 9712WAT     OW48556   0.835   1.176   4.825
 9712WAT    HW148557   0.897   1.249   4.815
 9712WAT    HW248558   0.757   1.203   4.777
 9712WAT    LP148559   0.862   1.117   4.799
 9712WAT    LP248560   0.820   1.167   4.893
 9713WAT     OW48561   4.611   1.865   1.864
 9713WAT    HW148562   4.560   1.877   1.944
 9713WAT    HW248563   4.555   1.813   1.807
 9713WAT    LP148564   4.625   1.927   1.834
 9713WAT    LP248565   4.671   1.832   1.877
 9714WAT     OW48566   1.611   3.306   5.338
 9714WAT    HW148567   1.658   3.379   5.379
 9714WAT    HW248568   1.624   3.318   5.244
 9714WAT    LP148569   1.638   3.245   5.360
 9714WAT    LP248570   1.543   3.308   5.354
 9715WAT     OW48571   4.334   2.573   0.778
 9715WAT    HW148572   4.377   2.633   0.717
 9715WAT    HW248573   4.274   2.522   0.724
 9715WAT    LP148574   4.382   2.532   0.809
 9715WAT    LP248575   4.299   2.609   0.827
 9716WAT     OW48576   2.031   5.888   4.352
 9716WAT    HW148577   2.005   5.846   4.270
 9716WAT    HW248578   2.079   5.966   4.325
 9716WAT    LP148579   1.975   5.905   4.390
 9716WAT    LP248580   2.072   5.845   4.389
 9717WAT     OW48581   1.403   6.317   1.615
 9717WAT    HW148582   1.338   6.255   1.648
 9717WAT    HW248583   1.359   6.358   1.540
 9717WAT    LP148584   1.418   6.365   1.663
 9717WAT    LP248585   1.461   6.284   1.594
 9718WAT     OW48586   3.558   0.033   1.100
 9718WAT    HW148587   3.526   0.092   1.168
 9718WAT    HW248588   3.517   0.064   1.020
 9718WAT    LP148589   3.628   0.036   1.095
 9718WAT    LP248590   3.538  -0.033   1.114
 9719WAT     OW48591   5.452   4.483   0.269
 9719WAT    HW148592   5.422   4.520   0.352
 9719WAT    HW248593   5.543   4.458   0.285
 9719WAT    LP148594   5.414   4.426   0.252
 9719WAT    LP248595   5.448   4.530   0.218
 9720WAT     OW48596   2.405   2.597   6.065
 9720WAT    HW148597   2.415   2.604   5.970
 9720WAT    HW248598   2.367   2.681   6.091
 9720WAT    LP148599   2.362   2.544   6.081
 9720WAT    LP248600   2.467   2.588   6.096
 9721WAT     OW48601   2.188   5.857   0.907
 9721WAT    HW148602   2.170   5.782   0.964
 9721WAT    HW248603   2.187   5.933   0.965
 9721WAT    LP148604   2.250   5.850   0.875
 9721WAT    LP248605   2.137   5.863   0.858
 9722WAT     OW48606   1.954   3.622   5.306
 9722WAT    HW148607   1.886   3.584   5.361
 9722WAT    HW248608   2.029   3.563   5.316
 9722WAT    LP148609   1.934   3.626   5.239
 9722WAT    LP248610   1.971   3.686   5.329
 9723WAT     OW48611   1.697   5.632   6.586
 9723WAT    HW148612   1.664   5.542   6.594
 9723WAT    HW248613   1.625   5.687   6.615
 9723WAT    LP148614   1.754   5.641   6.626
 9723WAT    LP248615   1.713   5.646   6.519
 9724WAT     OW48616   4.120   1.560   5.800
 9724WAT    HW148617   4.169   1.503   5.742
 9724WAT    HW248618   4.181   1.582   5.871
 9724WAT    LP148619   4.099   1.618   5.767
 9724WAT    LP248620   4.064   1.527   5.826
 9725WAT     OW48621   0.536   2.223   4.497
 9725WAT    HW148622   0.511   2.248   4.408
 9725WAT    HW248623   0.631   2.236   4.500
 9725WAT    LP148624   0.504   2.264   4.544
 9725WAT    LP248625   0.520   2.156   4.509
 9726WAT     OW48626   5.494   2.283   3.452
 9726WAT    HW148627   5.521   2.209   3.507
 9726WAT    HW248628   5.399   2.272   3.441
 9726WAT    LP148629   5.508   2.344   3.484
 9726WAT    LP248630   5.526   2.281   3.390
 9727WAT     OW48631   6.056   0.411   4.829
 9727WAT    HW148632   5.975   0.393   4.876
 9727WAT    HW248633   6.028   0.439   4.742
 9727WAT    LP148634   6.092   0.462   4.861
 9727WAT    LP248635   6.096   0.353   4.825
 9728WAT     OW48636   5.744   0.168   0.985
 9728WAT    HW148637   5.762   0.074   0.993
 9728WAT    HW248638   5.752   0.201   1.075
 9728WAT    LP148639   5.791   0.199   0.944
 9728WAT    LP248640   5.680   0.179   0.960
 9729WAT     OW48641   1.964   3.000   4.736
 9729WAT    HW148642   1.932   3.089   4.750
 9729WAT    HW248643   1.902   2.944   4.782
 9729WAT    LP148644   1.965   2.985   4.667
 9729WAT    LP248645   2.028   2.992   4.762
 9730WAT     OW48646   5.138   4.285   2.778
 9730WAT    HW148647   5.160   4.352   2.713
 9730WAT    HW248648   5.110   4.334   2.855
 9730WAT    LP148649   5.087   4.244   2.754
 9730WAT    LP248650   5.194   4.246   2.793
 9731WAT     OW48651   5.595   2.365   4.190
 9731WAT    HW148652   5.567   2.274   4.199
 9731WAT    HW248653   5.594   2.399   4.280
 9731WAT    LP148654   5.659   2.370   4.163
 9731WAT    LP248655   5.550   2.401   4.151
 9732WAT     OW48656   0.555   6.388   0.433
 9732WAT    HW148657   0.549   6.398   0.528
 9732WAT    HW248658   0.485   6.444   0.399
 9732WAT    LP148659   0.618   6.409   0.410
 9732WAT    LP248660   0.545   6.321   0.415
 9733WAT     OW48661   4.771   1.119   3.562
 9733WAT    HW148662   4.770   1.072   3.478
 9733WAT    HW248663   4.789   1.209   3.538
 9733WAT    LP148664   4.708   1.114   3.593
 9733WAT    LP248665   4.820   1.093   3.604
 9734WAT     OW48666   3.108   5.524   6.185
 9734WAT    HW148667   3.133   5.527   6.093
 9734WAT    HW248668   3.136   5.609   6.220
 9734WAT    LP148669   3.039   5.517   6.192
 9734WAT    LP248670   3.141   5.472   6.219
 9735WAT     OW48671   5.917   5.433   0.355
 9735WAT    HW148672   5.955   5.387   0.430
 9735WAT    HW248673   5.874   5.510   0.393
 9735WAT    LP148674   5.968   5.453   0.310
 9735WAT    LP248675   5.871   5.393   0.321
 9736WAT     OW48676   5.781   0.248   6.262
 9736WAT    HW148677   5.856   0.307   6.258
 9736WAT    HW248678   5.743   0.251   6.174
 9736WAT    LP148679   5.801   0.183   6.278
 9736WAT    LP248680   5.734   0.270   6.309
 9737WAT     OW48681   1.755   3.083   5.673
 9737WAT    HW148682   1.678   3.070   5.730
 9737WAT    HW248683   1.823   3.028   5.712
 9737WAT    LP148684   1.740   3.063   5.608
 9737WAT    LP248685   1.774   3.150   5.673
 9738WAT     OW48686   3.203   3.083   0.225
 9738WAT    HW148687   3.183   2.998   0.264
 9738WAT    HW248688   3.203   3.144   0.298
 9738WAT    LP148689   3.266   3.082   0.193
 9738WAT    LP248690   3.154   3.101   0.178
 9739WAT     OW48691   3.127   2.036   4.561
 9739WAT    HW148692   3.134   1.967   4.627
 9739WAT    HW248693   3.093   1.992   4.483
 9739WAT    LP148694   3.083   2.086   4.582
 9739WAT    LP248695   3.190   2.064   4.548
 9740WAT     OW48696   6.114   4.096   6.127
 9740WAT    HW148697   6.051   4.167   6.115
 9740WAT    HW248698   6.170   4.126   6.199
 9740WAT    LP148699   6.081   4.037   6.145
 9740WAT    LP248700   6.152   4.086   6.069
 9741WAT     OW48701   2.576   0.974   0.556
 9741WAT    HW148702   2.493   1.021   0.564
 9741WAT    HW248703   2.579   0.918   0.633
 9741WAT    LP148704   2.578   0.936   0.497
 9741WAT    LP248705   2.630   1.019   0.556
 9742WAT     OW48706   0.273   3.484   5.191
 9742WAT    HW148707   0.316   3.496   5.276
 9742WAT    HW248708   0.270   3.390   5.178
 9742WAT    LP148709   0.208   3.511   5.193
 9742WAT    LP248710   0.310   3.515   5.140
 9743WAT     OW48711   0.610   2.710   4.431
 9743WAT    HW148712   0.666   2.640   4.399
 9743WAT    HW248713   0.610   2.775   4.360
 9743WAT    LP148714   0.545   2.686   4.443
 9743WAT    LP248715   0.635   2.738   4.490
 9744WAT     OW48716   3.350   4.395   2.362
 9744WAT    HW148717   3.355   4.340   2.440
 9744WAT    HW248718   3.337   4.483   2.396
 9744WAT    LP148719   3.409   4.391   2.326
 9744WAT    LP248720   3.296   4.375   2.322
 9745WAT     OW48721   3.035   5.669   5.252
 9745WAT    HW148722   3.059   5.671   5.344
 9745WAT    HW248723   2.980   5.591   5.243
 9745WAT    LP148724   2.999   5.727   5.234
 9745WAT    LP248725   3.092   5.664   5.212
 9746WAT     OW48726   5.576   2.821   3.789
 9746WAT    HW148727   5.488   2.854   3.807
 9746WAT    HW248728   5.595   2.761   3.861
 9746WAT    LP148729   5.578   2.788   3.728
 9746WAT    LP248730   5.622   2.874   3.789
 9747WAT     OW48731   3.547   2.282   3.424
 9747WAT    HW148732   3.610   2.239   3.483
 9747WAT    HW248733   3.539   2.371   3.460
 9747WAT    LP148734   3.571   2.284   3.359
 9747WAT    LP248735   3.485   2.250   3.426
 9748WAT     OW48736   1.653   1.639   3.639
 9748WAT    HW148737   1.619   1.675   3.720
 9748WAT    HW248738   1.653   1.544   3.652
 9748WAT    LP148739   1.612   1.656   3.585
 9748WAT    LP248740   1.718   1.662   3.627
 9749WAT     OW48741   4.521   5.993   4.478
 9749WAT    HW148742   4.428   5.977   4.496
 9749WAT    HW248743   4.533   6.087   4.492
 9749WAT    LP148744   4.561   5.956   4.521
 9749WAT    LP248745   4.536   5.976   4.412
 9750WAT     OW48746   5.119   5.409   3.462
 9750WAT    HW148747   5.149   5.323   3.435
 9750WAT    HW248748   5.075   5.394   3.546
 9750WAT    LP148749   5.173   5.453   3.470
 9750WAT    LP248750   5.074   5.436   3.416
 9751WAT     OW48751   5.895   4.704   3.387
 9751WAT    HW148752   5.893   4.768   3.459
 9751WAT    HW248753   5.919   4.622   3.430
 9751WAT    LP148754   5.833   4.700   3.357
 9751WAT    LP248755   5.943   4.722   3.340
 9752WAT     OW48756   3.361   5.841   4.736
 9752WAT    HW148757   3.433   5.849   4.673
 9752WAT    HW248758   3.355   5.747   4.752
 9752WAT    LP148759   3.376   5.875   4.795
 9752WAT    LP248760   3.302   5.865   4.708
 9753WAT     OW48761   3.998   2.242   3.926
 9753WAT    HW148762   3.912   2.244   3.968
 9753WAT    HW248763   4.047   2.313   3.968
 9753WAT    LP148764   4.030   2.181   3.937
 9753WAT    LP248765   3.992   2.254   3.857
 9754WAT     OW48766   5.057   5.160   5.502
 9754WAT    HW148767   5.146   5.147   5.534
 9754WAT    HW248768   5.027   5.238   5.548
 9754WAT    LP148769   5.057   5.171   5.432
 9754WAT    LP248770   5.017   5.105   5.517
 9755WAT     OW48771   0.317   3.959   5.485
 9755WAT    HW148772   0.271   3.950   5.402
 9755WAT    HW248773   0.319   3.869   5.520
 9755WAT    LP148774   0.382   3.983   5.475
 9755WAT    LP248775   0.282   4.001   5.528
 9756WAT     OW48776   4.347   4.153   0.430
 9756WAT    HW148777   4.252   4.141   0.432
 9756WAT    HW248778   4.376   4.134   0.519
 9756WAT    LP148779   4.376   4.108   0.384
 9756WAT    LP248780   4.363   4.218   0.412
 9757WAT     OW48781   0.946   0.519   2.171
 9757WAT    HW148782   0.953   0.523   2.266
 9757WAT    HW248783   0.891   0.594   2.148
 9757WAT    LP148784   1.009   0.525   2.141
 9757WAT    LP248785   0.915   0.459   2.151
 9758WAT     OW48786   1.905   5.530   4.106
 9758WAT    HW148787   1.810   5.527   4.105
 9758WAT    HW248788   1.929   5.499   4.193
 9758WAT    LP148789   1.932   5.487   4.057
 9758WAT    LP248790   1.928   5.595   4.095
 9759WAT     OW48791   0.317   1.103   2.721
 9759WAT    HW148792   0.342   1.139   2.636
 9759WAT    HW248793   0.332   1.175   2.782
 9759WAT    LP148794   0.250   1.083   2.721
 9759WAT    LP248795   0.358   1.048   2.738
 9760WAT     OW48796   6.056   6.128   6.555
 9760WAT    HW148797   5.998   6.143   6.630
 9760WAT    HW248798   6.052   6.210   6.506
 9760WAT    LP148799   6.121   6.115   6.576
 9760WAT    LP248800   6.032   6.075   6.516
 9761WAT     OW48801   0.919   4.018   5.195
 9761WAT    HW148802   0.871   4.072   5.258
 9761WAT    HW248803   0.862   4.014   5.118
 9761WAT    LP148804   0.980   4.049   5.178
 9761WAT    LP248805   0.931   3.954   5.220
 9762WAT     OW48806   3.951   4.353   1.693
 9762WAT    HW148807   4.004   4.313   1.625
 9762WAT    HW248808   3.862   4.321   1.678
 9762WAT    LP148809   3.974   4.334   1.757
 9762WAT    LP248810   3.953   4.423   1.688
 9763WAT     OW48811   2.060   2.363   5.009
 9763WAT    HW148812   2.016   2.283   4.983
 9763WAT    HW248813   1.991   2.429   5.012
 9763WAT    LP148814   2.090   2.356   5.073
 9763WAT    LP248815   2.110   2.380   4.963
 9764WAT     OW48816   2.431   1.199   6.292
 9764WAT    HW148817   2.506   1.249   6.262
 9764WAT    HW248818   2.442   1.112   6.253
 9764WAT    LP148819   2.429   1.195   6.362
 9764WAT    LP248820   2.371   1.228   6.269
 9765WAT     OW48821   3.234   2.969   1.947
 9765WAT    HW148822   3.145   2.990   1.977
 9765WAT    HW248823   3.240   3.008   1.860
 9765WAT    LP148824   3.281   2.997   1.990
 9765WAT    LP248825   3.243   2.899   1.944
 9766WAT     OW48826   0.222   6.362   3.069
 9766WAT    HW148827   0.184   6.336   3.153
 9766WAT    HW248828   0.247   6.453   3.082
 9766WAT    LP148829   0.278   6.323   3.054
 9766WAT    LP248830   0.175   6.356   3.018
 9767WAT     OW48831   6.307   4.986   0.967
 9767WAT    HW148832   6.280   5.077   0.981
 9767WAT    HW248833   6.259   4.937   1.034
 9767WAT    LP148834   6.290   4.965   0.903
 9767WAT    LP248835   6.376   4.980   0.976
 9768WAT     OW48836   4.775   6.543   0.984
 9768WAT    HW148837   4.765   6.628   1.026
 9768WAT    HW248838   4.846   6.555   0.921
 9768WAT    LP148839   4.792   6.494   1.031
 9768WAT    LP248840   4.716   6.524   0.951
 9769WAT     OW48841   3.348   0.075   0.292
 9769WAT    HW148842   3.294   0.024   0.232
 9769WAT    HW248843   3.286   0.134   0.336
 9769WAT    LP148844   3.380   0.034   0.339
 9769WAT    LP248845   3.396   0.112   0.257
 9770WAT     OW48846   4.694   5.196   0.694
 9770WAT    HW148847   4.638   5.166   0.766
 9770WAT    HW248848   4.637   5.253   0.642
 9770WAT    LP148849   4.749   5.231   0.718
 9770WAT    LP248850   4.716   5.141   0.655
 9771WAT     OW48851   3.018   0.345   5.152
 9771WAT    HW148852   3.041   0.308   5.238
 9771WAT    HW248853   3.073   0.296   5.091
 9771WAT    LP148854   2.950   0.335   5.139
 9771WAT    LP248855   3.033   0.413   5.150
 9772WAT     OW48856   6.248   0.371   2.673
 9772WAT    HW148857   6.161   0.391   2.640
 9772WAT    HW248858   6.239   0.371   2.768
 9772WAT    LP148859   6.270   0.309   2.650
 9772WAT    LP248860   6.294   0.420   2.653
 9773WAT     OW48861   5.001   3.076   2.495
 9773WAT    HW148862   5.043   3.062   2.579
 9773WAT    HW248863   4.918   3.028   2.501
 9773WAT    LP148864   4.989   3.144   2.483
 9773WAT    LP248865   5.040   3.050   2.443
 9774WAT     OW48866   5.657   2.148   0.351
 9774WAT    HW148867   5.604   2.124   0.427
 9774WAT    HW248868   5.740   2.101   0.364
 9774WAT    LP148869   5.626   2.127   0.292
 9774WAT    LP248870   5.668   2.217   0.349
 9775WAT     OW48871   5.351   6.155   0.854
 9775WAT    HW148872   5.304   6.088   0.904
 9775WAT    HW248873   5.358   6.120   0.766
 9775WAT    LP148874   5.315   6.215   0.854
 9775WAT    LP248875   5.414   6.167   0.882
 9776WAT     OW48876   2.915   3.795   3.544
 9776WAT    HW148877   2.867   3.745   3.610
 9776WAT    HW248878   2.998   3.818   3.586
 9776WAT    LP148879   2.926   3.755   3.487
 9776WAT    LP248880   2.879   3.852   3.525
 9777WAT     OW48881   5.007   2.789   3.082
 9777WAT    HW148882   4.920   2.754   3.098
 9777WAT    HW248883   4.993   2.878   3.051
 9777WAT    LP148884   5.045   2.789   3.141
 9777WAT    LP248885   5.040   2.751   3.033
 9778WAT     OW48886   4.950   1.459   2.219
 9778WAT    HW148887   4.929   1.409   2.140
 9778WAT    HW248888   4.922   1.548   2.199
 9778WAT    LP148889   4.915   1.434   2.274
 9778WAT    LP248890   5.018   1.456   2.232
 9779WAT     OW48891   6.132   1.185   5.136
 9779WAT    HW148892   6.065   1.250   5.156
 9779WAT    HW248893   6.082   1.104   5.122
 9779WAT    LP148894   6.167   1.202   5.078
 9779WAT    LP248895   6.176   1.177   5.189
 9780WAT     OW48896   2.762   4.788   5.530
 9780WAT    HW148897   2.666   4.795   5.533
 9780WAT    HW248898   2.792   4.843   5.602
 9780WAT    LP148899   2.781   4.722   5.540
 9780WAT    LP248900   2.786   4.811   5.469
 9781WAT     OW48901   4.902   2.068   5.669
 9781WAT    HW148902   4.957   2.102   5.740
 9781WAT    HW248903   4.878   2.145   5.618
 9781WAT    LP148904   4.938   2.023   5.629
 9781WAT    LP248905   4.846   2.036   5.695
 9782WAT     OW48906   3.256   5.443   5.630
 9782WAT    HW148907   3.338   5.395   5.618
 9782WAT    HW248908   3.264   5.518   5.570
 9782WAT    LP148909   3.201   5.404   5.613
 9782WAT    LP248910   3.250   5.466   5.696
 9783WAT     OW48911   6.514   5.712   1.946
 9783WAT    HW148912   6.458   5.656   1.892
 9783WAT    HW248913   6.464   5.792   1.957
 9783WAT    LP148914   6.526   5.682   2.008
 9783WAT    LP248915   6.575   5.724   1.914
 9784WAT     OW48916   3.569   5.876   5.937
 9784WAT    HW148917   3.568   5.940   5.865
 9784WAT    HW248918   3.631   5.809   5.909
 9784WAT    LP148919   3.591   5.907   5.996
 9784WAT    LP248920   3.505   5.849   5.947
 9785WAT     OW48921   5.280   3.440   5.567
 9785WAT    HW148922   5.259   3.508   5.631
 9785WAT    HW248923   5.197   3.426   5.520
 9785WAT    LP148924   5.330   3.462   5.523
 9785WAT    LP248925   5.300   3.382   5.599
 9786WAT     OW48926   3.010   0.794   0.145
 9786WAT    HW148927   3.031   0.707   0.179
 9786WAT    HW248928   2.989   0.845   0.223
 9786WAT    LP148929   3.064   0.821   0.111
 9786WAT    LP248930   2.954   0.791   0.102
 9787WAT     OW48931   0.036   3.834   1.379
 9787WAT    HW148932   0.048   3.743   1.352
 9787WAT    HW248933  -0.048   3.859   1.341
 9787WAT    LP148934   0.034   3.839   1.449
 9787WAT    LP248935   0.087   3.874   1.354
 9788WAT     OW48936   5.323   4.185   0.165
 9788WAT    HW148937   5.301   4.222   0.250
 9788WAT    HW248938   5.381   4.111   0.185
 9788WAT    LP148939   5.265   4.162   0.132
 9788WAT    LP248940   5.356   4.232   0.125
 9789WAT     OW48941   1.500   5.324   0.288
 9789WAT    HW148942   1.433   5.355   0.227
 9789WAT    HW248943   1.540   5.249   0.245
 9789WAT    LP148944   1.547   5.374   0.299
 9789WAT    LP248945   1.471   5.305   0.349
 9790WAT     OW48946   3.693   0.115   4.788
 9790WAT    HW148947   3.686   0.189   4.728
 9790WAT    HW248948   3.747   0.147   4.860
 9790WAT    LP148949   3.630   0.096   4.811
 9790WAT    LP248950   3.724   0.060   4.756
 9791WAT     OW48951   2.319   3.865   5.309
 9791WAT    HW148952   2.341   3.776   5.336
 9791WAT    HW248953   2.392   3.919   5.342
 9791WAT    LP148954   2.315   3.870   5.239
 9791WAT    LP248955   2.259   3.886   5.337
 9792WAT     OW48956   2.950   6.458   1.398
 9792WAT    HW148957   2.951   6.490   1.488
 9792WAT    HW248958   3.024   6.399   1.392
 9792WAT    LP148959   2.890   6.424   1.384
 9792WAT    LP248960   2.957   6.511   1.353
 9793WAT     OW48961   3.545   4.005   0.263
 9793WAT    HW148962   3.586   3.985   0.347
 9793WAT    HW248963   3.583   4.090   0.237
 9793WAT    LP148964   3.560   3.956   0.216
 9793WAT    LP248965   3.475   4.011   0.270
 9794WAT     OW48966   3.909   1.738   5.300
 9794WAT    HW148967   3.837   1.738   5.363
 9794WAT    HW248968   3.876   1.689   5.225
 9794WAT    LP148969   3.925   1.804   5.281
 9794WAT    LP248970   3.965   1.707   5.327
 9795WAT     OW48971   4.947   4.594   6.623
 9795WAT    HW148972   4.891   4.656   6.577
 9795WAT    HW248973   4.959   4.633   6.710
 9795WAT    LP148974   4.916   4.532   6.628
 9795WAT    LP248975   5.008   4.587   6.590
 9796WAT     OW48976   6.202   1.564   1.595
 9796WAT    HW148977   6.145   1.633   1.628
 9796WAT    HW248978   6.278   1.611   1.558
 9796WAT    LP148979   6.222   1.521   1.646
 9796WAT    LP248980   6.170   1.527   1.545
 9797WAT     OW48981   4.252   6.147   2.900
 9797WAT    HW148982   4.206   6.167   2.819
 9797WAT    HW248983   4.288   6.231   2.928
 9797WAT    LP148984   4.208   6.122   2.948
 9797WAT    LP248985   4.303   6.100   2.888
 9798WAT     OW48986   1.135   0.958   5.021
 9798WAT    HW148987   1.153   1.052   5.025
 9798WAT    HW248988   1.115   0.933   5.111
 9798WAT    LP148989   1.081   0.945   4.979
 9798WAT    LP248990   1.191   0.923   4.998
 9799WAT     OW48991   5.528   2.401   4.657
 9799WAT    HW148992   5.616   2.405   4.694
 9799WAT    HW248993   5.540   2.427   4.565
 9799WAT    LP148994   5.503   2.336   4.661
 9799WAT    LP248995   5.485   2.445   4.690
 9800WAT     OW48996   4.442   4.777   6.306
 9800WAT    HW148997   4.381   4.742   6.242
 9800WAT    HW248998   4.426   4.725   6.385
 9800WAT    LP148999   4.508   4.769   6.285
 9800WAT    LP249000   4.429   4.845   6.318
 9801WAT     OW49001   5.659   1.872   1.723
 9801WAT    HW149002   5.584   1.831   1.765
 9801WAT    HW249003   5.688   1.939   1.785
 9801WAT    LP149004   5.710   1.825   1.712
 9801WAT    LP249005   5.641   1.901   1.662
 9802WAT     OW49006   1.008   5.652   4.977
 9802WAT    HW149007   0.913   5.646   4.962
 9802WAT    HW249008   1.019   5.729   5.032
 9802WAT    LP149009   1.031   5.595   5.009
 9802WAT    LP249010   1.041   5.660   4.916
 9803WAT     OW49011   4.458   0.089   3.734
 9803WAT    HW149012   4.518   0.094   3.660
 9803WAT    HW249013   4.398   0.018   3.711
 9803WAT    LP149014   4.492   0.074   3.793
 9803WAT    LP249015   4.423   0.149   3.742
 9804WAT     OW49016   5.650   5.840   5.650
 9804WAT    HW149017   5.664   5.764   5.706
 9804WAT    HW249018   5.557   5.862   5.661
 9804WAT    LP149019   5.690   5.894   5.670
 9804WAT    LP249020   5.664   5.824   5.583
 9805WAT     OW49021   5.760   5.545   2.563
 9805WAT    HW149022   5.814   5.620   2.534
 9805WAT    HW249023   5.672   5.565   2.531
 9805WAT    LP149024   5.784   5.486   2.535
 9805WAT    LP249025   5.760   5.540   2.633
 9806WAT     OW49026   4.745   1.460   2.504
 9806WAT    HW149027   4.836   1.489   2.512
 9806WAT    HW249028   4.746   1.369   2.531
 9806WAT    LP149029   4.704   1.498   2.545
 9806WAT    LP249030   4.724   1.466   2.437
 9807WAT     OW49031   6.280   1.352   1.751
 9807WAT    HW149032   6.373   1.343   1.728
 9807WAT    HW249033   6.250   1.427   1.699
 9807WAT    LP149034   6.245   1.294   1.733
 9807WAT    LP249035   6.273   1.364   1.819
 9808WAT     OW49036   6.650   3.632   2.953
 9808WAT    HW149037   6.596   3.707   2.978
 9808WAT    HW249038   6.733   3.647   2.998
 9808WAT    LP149039   6.621   3.572   2.974
 9808WAT    LP249040   6.660   3.631   2.884
 9809WAT     OW49041   1.451   6.437   3.714
 9809WAT    HW149042   1.418   6.384   3.642
 9809WAT    HW249043   1.406   6.403   3.791
 9809WAT    LP149044   1.520   6.430   3.720
 9809WAT    LP249045   1.435   6.505   3.704
 9810WAT     OW49046   3.453   4.056   5.179
 9810WAT    HW149047   3.457   4.128   5.242
 9810WAT    HW249048   3.543   4.023   5.175
 9810WAT    LP149049   3.409   4.007   5.200
 9810WAT    LP249050   3.433   4.080   5.116
 9811WAT     OW49051   3.549   6.302   6.443
 9811WAT    HW149052   3.495   6.236   6.400
 9811WAT    HW249053   3.505   6.385   6.424
 9811WAT    LP149054   3.552   6.291   6.512
 9811WAT    LP249055   3.614   6.302   6.417
 9812WAT     OW49056   1.034   2.057   4.996
 9812WAT    HW149057   1.035   2.085   5.088
 9812WAT    HW249058   1.033   1.962   5.000
 9812WAT    LP149059   0.976   2.081   4.964
 9812WAT    LP249060   1.091   2.080   4.962
 9813WAT     OW49061   5.734   5.219   0.661
 9813WAT    HW149062   5.740   5.310   0.690
 9813WAT    HW249063   5.723   5.168   0.741
 9813WAT    LP149064   5.679   5.210   0.618
 9813WAT    LP249065   5.792   5.199   0.627
 9814WAT     OW49066   2.256   0.361   3.691
 9814WAT    HW149067   2.327   0.409   3.648
 9814WAT    HW249068   2.207   0.428   3.739
 9814WAT    LP149069   2.215   0.330   3.644
 9814WAT    LP249070   2.282   0.313   3.735
 9815WAT     OW49071   5.913   3.030   4.255
 9815WAT    HW149072   5.849   2.971   4.215
 9815WAT    HW249073   5.986   3.031   4.193
 9815WAT    LP149074   5.885   3.094   4.262
 9815WAT    LP249075   5.933   3.007   4.317
 9816WAT     OW49076   2.127   6.383   2.044
 9816WAT    HW149077   2.084   6.421   1.967
 9816WAT    HW249078   2.085   6.426   2.119
 9816WAT    LP149079   2.117   6.314   2.046
 9816WAT    LP249080   2.196   6.396   2.043
 9817WAT     OW49081   2.773   1.621   5.530
 9817WAT    HW149082   2.831   1.697   5.532
 9817WAT    HW249083   2.742   1.612   5.620
 9817WAT    LP149084   2.720   1.632   5.486
 9817WAT    LP249085   2.808   1.564   5.511
 9818WAT     OW49086   2.386   4.251   0.237
 9818WAT    HW149087   2.327   4.175   0.241
 9818WAT    HW249088   2.444   4.232   0.164
 9818WAT    LP149089   2.350   4.309   0.226
 9818WAT    LP249090   2.422   4.257   0.297
 9819WAT     OW49091   2.022   5.832   1.197
 9819WAT    HW149092   1.993   5.922   1.212
 9819WAT    HW249093   1.949   5.778   1.227
 9819WAT    LP149094   2.035   5.821   1.129
 9819WAT    LP249095   2.080   5.818   1.235
 9820WAT     OW49096   2.852   6.058   1.675
 9820WAT    HW149097   2.793   6.107   1.617
 9820WAT    HW249098   2.814   6.070   1.762
 9820WAT    LP149099   2.853   5.990   1.657
 9820WAT    LP249100   2.917   6.084   1.672
 9821WAT     OW49101   5.715   5.297   4.042
 9821WAT    HW149102   5.755   5.264   4.122
 9821WAT    HW249103   5.789   5.313   3.983
 9821WAT    LP149104   5.672   5.250   4.014
 9821WAT    LP249105   5.680   5.357   4.054
 9822WAT     OW49106   3.099   4.253   6.307
 9822WAT    HW149107   3.067   4.239   6.396
 9822WAT    HW249108   3.194   4.252   6.315
 9822WAT    LP149109   3.077   4.201   6.264
 9822WAT    LP249110   3.077   4.314   6.282
 9823WAT     OW49111   1.205   4.398   0.297
 9823WAT    HW149112   1.143   4.462   0.333
 9823WAT    HW249113   1.197   4.407   0.202
 9823WAT    LP149114   1.270   4.412   0.318
 9823WAT    LP249115   1.187   4.333   0.317
 9824WAT     OW49116   3.424   1.352   4.586
 9824WAT    HW149117   3.370   1.276   4.563
 9824WAT    HW249118   3.394   1.422   4.530
 9824WAT    LP149119   3.415   1.368   4.654
 9824WAT    LP249120   3.492   1.338   4.575
 9825WAT     OW49121   1.377   3.503   3.822
 9825WAT    HW149122   1.445   3.511   3.755
 9825WAT    HW249123   1.362   3.409   3.829
 9825WAT    LP149124   1.399   3.530   3.883
 9825WAT    LP249125   1.319   3.536   3.801
 9826WAT     OW49126   5.548   1.066   3.679
 9826WAT    HW149127   5.512   1.035   3.596
 9826WAT    HW249128   5.588   0.989   3.719
 9826WAT    LP149129   5.597   1.116   3.668
 9826WAT    LP249130   5.498   1.092   3.720
 9827WAT     OW49131   3.870   1.310   1.835
 9827WAT    HW149132   3.816   1.273   1.766
 9827WAT    HW249133   3.821   1.293   1.916
 9827WAT    LP149134   3.933   1.280   1.837
 9827WAT    LP249135   3.878   1.379   1.826
 9828WAT     OW49136   0.308   0.227   2.192
 9828WAT    HW149137   0.243   0.265   2.133
 9828WAT    HW249138   0.279   0.137   2.206
 9828WAT    LP149139   0.372   0.228   2.163
 9828WAT    LP249140   0.309   0.262   2.253
 9829WAT     OW49141   5.902   4.009   2.037
 9829WAT    HW149142   5.842   4.078   2.006
 9829WAT    HW249143   5.844   3.943   2.074
 9829WAT    LP149144   5.939   3.983   1.984
 9829WAT    LP249145   5.945   4.035   2.086
 9830WAT     OW49146   0.086   3.809   1.663
 9830WAT    HW149147   0.077   3.857   1.580
 9830WAT    HW249148   0.052   3.721   1.642
 9830WAT    LP149149   0.153   3.805   1.683
 9830WAT    LP249150   0.048   3.839   1.713
 9831WAT     OW49151   3.139   5.117   1.892
 9831WAT    HW149152   3.133   5.157   1.805
 9831WAT    HW249153   3.074   5.164   1.945
 9831WAT    LP149154   3.123   5.049   1.889
 9831WAT    LP249155   3.203   5.124   1.919
 9832WAT     OW49156   3.733   1.182   1.615
 9832WAT    HW149157   3.655   1.136   1.582
 9832WAT    HW249158   3.790   1.111   1.646
 9832WAT    LP149159   3.764   1.217   1.563
 9832WAT    LP249160   3.716   1.225   1.667
 9833WAT     OW49161   5.626   0.267   3.233
 9833WAT    HW149162   5.612   0.351   3.276
 9833WAT    HW249163   5.718   0.268   3.207
 9833WAT    LP149164   5.613   0.214   3.277
 9833WAT    LP249165   5.584   0.260   3.177
 9834WAT     OW49166   5.363   3.718   2.939
 9834WAT    HW149167   5.375   3.740   3.031
 9834WAT    HW249168   5.275   3.749   2.918
 9834WAT    LP149169   5.411   3.751   2.899
 9834WAT    LP249170   5.369   3.649   2.929
 9835WAT     OW49171   0.335   2.012   4.913
 9835WAT    HW149172   0.412   2.061   4.883
 9835WAT    HW249173   0.261   2.069   4.891
 9835WAT    LP149174   0.330   1.951   4.880
 9835WAT    LP249175   0.338   2.001   4.982
 9836WAT     OW49176   3.315   5.614   3.110
 9836WAT    HW149177   3.386   5.579   3.056
 9836WAT    HW249178   3.247   5.547   3.108
 9836WAT    LP149179   3.337   5.625   3.176
 9836WAT    LP249180   3.291   5.674   3.083
 9837WAT     OW49181   4.922   4.040   1.582
 9837WAT    HW149182   4.995   4.008   1.635
 9837WAT    HW249183   4.926   4.135   1.592
 9837WAT    LP149184   4.930   4.022   1.515
 9837WAT    LP249185   4.861   4.015   1.606
 9838WAT     OW49186   5.639   3.365   4.119
 9838WAT    HW149187   5.702   3.381   4.050
 9838WAT    HW249188   5.691   3.333   4.193
 9838WAT    LP149189   5.606   3.425   4.136
 9838WAT    LP249190   5.592   3.317   4.100
 9839WAT     OW49191   5.094   4.662   5.709
 9839WAT    HW149192   5.031   4.673   5.637
 9839WAT    HW249193   5.128   4.751   5.723
 9839WAT    LP149194   5.062   4.639   5.767
 9839WAT    LP249195   5.145   4.618   5.690
 9840WAT     OW49196   0.203   2.249   4.851
 9840WAT    HW149197   0.245   2.283   4.772
 9840WAT    HW249198   0.236   2.305   4.921
 9840WAT    LP149199   0.133   2.254   4.846
 9840WAT    LP249200   0.221   2.182   4.862
 9841WAT     OW49201   6.031   5.751   3.881
 9841WAT    HW149202   5.989   5.837   3.887
 9841WAT    HW249203   6.090   5.748   3.955
 9841WAT    LP149204   5.983   5.700   3.885
 9841WAT    LP249205   6.066   5.745   3.821
 9842WAT     OW49206   4.973   6.556   0.783
 9842WAT    HW149207   4.979   6.461   0.782
 9842WAT    HW249208   5.063   6.586   0.766
 9842WAT    LP149209   4.930   6.579   0.732
 9842WAT    LP249210   4.951   6.579   0.845
 9843WAT     OW49211   1.370   4.453   1.578
 9843WAT    HW149212   1.356   4.535   1.625
 9843WAT    HW249213   1.352   4.475   1.486
 9843WAT    LP149214   1.436   4.431   1.586
 9843WAT    LP249215   1.326   4.403   1.600
 9844WAT     OW49216   6.212   3.797   0.911
 9844WAT    HW149217   6.252   3.752   0.986
 9844WAT    HW249218   6.286   3.821   0.855
 9844WAT    LP149219   6.168   3.754   0.878
 9844WAT    LP249220   6.177   3.854   0.932
 9845WAT     OW49221   2.151   4.230   3.346
 9845WAT    HW149222   2.082   4.190   3.400
 9845WAT    HW249223   2.134   4.196   3.258
 9845WAT    LP149224   2.146   4.299   3.347
 9845WAT    LP249225   2.214   4.210   3.368
 9846WAT     OW49226   6.636   1.390   1.978
 9846WAT    HW149227   6.566   1.416   2.039
 9846WAT    HW249228   6.690   1.468   1.969
 9846WAT    LP149229   6.673   1.337   2.004
 9846WAT    LP249230   6.609   1.372   1.916
 9847WAT     OW49231   2.509   3.148   0.224
 9847WAT    HW149232   2.522   3.196   0.306
 9847WAT    HW249233   2.594   3.106   0.206
 9847WAT    LP149234   2.459   3.099   0.231
 9847WAT    LP249235   2.492   3.191   0.172
 9848WAT     OW49236   2.169   5.802   1.614
 9848WAT    HW149237   2.238   5.804   1.681
 9848WAT    HW249238   2.149   5.710   1.602
 9848WAT    LP149239   2.112   5.837   1.636
 9848WAT    LP249240   2.192   5.831   1.554
 9849WAT     OW49241   4.289   2.174   0.569
 9849WAT    HW149242   4.227   2.151   0.500
 9849WAT    HW249243   4.372   2.135   0.541
 9849WAT    LP149244   4.294   2.243   0.575
 9849WAT    LP249245   4.269   2.146   0.630
 9850WAT     OW49246   1.610   2.840   0.678
 9850WAT    HW149247   1.644   2.858   0.766
 9850WAT    HW249248   1.624   2.922   0.630
 9850WAT    LP149249   1.645   2.787   0.648
 9850WAT    LP249250   1.542   2.825   0.681
 9851WAT     OW49251   2.986   2.806   5.027
 9851WAT    HW149252   2.981   2.892   4.986
 9851WAT    HW249253   3.076   2.799   5.058
 9851WAT    LP149254   2.941   2.801   5.080
 9851WAT    LP249255   2.972   2.755   4.980
 9852WAT     OW49256   3.956   3.477   4.871
 9852WAT    HW149257   4.023   3.536   4.837
 9852WAT    HW249258   3.978   3.467   4.964
 9852WAT    LP149259   3.892   3.505   4.864
 9852WAT    LP249260   3.959   3.415   4.838
 9853WAT     OW49261   5.164   6.196   3.584
 9853WAT    HW149262   5.083   6.156   3.553
 9853WAT    HW249263   5.198   6.244   3.509
 9853WAT    LP149264   5.151   6.240   3.637
 9853WAT    LP249265   5.209   6.147   3.605
 9854WAT     OW49266   0.580   5.459   5.390
 9854WAT    HW149267   0.529   5.437   5.468
 9854WAT    HW249268   0.658   5.503   5.425
 9854WAT    LP149269   0.598   5.401   5.355
 9854WAT    LP249270   0.544   5.502   5.349
 9855WAT     OW49271   2.677   4.174   0.726
 9855WAT    HW149272   2.706   4.191   0.636
 9855WAT    HW249273   2.671   4.261   0.766
 9855WAT    LP149274   2.615   4.142   0.726
 9855WAT    LP249275   2.724   4.135   0.760
 9856WAT     OW49276   4.009   2.467   2.984
 9856WAT    HW149277   3.964   2.472   3.068
 9856WAT    HW249278   3.965   2.395   2.938
 9856WAT    LP149279   4.003   2.527   2.948
 9856WAT    LP249280   4.077   2.452   2.993
 9857WAT     OW49281   0.242   0.133   5.195
 9857WAT    HW149282   0.234   0.066   5.263
 9857WAT    HW249283   0.321   0.181   5.218
 9857WAT    LP149284   0.249   0.104   5.132
 9857WAT    LP249285   0.186   0.175   5.195
 9858WAT     OW49286   4.979   3.415   1.996
 9858WAT    HW149287   4.977   3.341   1.935
 9858WAT    HW249288   4.934   3.383   2.074
 9858WAT    LP149289   5.045   3.433   2.010
 9858WAT    LP249290   4.946   3.470   1.969
 9859WAT     OW49291   6.738   4.574   1.831
 9859WAT    HW149292   6.795   4.587   1.756
 9859WAT    HW249293   6.714   4.663   1.858
 9859WAT    LP149294   6.681   4.538   1.813
 9859WAT    LP249295   6.772   4.541   1.883
 9860WAT     OW49296   1.905   6.403   0.884
 9860WAT    HW149297   1.913   6.477   0.944
 9860WAT    HW249298   1.993   6.367   0.877
 9860WAT    LP149299   1.861   6.355   0.911
 9860WAT    LP249300   1.881   6.423   0.822
 9861WAT     OW49301   0.351   0.208   5.848
 9861WAT    HW149302   0.388   0.290   5.882
 9861WAT    HW249303   0.293   0.177   5.917
 9861WAT    LP149304   0.315   0.220   5.789
 9861WAT    LP249305   0.402   0.162   5.835
 9862WAT     OW49306   3.784   6.511   1.993
 9862WAT    HW149307   3.764   6.457   2.069
 9862WAT    HW249308   3.874   6.541   2.007
 9862WAT    LP149309   3.780   6.474   1.934
 9862WAT    LP249310   3.740   6.566   1.989
 9863WAT     OW49311   0.718   6.636   3.084
 9863WAT    HW149312   0.785   6.635   3.016
 9863WAT    HW249313   0.638   6.661   3.037
 9863WAT    LP149314   0.711   6.573   3.114
 9863WAT    LP249315   0.733   6.684   3.133
 9864WAT     OW49316   0.636   0.273   1.430
 9864WAT    HW149317   0.655   0.323   1.509
 9864WAT    HW249318   0.545   0.247   1.439
 9864WAT    LP149319   0.645   0.313   1.373
 9864WAT    LP249320   0.678   0.217   1.425
 9865WAT     OW49321   1.615   0.313   0.204
 9865WAT    HW149322   1.571   0.228   0.209
 9865WAT    HW249323   1.648   0.317   0.114
 9865WAT    LP149324   1.570   0.365   0.216
 9865WAT    LP249325   1.668   0.317   0.249
 9866WAT     OW49326   1.674   0.213   1.573
 9866WAT    HW149327   1.718   0.130   1.556
 9866WAT    HW249328   1.730   0.279   1.532
 9866WAT    LP149329   1.610   0.214   1.544
 9866WAT    LP249330   1.668   0.225   1.642
 9867WAT     OW49331   2.865   4.387   0.536
 9867WAT    HW149332   2.786   4.438   0.519
 9867WAT    HW249333   2.937   4.443   0.508
 9867WAT    LP149334   2.871   4.371   0.604
 9867WAT    LP249335   2.865   4.327   0.498
 9868WAT     OW49336   0.939   3.260   2.297
 9868WAT    HW149337   0.908   3.183   2.344
 9868WAT    HW249338   0.859   3.305   2.270
 9868WAT    LP149339   0.978   3.301   2.338
 9868WAT    LP249340   0.977   3.241   2.241
 9869WAT     OW49341   4.588   1.708   0.834
 9869WAT    HW149342   4.523   1.638   0.840
 9869WAT    HW249343   4.537   1.787   0.816
 9869WAT    LP149344   4.622   1.715   0.895
 9869WAT    LP249345   4.633   1.695   0.783
 9870WAT     OW49346   0.947   1.819   0.187
 9870WAT    HW149347   0.932   1.840   0.095
 9870WAT    HW249348   0.878   1.757   0.209
 9870WAT    LP149349   1.010   1.791   0.196
 9870WAT    LP249350   0.942   1.877   0.226
 9871WAT     OW49351   5.030   2.319   2.623
 9871WAT    HW149352   5.064   2.234   2.594
 9871WAT    HW249353   5.042   2.377   2.549
 9871WAT    LP149354   4.962   2.314   2.640
 9871WAT    LP249355   5.066   2.341   2.679
 9872WAT     OW49356   5.321   4.870   1.127
 9872WAT    HW149357   5.252   4.936   1.120
 9872WAT    HW249358   5.343   4.849   1.036
 9872WAT    LP149359   5.377   4.896   1.160
 9872WAT    LP249360   5.298   4.813   1.160
 9873WAT     OW49361   2.697   6.392   5.702
 9873WAT    HW149362   2.650   6.310   5.693
 9873WAT    HW249363   2.790   6.368   5.693
 9873WAT    LP149364   2.679   6.437   5.652
 9873WAT    LP249365   2.685   6.420   5.765
 9874WAT     OW49366   5.080   2.800   2.279
 9874WAT    HW149367   5.149   2.855   2.317
 9874WAT    HW249368   5.127   2.728   2.237
 9874WAT    LP149369   5.037   2.776   2.329
 9874WAT    LP249370   5.043   2.836   2.232
 9875WAT     OW49371   3.555   4.925   0.941
 9875WAT    HW149372   3.528   4.926   1.033
 9875WAT    HW249373   3.631   4.983   0.938
 9875WAT    LP149374   3.572   4.861   0.921
 9875WAT    LP249375   3.504   4.949   0.900
 9876WAT     OW49376   3.899   5.059   3.194
 9876WAT    HW149377   3.933   5.016   3.116
 9876WAT    HW249378   3.937   5.010   3.267
 9876WAT    LP149379   3.920   5.126   3.195
 9876WAT    LP249380   3.829   5.057   3.195
 9877WAT     OW49381   6.199   2.517   3.571
 9877WAT    HW149382   6.227   2.590   3.516
 9877WAT    HW249383   6.105   2.510   3.556
 9877WAT    LP149384   6.231   2.458   3.552
 9877WAT    LP249385   6.213   2.530   3.638
 9878WAT     OW49386   5.895   1.821   1.194
 9878WAT    HW149387   5.810   1.865   1.194
 9878WAT    HW249388   5.897   1.773   1.277
 9878WAT    LP149389   5.900   1.777   1.140
 9878WAT    LP249390   5.947   1.867   1.191
 9879WAT     OW49391   0.872   0.176   3.727
 9879WAT    HW149392   0.865   0.170   3.823
 9879WAT    HW249393   0.864   0.270   3.709
 9879WAT    LP149394   0.933   0.152   3.705
 9879WAT    LP249395   0.820   0.141   3.696
 9880WAT     OW49396   5.703   2.078   6.235
 9880WAT    HW149397   5.712   1.993   6.192
 9880WAT    HW249398   5.707   2.059   6.328
 9880WAT    LP149399   5.755   2.121   6.216
 9880WAT    LP249400   5.641   2.107   6.219
 9881WAT     OW49401   4.274   1.175   1.152
 9881WAT    HW149402   4.279   1.160   1.246
 9881WAT    HW249403   4.266   1.088   1.113
 9881WAT    LP149404   4.218   1.215   1.136
 9881WAT    LP249405   4.332   1.207   1.129
 9882WAT     OW49406   3.955   2.227   1.112
 9882WAT    HW149407   4.047   2.205   1.126
 9882WAT    HW249408   3.956   2.309   1.064
 9882WAT    LP149409   3.923   2.177   1.075
 9882WAT    LP249410   3.922   2.234   1.174
 9883WAT     OW49411   3.072   3.888   0.969
 9883WAT    HW149412   3.068   3.924   1.058
 9883WAT    HW249413   3.008   3.939   0.920
 9883WAT    LP149414   3.136   3.896   0.942
 9883WAT    LP249415   3.055   3.820   0.969
 9884WAT     OW49416   5.210   1.224   0.969
 9884WAT    HW149417   5.154   1.146   0.963
 9884WAT    HW249418   5.244   1.237   0.881
 9884WAT    LP149419   5.174   1.279   0.991
 9884WAT    LP249420   5.263   1.212   1.014
 9885WAT     OW49421   3.566   4.115   0.636
 9885WAT    HW149422   3.554   4.084   0.726
 9885WAT    HW249423   3.591   4.037   0.587
 9885WAT    LP149424   3.506   4.142   0.611
 9885WAT    LP249425   3.616   4.164   0.633
 9886WAT     OW49426   4.801   1.190   2.543
 9886WAT    HW149427   4.732   1.125   2.560
 9886WAT    HW249428   4.870   1.167   2.605
 9886WAT    LP149429   4.824   1.184   2.477
 9886WAT    LP249430   4.777   1.255   2.555
 9887WAT     OW49431   5.502   4.598   3.887
 9887WAT    HW149432   5.442   4.626   3.957
 9887WAT    HW249433   5.469   4.642   3.809
 9887WAT    LP149434   5.567   4.618   3.901
 9887WAT    LP249435   5.499   4.528   3.879
 9888WAT     OW49436   1.962   4.626   4.183
 9888WAT    HW149437   1.911   4.599   4.259
 9888WAT    HW249438   1.918   4.585   4.108
 9888WAT    LP149439   1.963   4.696   4.176
 9888WAT    LP249440   2.028   4.603   4.188
 9889WAT     OW49441   4.187   3.561   2.185
 9889WAT    HW149442   4.133   3.636   2.159
 9889WAT    HW249443   4.160   3.490   2.127
 9889WAT    LP149444   4.255   3.575   2.177
 9889WAT    LP249445   4.175   3.544   2.252
 9890WAT     OW49446   3.031   3.203   4.559
 9890WAT    HW149447   2.985   3.126   4.592
 9890WAT    HW249448   3.108   3.167   4.514
 9890WAT    LP149449   2.991   3.239   4.514
 9890WAT    LP249450   3.050   3.245   4.612
 9891WAT     OW49451   0.406   2.840   5.149
 9891WAT    HW149452   0.352   2.863   5.073
 9891WAT    HW249453   0.488   2.809   5.111
 9891WAT    LP149454   0.417   2.896   5.189
 9891WAT    LP249455   0.376   2.789   5.186
 9892WAT     OW49456   6.321   4.288   1.962
 9892WAT    HW149457   6.282   4.316   1.879
 9892WAT    HW249458   6.408   4.329   1.962
 9892WAT    LP149459   6.283   4.311   2.016
 9892WAT    LP249460   6.326   4.219   1.965
 9893WAT     OW49461   5.519   5.065   5.418
 9893WAT    HW149462   5.611   5.072   5.391
 9893WAT    HW249463   5.515   4.983   5.467
 9893WAT    LP149464   5.501   5.119   5.458
 9893WAT    LP249465   5.477   5.062   5.362
 9894WAT     OW49466   4.359   3.002   3.765
 9894WAT    HW149467   4.312   2.925   3.733
 9894WAT    HW249468   4.290   3.067   3.783
 9894WAT    LP149469   4.394   2.987   3.824
 9894WAT    LP249470   4.403   3.026   3.717
 9895WAT     OW49471   1.698   1.660   0.120
 9895WAT    HW149472   1.623   1.660   0.180
 9895WAT    HW249473   1.724   1.752   0.115
 9895WAT    LP149474   1.749   1.620   0.145
 9895WAT    LP249475   1.679   1.637   0.057
 9896WAT     OW49476   3.667   0.911   0.449
 9896WAT    HW149477   3.757   0.922   0.420
 9896WAT    HW249478   3.653   0.981   0.513
 9896WAT    LP149479   3.623   0.918   0.395
 9896WAT    LP249480   3.658   0.848   0.478
 9897WAT     OW49481   6.691   4.990   2.677
 9897WAT    HW149482   6.780   4.970   2.649
 9897WAT    HW249483   6.685   5.085   2.676
 9897WAT    LP149484   6.644   4.962   2.633
 9897WAT    LP249485   6.679   4.965   2.742
 9898WAT     OW49486   3.858   1.659   0.778
 9898WAT    HW149487   3.843   1.577   0.731
 9898WAT    HW249488   3.860   1.635   0.870
 9898WAT    LP149489   3.919   1.688   0.758
 9898WAT    LP249490   3.806   1.704   0.765
 9899WAT     OW49491   3.204   6.316   3.943
 9899WAT    HW149492   3.129   6.356   3.988
 9899WAT    HW249493   3.256   6.391   3.913
 9899WAT    LP149494   3.241   6.276   3.987
 9899WAT    LP249495   3.182   6.278   3.889
 9900WAT     OW49496   6.112   2.166   1.930
 9900WAT    HW149497   6.089   2.259   1.927
 9900WAT    HW249498   6.196   2.163   1.976
 9900WAT    LP149499   6.063   2.129   1.965
 9900WAT    LP249500   6.118   2.140   1.865
 9901WAT     OW49501   1.831   0.435   3.456
 9901WAT    HW149502   1.822   0.368   3.524
 9901WAT    HW249503   1.898   0.494   3.490
 9901WAT    LP149504   1.852   0.407   3.396
 9901WAT    LP249505   1.771   0.469   3.447
 9902WAT     OW49506   6.437   3.160   6.384
 9902WAT    HW149507   6.377   3.086   6.381
 9902WAT    HW249508   6.512   3.129   6.434
 9902WAT    LP149509   6.457   3.179   6.319
 9902WAT    LP249510   6.407   3.215   6.415
 9903WAT     OW49511   0.550   4.803   6.175
 9903WAT    HW149512   0.516   4.782   6.087
 9903WAT    HW249513   0.515   4.890   6.193
 9903WAT    LP149514   0.527   4.757   6.222
 9903WAT    LP249515   0.620   4.804   6.175
 9904WAT     OW49516   1.946   3.556   1.507
 9904WAT    HW149517   1.874   3.508   1.466
 9904WAT    HW249518   2.022   3.540   1.450
 9904WAT    LP149519   1.931   3.625   1.510
 9904WAT    LP249520   1.958   3.532   1.572
 9905WAT     OW49521   1.516   0.333   0.593
 9905WAT    HW149522   1.480   0.276   0.525
 9905WAT    HW249523   1.441   0.380   0.627
 9905WAT    LP149524   1.547   0.295   0.643
 9905WAT    LP249525   1.563   0.377   0.566
 9906WAT     OW49526   2.156   4.625   2.743
 9906WAT    HW149527   2.247   4.627   2.714
 9906WAT    HW249528   2.110   4.684   2.683
 9906WAT    LP149529   2.130   4.560   2.738
 9906WAT    LP249530   2.150   4.647   2.809
 9907WAT     OW49531   4.006   0.576   3.918
 9907WAT    HW149532   4.077   0.567   3.982
 9907WAT    HW249533   3.974   0.666   3.932
 9907WAT    LP149534   4.030   0.568   3.853
 9907WAT    LP249535   3.955   0.530   3.931
 9908WAT     OW49536   4.467   1.250   0.965
 9908WAT    HW149537   4.398   1.238   1.030
 9908WAT    HW249538   4.536   1.190   0.991
 9908WAT    LP149539   4.443   1.234   0.901
 9908WAT    LP249540   4.490   1.316   0.965
 9909WAT     OW49541   2.438   4.627   2.679
 9909WAT    HW149542   2.505   4.624   2.610
 9909WAT    HW249543   2.471   4.691   2.741
 9909WAT    LP149544   2.376   4.647   2.653
 9909WAT    LP249545   2.431   4.564   2.709
 9910WAT     OW49546   2.532   5.645   0.468
 9910WAT    HW149547   2.467   5.706   0.504
 9910WAT    HW249548   2.503   5.629   0.379
 9910WAT    LP149549   2.596   5.674   0.469
 9910WAT    LP249550   2.533   5.585   0.505
 9911WAT     OW49551   4.894   5.614   3.627
 9911WAT    HW149552   4.801   5.596   3.639
 9911WAT    HW249553   4.938   5.532   3.650
 9911WAT    LP149554   4.908   5.632   3.561
 9911WAT    LP249555   4.915   5.665   3.670
 9912WAT     OW49556   2.973   6.530   1.662
 9912WAT    HW149557   3.058   6.548   1.703
 9912WAT    HW249558   2.916   6.599   1.696
 9912WAT    LP149559   2.978   6.534   1.592
 9912WAT    LP249560   2.949   6.467   1.681
 9913WAT     OW49561   4.438   1.896   2.082
 9913WAT    HW149562   4.371   1.956   2.049
 9913WAT    HW249563   4.391   1.815   2.101
 9913WAT    LP149564   4.487   1.885   2.033
 9913WAT    LP249565   4.468   1.922   2.140
 9914WAT     OW49566   3.628   2.172   0.110
 9914WAT    HW149567   3.654   2.244   0.168
 9914WAT    HW249568   3.700   2.109   0.116
 9914WAT    LP149569   3.568   2.143   0.131
 9914WAT    LP249570   3.622   2.195   0.044
 9915WAT     OW49571   5.608   3.010   1.692
 9915WAT    HW149572   5.550   3.080   1.663
 9915WAT    HW249573   5.583   2.993   1.782
 9915WAT    LP149574   5.600   2.953   1.652
 9915WAT    LP249575   5.675   3.031   1.689
 9916WAT     OW49576   4.404   6.267   4.879
 9916WAT    HW149577   4.443   6.181   4.897
 9916WAT    HW249578   4.324   6.247   4.831
 9916WAT    LP149579   4.389   6.300   4.939
 9916WAT    LP249580   4.447   6.306   4.840
 9917WAT     OW49581   4.658   4.372   1.547
 9917WAT    HW149582   4.611   4.305   1.596
 9917WAT    HW249583   4.594   4.442   1.534
 9917WAT    LP149584   4.713   4.396   1.583
 9917WAT    LP249585   4.680   4.347   1.485
 9918WAT     OW49586   5.009   1.463   0.392
 9918WAT    HW149587   4.927   1.414   0.383
 9918WAT    HW249588   4.996   1.541   0.339
 9918WAT    LP149589   5.020   1.481   0.459
 9918WAT    LP249590   5.063   1.425   0.369
 9919WAT     OW49591   2.097   0.085   2.841
 9919WAT    HW149592   2.074   0.090   2.933
 9919WAT    HW249593   2.032   0.025   2.803
 9919WAT    LP149594   2.093   0.148   2.810
 9919WAT    LP249595   2.162   0.059   2.833
 9920WAT     OW49596   5.581   3.935   5.729
 9920WAT    HW149597   5.676   3.937   5.719
 9920WAT    HW249598   5.548   3.915   5.642
 9920WAT    LP149599   5.562   3.885   5.775
 9920WAT    LP249600   5.557   3.996   5.752
 9921WAT     OW49601   2.040   1.658   0.853
 9921WAT    HW149602   2.118   1.688   0.900
 9921WAT    HW249603   1.979   1.731   0.860
 9921WAT    LP149604   2.055   1.644   0.786
 9921WAT    LP249605   2.014   1.600   0.883
 9922WAT     OW49606   6.642   5.410   5.843
 9922WAT    HW149607   6.583   5.486   5.845
 9922WAT    HW249608   6.681   5.407   5.930
 9922WAT    LP149609   6.606   5.351   5.830
 9922WAT    LP249610   6.691   5.418   5.794
 9923WAT     OW49611   3.562   3.885   5.582
 9923WAT    HW149612   3.516   3.966   5.606
 9923WAT    HW249613   3.518   3.817   5.634
 9923WAT    LP149614   3.556   3.872   5.514
 9923WAT    LP249615   3.629   3.889   5.600
 9924WAT     OW49616   3.510   4.834   3.359
 9924WAT    HW149617   3.560   4.760   3.326
 9924WAT    HW249618   3.552   4.911   3.319
 9924WAT    LP149619   3.443   4.829   3.339
 9924WAT    LP249620   3.514   4.837   3.429
 9925WAT     OW49621   6.523   0.678   0.630
 9925WAT    HW149622   6.560   0.644   0.711
 9925WAT    HW249623   6.598   0.710   0.580
 9925WAT    LP149624   6.490   0.627   0.595
 9925WAT    LP249625   6.478   0.730   0.643
 9926WAT     OW49626   2.031   4.894   4.188
 9926WAT    HW149627   1.956   4.950   4.164
 9926WAT    HW249628   1.999   4.805   4.174
 9926WAT    LP149629   2.086   4.908   4.146
 9926WAT    LP249630   2.049   4.904   4.255
 9927WAT     OW49631   6.160   3.016   2.310
 9927WAT    HW149632   6.138   2.982   2.397
 9927WAT    HW249633   6.125   2.950   2.249
 9927WAT    LP149634   6.130   3.078   2.299
 9927WAT    LP249635   6.229   3.022   2.303
 9928WAT     OW49636   1.153   2.033   6.206
 9928WAT    HW149637   1.247   2.044   6.222
 9928WAT    HW249638   1.127   2.115   6.162
 9928WAT    LP149639   1.141   1.978   6.164
 9928WAT    LP249640   1.118   2.025   6.266
 9929WAT     OW49641   1.996   2.516   1.911
 9929WAT    HW149642   1.949   2.522   1.828
 9929WAT    HW249643   2.015   2.607   1.934
 9929WAT    LP149644   1.957   2.486   1.960
 9929WAT    LP249645   2.056   2.480   1.903
 9930WAT     OW49646   0.660   6.393   3.190
 9930WAT    HW149647   0.742   6.357   3.224
 9930WAT    HW249648   0.682   6.482   3.163
 9930WAT    LP149649   0.637   6.355   3.135
 9930WAT    LP249650   0.611   6.393   3.240
 9931WAT     OW49651   2.564   3.860   1.647
 9931WAT    HW149652   2.541   3.801   1.576
 9931WAT    HW249653   2.641   3.908   1.615
 9931WAT    LP149654   2.512   3.904   1.662
 9931WAT    LP249655   2.581   3.824   1.705
 9932WAT     OW49656   4.398   6.618   1.203
 9932WAT    HW149657   4.333   6.673   1.248
 9932WAT    HW249658   4.427   6.557   1.271
 9932WAT    LP149659   4.369   6.584   1.150
 9932WAT    LP249660   4.451   6.657   1.180
 9933WAT     OW49661   6.041   6.005   0.923
 9933WAT    HW149662   5.986   5.929   0.904
 9933WAT    HW249663   6.118   5.994   0.867
 9933WAT    LP149664   6.008   6.065   0.908
 9933WAT    LP249665   6.060   6.006   0.991
 9934WAT     OW49666   4.509   4.029   1.418
 9934WAT    HW149667   4.445   3.960   1.398
 9934WAT    HW249668   4.563   3.991   1.487
 9934WAT    LP149669   4.547   4.044   1.361
 9934WAT    LP249670   4.476   4.087   1.440
 9935WAT     OW49671   5.529   0.832   1.581
 9935WAT    HW149672   5.584   0.904   1.550
 9935WAT    HW249673   5.446   0.874   1.606
 9935WAT    LP149674   5.518   0.785   1.530
 9935WAT    LP249675   5.558   0.801   1.636
 9936WAT     OW49676   1.655   0.131   3.351
 9936WAT    HW149677   1.695   0.045   3.365
 9936WAT    HW249678   1.614   0.152   3.435
 9936WAT    LP149679   1.704   0.178   3.334
 9936WAT    LP249680   1.607   0.127   3.300
 9937WAT     OW49681   1.433   0.014   3.804
 9937WAT    HW149682   1.436  -0.074   3.767
 9937WAT    HW249683   1.363   0.011   3.869
 9937WAT    LP149684   1.494   0.030   3.834
 9937WAT    LP249685   1.419   0.062   3.754
 9938WAT     OW49686   2.426   2.144   1.379
 9938WAT    HW149687   2.442   2.234   1.407
 9938WAT    HW249688   2.414   2.095   1.461
 9938WAT    LP149689   2.368   2.140   1.340
 9938WAT    LP249690   2.480   2.119   1.344
 9939WAT     OW49691   1.845   2.523   1.685
 9939WAT    HW149692   1.881   2.523   1.597
 9939WAT    HW249693   1.807   2.436   1.696
 9939WAT    LP149694   1.895   2.535   1.732
 9939WAT    LP249695   1.795   2.572   1.691
 9940WAT     OW49696   6.066   1.064   3.036
 9940WAT    HW149697   5.984   1.079   3.083
 9940WAT    HW249698   6.040   1.046   2.946
 9940WAT    LP149699   6.107   1.121   3.039
 9940WAT    LP249700   6.100   1.009   3.063
 9941WAT     OW49701   2.817   1.092   0.986
 9941WAT    HW149702   2.842   1.134   0.904
 9941WAT    HW249703   2.838   1.157   1.053
 9941WAT    LP149704   2.749   1.077   0.986
 9941WAT    LP249705   2.854   1.034   0.996
 9942WAT     OW49706   5.359   4.035   1.791
 9942WAT    HW149707   5.359   4.103   1.724
 9942WAT    HW249708   5.450   4.007   1.797
 9942WAT    LP149709   5.336   4.060   1.852
 9942WAT    LP249710   5.318   3.981   1.771
 9943WAT     OW49711   5.012   5.650   6.003
 9943WAT    HW149712   4.922   5.620   6.009
 9943WAT    HW249713   5.044   5.650   6.093
 9943WAT    LP149714   5.050   5.607   5.963
 9943WAT    LP249715   5.015   5.715   5.976
 9944WAT     OW49716   3.808   6.552   4.748
 9944WAT    HW149717   3.768   6.638   4.765
 9944WAT    HW249718   3.765   6.521   4.668
 9944WAT    LP149719   3.877   6.559   4.738
 9944WAT    LP249720   3.796   6.509   4.801
 9945WAT     OW49721   0.121   1.803   5.326
 9945WAT    HW149722   0.192   1.836   5.271
 9945WAT    HW249723   0.119   1.709   5.309
 9945WAT    LP149724   0.135   1.816   5.394
 9945WAT    LP249725   0.060   1.833   5.309
 9946WAT     OW49726   2.936   1.712   2.787
 9946WAT    HW149727   2.977   1.797   2.775
 9946WAT    HW249728   2.852   1.731   2.828
 9946WAT    LP149729   2.926   1.680   2.725
 9946WAT    LP249730   2.975   1.671   2.828
 9947WAT     OW49731   5.931   3.485   5.386
 9947WAT    HW149732   5.852   3.436   5.412
 9947WAT    HW249733   5.919   3.572   5.425
 9947WAT    LP149734   5.988   3.454   5.412
 9947WAT    LP249735   5.936   3.489   5.316
 9948WAT     OW49736   0.584   1.479   0.606
 9948WAT    HW149737   0.567   1.573   0.610
 9948WAT    HW249738   0.538   1.450   0.528
 9948WAT    LP149739   0.653   1.466   0.601
 9948WAT    LP249740   0.559   1.447   0.663
 9949WAT     OW49741   4.664   5.434   4.877
 9949WAT    HW149742   4.735   5.373   4.895
 9949WAT    HW249743   4.708   5.516   4.856
 9949WAT    LP149744   4.625   5.412   4.823
 9949WAT    LP249745   4.623   5.442   4.933
 9950WAT     OW49746   2.973   4.159   4.759
 9950WAT    HW149747   3.003   4.069   4.748
 9950WAT    HW249748   3.028   4.194   4.829
 9950WAT    LP149749   2.983   4.196   4.700
 9950WAT    LP249750   2.906   4.161   4.777
 9951WAT     OW49751   4.355   6.434   5.089
 9951WAT    HW149752   4.383   6.375   5.020
 9951WAT    HW249753   4.314   6.508   5.044
 9951WAT    LP149754   4.308   6.402   5.131
 9951WAT    LP249755   4.409   6.455   5.127
 9952WAT     OW49756   1.413   1.288   5.917
 9952WAT    HW149757   1.431   1.336   5.998
 9952WAT    HW249758   1.493   1.297   5.865
 9952WAT    LP149759   1.400   1.220   5.931
 9952WAT    LP249760   1.359   1.315   5.883
 9953WAT     OW49761   5.060   4.397   0.288
 9953WAT    HW149762   5.139   4.364   0.332
 9953WAT    HW249763   5.051   4.342   0.211
 9953WAT    LP149764   5.004   4.391   0.330
 9953WAT    LP249765   5.069   4.464   0.270
 9954WAT     OW49766   0.189   2.235   6.142
 9954WAT    HW149767   0.139   2.172   6.090
 9954WAT    HW249768   0.146   2.319   6.126
 9954WAT    LP149769   0.188   2.219   6.210
 9954WAT    LP249770   0.256   2.237   6.120
 9955WAT     OW49771   0.718   1.703   4.029
 9955WAT    HW149772   0.710   1.609   4.048
 9955WAT    HW249773   0.631   1.730   4.003
 9955WAT    LP149774   0.739   1.738   4.086
 9955WAT    LP249775   0.764   1.714   3.977
 9956WAT     OW49776   3.590   3.342   6.596
 9956WAT    HW149777   3.643   3.402   6.648
 9956WAT    HW249778   3.550   3.283   6.659
 9956WAT    LP149779   3.541   3.377   6.560
 9956WAT    LP249780   3.630   3.307   6.551
 9957WAT     OW49781   5.154   4.498   1.296
 9957WAT    HW149782   5.125   4.517   1.207
 9957WAT    HW249783   5.224   4.562   1.312
 9957WAT    LP149784   5.101   4.507   1.342
 9957WAT    LP249785   5.178   4.433   1.301
 9958WAT     OW49786   6.539   5.788   4.365
 9958WAT    HW149787   6.511   5.715   4.420
 9958WAT    HW249788   6.459   5.835   4.343
 9958WAT    LP149789   6.583   5.830   4.401
 9958WAT    LP249790   6.571   5.765   4.308
 9959WAT     OW49791   3.230   4.645   0.279
 9959WAT    HW149792   3.265   4.580   0.219
 9959WAT    HW249793   3.304   4.703   0.299
 9959WAT    LP149794   3.178   4.681   0.250
 9959WAT    LP249795   3.206   4.614   0.338
 9960WAT     OW49796   2.434   6.594   4.620
 9960WAT    HW149797   2.509   6.543   4.651
 9960WAT    HW249798   2.374   6.596   4.694
 9960WAT    LP149799   2.454   6.659   4.603
 9960WAT    LP249800   2.405   6.563   4.565
 9961WAT     OW49801   6.577   5.245   2.200
 9961WAT    HW149802   6.552   5.200   2.280
 9961WAT    HW249803   6.505   5.305   2.182
 9961WAT    LP149804   6.637   5.281   2.209
 9961WAT    LP249805   6.586   5.200   2.147
 9962WAT     OW49806   2.108   1.439   1.726
 9962WAT    HW149807   2.111   1.534   1.714
 9962WAT    HW249808   2.200   1.414   1.734
 9962WAT    LP149809   2.072   1.423   1.784
 9962WAT    LP249810   2.078   1.408   1.671
 9963WAT     OW49811   4.297   1.920   2.980
 9963WAT    HW149812   4.222   1.881   2.936
 9963WAT    HW249813   4.364   1.852   2.979
 9963WAT    LP149814   4.320   1.977   2.945
 9963WAT    LP249815   4.282   1.939   3.045
 9964WAT     OW49816   2.259   1.809   4.004
 9964WAT    HW149817   2.240   1.845   4.091
 9964WAT    HW249818   2.180   1.761   3.981
 9964WAT    LP149819   2.271   1.861   3.958
 9964WAT    LP249820   2.314   1.767   4.007
 9965WAT     OW49821   3.199   6.666   2.466
 9965WAT    HW149822   3.231   6.756   2.460
 9965WAT    HW249823   3.135   6.668   2.537
 9965WAT    LP149824   3.168   6.647   2.406
 9965WAT    LP249825   3.251   6.622   2.480
 9966WAT     OW49826   2.091   5.095   0.019
 9966WAT    HW149827   2.139   5.172   0.047
 9966WAT    HW249828   2.091   5.100  -0.077
 9966WAT    LP149829   2.124   5.036   0.040
 9966WAT    LP249830   2.026   5.095   0.043
 9967WAT     OW49831   0.881   4.574   6.263
 9967WAT    HW149832   0.792   4.545   6.244
 9967WAT    HW249833   0.878   4.670   6.254
 9967WAT    LP149834   0.900   4.556   6.328
 9967WAT    LP249835   0.926   4.547   6.217
 9968WAT     OW49836   6.138   1.281   4.421
 9968WAT    HW149837   6.178   1.195   4.436
 9968WAT    HW249838   6.094   1.273   4.337
 9968WAT    LP149839   6.092   1.295   4.472
 9968WAT    LP249840   6.187   1.331   4.419
 9969WAT     OW49841   1.808   6.364   4.461
 9969WAT    HW149842   1.761   6.443   4.488
 9969WAT    HW249843   1.895   6.374   4.500
 9969WAT    LP149844   1.777   6.306   4.486
 9969WAT    LP249845   1.812   6.360   4.392
 9970WAT     OW49846   2.440   0.957   5.688
 9970WAT    HW149847   2.399   0.870   5.687
 9970WAT    HW249848   2.496   0.958   5.611
 9970WAT    LP149849   2.391   1.007   5.684
 9970WAT    LP249850   2.478   0.965   5.746
 9971WAT     OW49851   2.476   3.586   4.378
 9971WAT    HW149852   2.443   3.673   4.397
 9971WAT    HW249853   2.508   3.592   4.288
 9971WAT    LP149854   2.528   3.568   4.422
 9971WAT    LP249855   2.425   3.538   4.382
 9972WAT     OW49856   3.687   1.645   4.855
 9972WAT    HW149857   3.728   1.727   4.825
 9972WAT    HW249858   3.700   1.584   4.782
 9972WAT    LP149859   3.718   1.621   4.912
 9972WAT    LP249860   3.619   1.655   4.867
 9973WAT     OW49861   5.047   6.184   4.450
 9973WAT    HW149862   5.067   6.234   4.372
 9973WAT    HW249863   5.095   6.102   4.440
 9973WAT    LP149864   5.068   6.218   4.508
 9973WAT    LP249865   4.978   6.171   4.455
 9974WAT     OW49866   6.227   3.664   6.308
 9974WAT    HW149867   6.227   3.588   6.250
 9974WAT    HW249868   6.261   3.736   6.255
 9974WAT    LP149869   6.162   3.678   6.330
 9974WAT    LP249870   6.268   3.653   6.364
 9975WAT     OW49871   1.791   4.051   5.881
 9975WAT    HW149872   1.880   4.086   5.885
 9975WAT    HW249873   1.757   4.082   5.798
 9975WAT    LP149874   1.792   3.981   5.884
 9975WAT    LP249875   1.753   4.076   5.935
 9976WAT     OW49876   5.116   3.626   3.376
 9976WAT    HW149877   5.078   3.608   3.462
 9976WAT    HW249878   5.055   3.689   3.337
 9976WAT    LP149879   5.180   3.654   3.382
 9976WAT    LP249880   5.120   3.568   3.338
 9977WAT     OW49881   0.805   1.170   4.298
 9977WAT    HW149882   0.805   1.084   4.340
 9977WAT    HW249883   0.786   1.151   4.206
 9977WAT    LP149884   0.756   1.211   4.326
 9977WAT    LP249885   0.868   1.200   4.305
 9978WAT     OW49886   5.596   4.680   1.574
 9978WAT    HW149887   5.614   4.757   1.520
 9978WAT    HW249888   5.677   4.629   1.570
 9978WAT    LP149889   5.581   4.699   1.640
 9978WAT    LP249890   5.542   4.644   1.548
 9979WAT     OW49891   1.310   3.899   1.463
 9979WAT    HW149892   1.276   3.810   1.454
 9979WAT    HW249893   1.243   3.955   1.425
 9979WAT    LP149894   1.321   3.915   1.530
 9979WAT    LP249895   1.370   3.906   1.428
 9980WAT     OW49896   1.634   1.772   4.833
 9980WAT    HW149897   1.591   1.690   4.809
 9980WAT    HW249898   1.564   1.826   4.870
 9980WAT    LP149899   1.684   1.760   4.881
 9980WAT    LP249900   1.662   1.802   4.777
 9981WAT     OW49901   5.660   0.717   2.250
 9981WAT    HW149902   5.617   0.683   2.171
 9981WAT    HW249903   5.649   0.812   2.243
 9981WAT    LP149904   5.629   0.693   2.308
 9981WAT    LP249905   5.728   0.701   2.251
 9982WAT     OW49906   0.275   5.531   6.292
 9982WAT    HW149907   0.209   5.586   6.335
 9982WAT    HW249908   0.263   5.548   6.198
 9982WAT    LP149909   0.339   5.549   6.312
 9982WAT    LP249910   0.264   5.463   6.306
 9983WAT     OW49911   1.429   3.299   0.784
 9983WAT    HW149912   1.489   3.291   0.710
 9983WAT    HW249913   1.424   3.211   0.821
 9983WAT    LP149914   1.453   3.345   0.831
 9983WAT    LP249915   1.365   3.320   0.762
 9984WAT     OW49916   6.603   6.664   2.288
 9984WAT    HW149917   6.687   6.698   2.317
 9984WAT    HW249918   6.577   6.601   2.355
 9984WAT    LP149919   6.555   6.715   2.282
 9984WAT    LP249920   6.610   6.632   2.226
 9985WAT     OW49921   0.642   0.827   2.778
 9985WAT    HW149922   0.609   0.817   2.867
 9985WAT    HW249923   0.702   0.902   2.782
 9985WAT    LP149924   0.676   0.769   2.758
 9985WAT    LP249925   0.590   0.840   2.733
 9986WAT     OW49926   0.238   1.496   2.490
 9986WAT    HW149927   0.253   1.426   2.554
 9986WAT    HW249928   0.223   1.574   2.542
 9986WAT    LP149929   0.294   1.504   2.449
 9986WAT    LP249930   0.182   1.481   2.451
 9987WAT     OW49931   3.549   4.801   2.493
 9987WAT    HW149932   3.578   4.807   2.585
 9987WAT    HW249933   3.624   4.765   2.447
 9987WAT    LP149934   3.493   4.759   2.487
 9987WAT    LP249935   3.533   4.865   2.469
 9988WAT     OW49936   2.090   4.174   3.735
 9988WAT    HW149937   2.046   4.157   3.652
 9988WAT    HW249938   2.084   4.269   3.746
 9988WAT    LP149939   2.058   4.141   3.788
 9988WAT    LP249940   2.157   4.154   3.732
 9989WAT     OW49941   1.127   2.160   3.653
 9989WAT    HW149942   1.189   2.087   3.658
 9989WAT    HW249943   1.116   2.176   3.560
 9989WAT    LP149944   1.066   2.143   3.683
 9989WAT    LP249945   1.153   2.217   3.685
 9990WAT     OW49946   2.362   0.264   1.281
 9990WAT    HW149947   2.332   0.181   1.319
 9990WAT    HW249948   2.346   0.255   1.187
 9990WAT    LP149949   2.325   0.318   1.308
 9990WAT    LP249950   2.430   0.274   1.294
 9991WAT     OW49951   5.020   2.682   4.862
 9991WAT    HW149952   5.067   2.661   4.942
 9991WAT    HW249953   5.045   2.773   4.843
 9991WAT    LP149954   5.040   2.640   4.809
 9991WAT    LP249955   4.951   2.677   4.871
 9992WAT     OW49956   0.075   2.008   3.787
 9992WAT    HW149957   0.091   1.922   3.748
 9992WAT    HW249958   0.013   2.050   3.728
 9992WAT    LP149959   0.048   2.001   3.851
 9992WAT    LP249960   0.135   2.045   3.791
 9993WAT     OW49961   1.094   3.928   2.284
 9993WAT    HW149962   1.141   3.965   2.209
 9993WAT    HW249963   1.010   3.974   2.285
 9993WAT    LP149964   1.085   3.859   2.276
 9993WAT    LP249965   1.130   3.940   2.344
 9994WAT     OW49966   5.552   1.065   0.103
 9994WAT    HW149967   5.585   1.151   0.128
 9994WAT    HW249968   5.613   1.034   0.035
 9994WAT    LP149969   5.552   1.021   0.157
 9994WAT    LP249970   5.487   1.070   0.077
 9995WAT     OW49971   0.507   3.903   1.751
 9995WAT    HW149972   0.440   3.839   1.773
 9995WAT    HW249973   0.585   3.851   1.731
 9995WAT    LP149974   0.488   3.941   1.696
 9995WAT    LP249975   0.520   3.945   1.806
 9996WAT     OW49976   4.829   2.298   5.546
 9996WAT    HW149977   4.834   2.366   5.613
 9996WAT    HW249978   4.737   2.297   5.519
 9996WAT    LP149979   4.870   2.313   5.492
 9996WAT    LP249980   4.847   2.235   5.572
 9997WAT     OW49981   1.422   2.518   4.731
 9997WAT    HW149982   1.332   2.493   4.710
 9997WAT    HW249983   1.473   2.437   4.720
 9997WAT    LP149984   1.445   2.568   4.688
 9997WAT    LP249985   1.426   2.540   4.797
 9998WAT     OW49986   3.329   6.203   5.763
 9998WAT    HW149987   3.334   6.298   5.774
 9998WAT    HW249988   3.297   6.171   5.847
 9998WAT    LP149989   3.285   6.187   5.712
 9998WAT    LP249990   3.393   6.177   5.749
 9999WAT     OW49991   2.907   6.387   3.173
 9999WAT    HW149992   2.989   6.371   3.127
 9999WAT    HW249993   2.879   6.301   3.204
 9999WAT    LP149994   2.917   6.431   3.227
 9999WAT    LP249995   2.859   6.414   3.129
10000WAT     OW49996   2.334   6.631   0.151
10000WAT    HW149997   2.376   6.555   0.190
10000WAT    HW249998   2.395   6.661   0.083
10000WAT    LP149999   2.272   6.614   0.123
10000WAT    LP250000   2.325   6.681   0.199
   6.79516   6.68523   6.64826
