
[ moleculetype ]
; molname nrexcl
 WAT      2

[ atoms ]
; id at type   res nr   resname atname  cg nr     charge
1       OW        1       WAT      OW     1       0.0000
2       HW        1       WAT     HW1     1       0.5564
3       HW        1       WAT     HW2     1       0.5564
4       MW        1       WAT      MW     1      -1.1128

[ settles ]
; OW    funct   doh        dhh
1       1       0.09572    0.15139

[ dummies3 ]
; Dummy from      funct     a             b
4    1    2    3    1    0.131937768    0.131937768

[ exclusions ]
1    2    3    4
2    1    3    4
3    1    2    4
4    1    2    3

