
[ moleculetype ]
; molname	nrexcl
 WAT		2

[ atoms ]
; id	at type	res nr 	residu name	at name	cg nr	charge
1       OW        1       WAT      OW     1      -0.641114
2       HW        1       WAT     HW1     1       0.394137
3       HW        1       WAT     HW2     1       0.394137
4       MW        1       WAT     LP1     1      -0.073580
5       MW        1       WAT     LP2     1      -0.073580

[ settles ]
; i     funct   doh     dhh
1       1       0.09572 0.15139

[ dummies3 ]
; Dummy from                  funct         a          b            c
4       1       2       3       4       -0.344908  -0.344908  -6.4437903493
5       1       2       3       4       -0.344908  -0.344908   6.4437903493

[ exclusions ]
1       2       3       4       5
2       1       3       4       5
3       1       2       4       5
4       1       2       3       5
5       1       2       3       4

